Title
82320
    1SAPS     N    1   3.682   4.460  10.915 -0.4838  0.3996 -1.0582
    1SAPS   HN1    2   3.694   4.550  10.966  0.1304  0.5469 -1.4509
    1SAPS   HN2    3   3.768   4.401  10.921 -0.1366  1.0028  0.8044
    1SAPS   HN3    4   3.669   4.475  10.813 -0.9824  0.1138 -1.0392
    1SAPS   C12    5   3.564   4.373  10.947  0.3629 -0.2016  0.7915
    1SAPS  H12A    6   3.586   4.312  11.033  2.0431  1.2257  1.4068
    1SAPS   C13    7   3.435   4.457  10.982  0.2336  0.5961  0.0115
    1SAPS  O13A    8   3.447   4.575  10.999  0.1920 -0.4495  0.1932
    1SAPS  O13B    9   3.341   4.386  11.035 -0.0953  0.3649  0.1952
    1SAPS   C11   10   3.535   4.282  10.829 -0.5489  0.0315 -0.4192
    1SAPS  H11A   11   3.519   4.352  10.744 -0.7379 -0.8739 -1.1488
    1SAPS  H11B   12   3.446   4.219  10.852 -0.1288 -0.1497  0.7557
    1SAPS     P   13   3.647   4.042  10.814  0.2469 -0.0017  0.1934
    1SAPS   O13   14   3.777   3.988  10.782  0.1458  0.2421  0.1429
    1SAPS   O14   15   3.590   4.002  10.945 -0.0160  0.6948 -0.6241
    1SAPS   O12   16   3.644   4.199  10.795  0.1915 -0.7889 -0.1489
    1SAPS   O11   17   3.548   3.985  10.705  0.4071  0.1761 -0.2560
    1SAPS    C1   18   3.567   4.020  10.569  0.4191  0.5179 -0.1380
    1SAPS    HA   19   3.577   4.128  10.545  2.1613  0.7142  1.2477
    1SAPS    HB   20   3.661   3.971  10.537 -0.2935 -0.4878 -0.7377
    1SAPS    C2   21   3.450   3.965  10.480  0.9493  0.9463 -0.1259
    1SAPS    HS   22   3.351   3.997  10.519  0.3917 -0.2123 -0.5320
    1SAPS   O21   23   3.456   3.822  10.489 -0.2685  0.0888  0.8073
    1SAPS   C21   24   3.348   3.765  10.435  0.4149  0.9991  0.1686
    1SAPS   O22   25   3.237   3.811  10.417  0.0803 -0.0894  0.3051
    1SAPS   C22   26   3.382   3.613  10.397  0.0644  0.6018 -0.1806
    1SAPS   H2R   27   3.488   3.616  10.364 -0.2987  1.3116 -1.3746
    1SAPS   H2S   28   3.371   3.565  10.497  1.0824  2.5260  0.9263
    1SAPS    C3   29   3.452   4.034  10.341 -0.2504 -0.9432 -0.1500
    1SAPS    HX   30   3.557   4.016  10.310  1.2021 -0.3399  3.9275
    1SAPS    HY   31   3.456   4.144  10.356  0.5172 -0.8089 -1.2078
    1SAPS   O31   32   3.365   3.990  10.235 -0.7546 -0.0801 -0.2534
    1SAPS   C31   33   3.298   4.082  10.169 -0.2771 -0.4693 -0.5617
    1SAPS   O32   34   3.317   4.206  10.170  0.3310  0.0907  0.5130
    1SAPS   C32   35   3.201   4.016  10.068  0.1394  0.3900 -0.4251
    1SAPS   H2X   36   3.098   4.027  10.109  0.1707  0.7344 -0.4397
    1SAPS   H2Y   37   3.223   3.908  10.053 -0.1740  0.3692 -0.7525
    1SAPS   C23   38   3.292   3.557  10.283  0.8360 -0.5543 -0.2677
    1SAPS   H3R   39   3.286   3.616  10.190 -0.9176 -0.2859 -0.0074
    1SAPS   H3S   40   3.186   3.554  10.313  0.7392 -0.0965 -0.5526
    1SAPS   C24   41   3.321   3.412  10.253 -0.0732 -0.0562  0.1462
    1SAPS   H4R   42   3.259   3.372  10.170 -0.0644 -0.4095  0.3086
    1SAPS   H4S   43   3.290   3.353  10.341  0.8215 -1.8186 -0.6691
    1SAPS   C25   44   3.465   3.383  10.224  0.0466  0.3908 -0.2947
    1SAPS   H5R   45   3.524   3.350  10.310 -0.7221 -1.9547 -0.5964
    1SAPS   C26   46   3.515   3.374  10.101 -0.1969  0.3764 -0.2208
    1SAPS   H6R   47   3.614   3.329  10.090 -0.7719 -1.1828  0.6092
    1SAPS   C27   48   3.443   3.412   9.971  0.0836  0.7184 -0.0700
    1SAPS   H7R   49   3.522   3.453   9.905 -0.1430 -1.0889 -1.5336
    1SAPS   H7S   50   3.376   3.501   9.973 -0.7564  0.0855  1.2222
    1SAPS   C28   51   3.366   3.302   9.908 -0.0022 -0.5321  0.6342
    1SAPS   H8R   52   3.296   3.260   9.981 -0.7737  0.1090  0.2771
    1SAPS   C29   53   3.387   3.239   9.788 -0.3705 -0.8323 -0.0278
    1SAPS   H9R   54   3.335   3.144   9.770  0.4510 -1.1953 -0.5565
    1SAPS  C210   55   3.492   3.290   9.685  0.6802  0.1545  0.1026
    1SAPS  H10R   56   3.545   3.379   9.726 -0.2535  0.7584  0.0312
    1SAPS  H10S   57   3.438   3.328   9.596  0.4208  0.0680  0.2228
    1SAPS  C211   58   3.580   3.171   9.656  0.4413  0.2340 -0.5442
    1SAPS  H11R   59   3.628   3.132   9.747  0.1391 -0.7111 -0.7765
    1SAPS  C212   60   3.605   3.109   9.541 -0.2592 -0.4925  0.3038
    1SAPS  H12R   61   3.674   3.023   9.542 -0.6302 -0.7980  0.0233
    1SAPS  C213   62   3.550   3.163   9.412  0.3915 -0.0281 -0.2016
    1SAPS  H13R   63   3.474   3.243   9.424  2.1013  1.5636  0.5569
    1SAPS  H13S   64   3.490   3.088   9.356  0.0355  0.2308 -0.1732
    1SAPS  C214   65   3.666   3.229   9.333 -0.8677  0.2206  0.3845
    1SAPS  H14R   66   3.679   3.337   9.351 -0.2408  0.2580 -0.2254
    1SAPS  C215   67   3.753   3.166   9.249 -0.1213  0.4109  0.7566
    1SAPS  H15R   68   3.840   3.215   9.202  0.6461 -3.2466 -2.0983
    1SAPS  C216   69   3.730   3.017   9.202 -0.7082  0.0771 -0.2165
    1SAPS  H16R   70   3.637   2.980   9.251  0.4639  0.4339  2.4631
    1SAPS  H16S   71   3.815   2.953   9.234 -1.9136 -1.8968 -0.8075
    1SAPS  C217   72   3.705   3.001   9.054 -0.1980  0.2843  0.7054
    1SAPS  H17R   73   3.633   3.081   9.024  0.3029  0.5000  0.0550
    1SAPS  H17S   74   3.665   2.899   9.037  1.7877 -0.9225  2.7877
    1SAPS  C218   75   3.833   3.018   8.970  0.0542  0.3150 -0.5224
    1SAPS  H18R   76   3.914   2.945   8.994  0.7224  0.2802 -2.6679
    1SAPS  H18S   77   3.865   3.118   9.006  1.3450  0.0694 -0.9177
    1SAPS  C219   78   3.800   3.038   8.822 -0.8444  0.6495  0.4180
    1SAPS  H19R   79   3.881   3.106   8.786 -0.0946 -0.1886  0.4775
    1SAPS  H19S   80   3.700   3.085   8.808 -1.6786 -1.4117 -0.9316
    1SAPS  C220   81   3.824   2.911   8.742 -0.5218  1.1077  0.8677
    1SAPS  H20R   82   3.805   2.925   8.633  0.9175 -3.0358 -0.1250
    1SAPS  H20S   83   3.761   2.827   8.779  2.1025 -2.4012 -1.8655
    1SAPS  H20T   84   3.930   2.878   8.744 -0.0016  2.4017 -1.6936
    1SAPS   C33   85   3.207   4.090   9.932  0.5370  0.4476  0.3216
    1SAPS   H3X   86   3.313   4.108   9.906  1.0133 -2.4242 -0.0752
    1SAPS   H3Y   87   3.136   4.175   9.929  0.0242  0.0664  1.2511
    1SAPS   C34   88   3.158   3.996   9.821 -0.2291  0.5284  0.1242
    1SAPS   H4X   89   3.060   3.952   9.847  0.9968 -0.4240  3.7990
    1SAPS   H4Y   90   3.230   3.911   9.823 -1.8672 -0.8921  0.6827
    1SAPS   C35   91   3.174   4.052   9.683  0.4782 -0.8290  0.5867
    1SAPS   H5X   92   3.276   4.097   9.684 -0.5776  1.9337 -1.6643
    1SAPS   H5Y   93   3.097   4.131   9.672  0.3371 -0.5321  3.0977
    1SAPS   C36   94   3.150   3.955   9.568  0.1819  0.7472 -0.3129
    1SAPS   H6X   95   3.048   3.913   9.580  1.1991 -1.8838  0.0250
    1SAPS   H6Y   96   3.223   3.874   9.591  1.0747  1.5704 -0.1541
    1SAPS   C37   97   3.189   4.013   9.431  0.0081  1.1387 -0.0890
    1SAPS   H7X   98   3.298   4.029   9.424  0.7725 -3.3043 -1.5362
    1SAPS   H7Y   99   3.132   4.108   9.425 -2.0915 -0.0693 -0.7423
    1SAPS   C38  100   3.150   3.921   9.313  0.5705  0.5499  0.1480
    1SAPS   H8X  101   3.038   3.919   9.311  0.4744  2.3182  1.7608
    1SAPS   H8Y  102   3.193   3.819   9.321  0.3551  0.4654  0.2549
    1SAPS   C39  103   3.195   3.984   9.173 -0.2084 -0.0038  0.1700
    1SAPS   H9X  104   3.306   3.991   9.172 -0.1141 -0.2753  2.4701
    1SAPS   H9Y  105   3.136   4.078   9.170 -0.5474 -0.2362 -1.4238
    1SAPS  C310  106   3.142   3.892   9.057 -0.2164  0.0586  0.6749
    1SAPS  H10X  107   3.031   3.892   9.066 -0.2533  1.7913  0.5861
    1SAPS  H10Y  108   3.172   3.785   9.060  1.3328  0.4532 -0.2593
    1SAPS  C311  109   3.184   3.953   8.920  1.0830 -0.4462  0.0360
    1SAPS  H11X  110   3.294   3.944   8.906  1.4638  1.9382  0.9921
    1SAPS  H11Y  111   3.161   4.062   8.918  0.3602 -0.5344  1.7423
    1SAPS  C312  112   3.110   3.882   8.809  0.2053 -0.2859 -0.1895
    1SAPS  H12X  113   3.128   3.938   8.715  3.3637 -2.6298 -1.1652
    1SAPS  H12Y  114   3.001   3.878   8.833  0.1011  0.2958 -0.5604
    1SAPS  C313  115   3.161   3.738   8.784 -0.3949 -0.7326  0.1558
    1SAPS  H13X  116   3.168   3.682   8.879 -1.6630  0.4044  0.9548
    1SAPS  H13Y  117   3.262   3.736   8.737  0.0554 -2.0364  1.1333
    1SAPS  C314  118   3.066   3.661   8.689 -0.1346 -0.4129  0.1058
    1SAPS  H14X  119   2.967   3.653   8.738  0.8253 -0.0967  2.2228
    1SAPS  H14Y  120   3.109   3.560   8.672  0.3128  0.1533 -2.5625
    1SAPS  C315  121   3.060   3.734   8.556  0.3507 -0.1191  0.0758
    1SAPS  H15X  122   3.152   3.736   8.492  0.7657  1.0280  0.6703
    1SAPS  H15Y  123   3.026   3.840   8.562  0.8848  0.2188 -1.9772
    1SAPS  C316  124   2.954   3.666   8.465  0.4901  0.3592 -0.2221
    1SAPS  H16X  125   2.945   3.742   8.384 -2.4522 -1.3239 -1.6619
    1SAPS  H16Y  126   2.852   3.671   8.510  0.3657 -0.0298 -0.4499
    1SAPS  C317  127   2.989   3.535   8.392  0.1874 -0.3179 -0.4170
    1SAPS  H17X  128   3.087   3.560   8.346  0.1466 -1.4930 -1.1670
    1SAPS  H17Y  129   2.921   3.525   8.305  2.4629 -3.0488 -2.0349
    1SAPS  C318  130   2.967   3.410   8.474 -0.2243  0.3135 -0.9115
    1SAPS  H18X  131   3.001   3.312   8.433 -1.5534 -0.6702  0.2244
    1SAPS  H18Y  132   2.856   3.405   8.485 -0.2307  2.0627  0.0316
    1SAPS  H18Z  133   3.013   3.411   8.575 -2.2930 -0.9587  0.1161
    2SAPS     N  134   6.658   4.793  10.542 -0.2875 -0.0105 -0.6072
    2SAPS   HN1  135   6.618   4.865  10.477  1.5002  0.3593 -1.3535
    2SAPS   HN2  136   6.742   4.761  10.489 -0.6712  1.4862 -2.2213
    2SAPS   HN3  137   6.598   4.710  10.559 -0.6066  0.3681  0.1497
    2SAPS   C12  138   6.693   4.845  10.683  0.6905  0.4147 -0.0123
    2SAPS  H12A  139   6.689   4.952  10.664 -0.8818 -0.0532 -2.8662
    2SAPS   C13  140   6.583   4.827  10.784 -0.1586  0.1015  0.9192
    2SAPS  O13A  141   6.474   4.776  10.751  0.2468 -0.0454 -0.0201
    2SAPS  O13B  142   6.606   4.876  10.897 -0.4322  0.4088 -0.0094
    2SAPS   C11  143   6.823   4.786  10.728  0.2363 -0.7855 -0.0232
    2SAPS  H11A  144   6.815   4.677  10.709 -1.8174 -0.7248  0.2152
    2SAPS  H11B  145   6.838   4.806  10.837  0.6783 -2.3355  0.2276
    2SAPS     P  146   7.016   4.968  10.690  0.4719 -0.5224 -0.3527
    2SAPS   O13  147   6.924   5.086  10.706  0.5937  0.0865  0.0353
    2SAPS   O14  148   7.099   4.934  10.803  0.4785  0.0940  0.9029
    2SAPS   O12  149   6.929   4.834  10.650 -0.0075 -0.4339  0.0701
    2SAPS   O11  150   7.118   4.996  10.567  0.0534  0.5407 -0.6691
    2SAPS    C1  151   7.219   4.892  10.548  0.5905 -0.3717  0.2414
    2SAPS    HA  152   7.308   4.927  10.605 -0.6358  1.3973  1.1810
    2SAPS    HB  153   7.196   4.788  10.580  0.0538 -0.6449 -0.9772
    2SAPS    C2  154   7.263   4.874  10.400  0.5499  0.6268  0.2059
    2SAPS    HS  155   7.355   4.813  10.385 -2.3786 -4.4295  0.8062
    2SAPS   O21  156   7.279   5.014  10.359  0.0667 -0.1758  0.2869
    2SAPS   C21  157   7.390   5.079  10.396  0.1949  0.5374 -0.7611
    2SAPS   O22  158   7.491   5.029  10.447 -0.5051  0.4297  0.3611
    2SAPS   C22  159   7.373   5.223  10.359  0.1780 -0.8419  0.3428
    2SAPS   H2R  160   7.327   5.231  10.258 -1.3468  1.3361  1.1450
    2SAPS   H2S  161   7.308   5.274  10.433  0.5368 -2.2783  1.6906
    2SAPS    C3  162   7.140   4.796  10.336 -0.1839 -1.0171  0.5082
    2SAPS    HX  163   7.062   4.875  10.345  1.5966  0.7292  1.3607
    2SAPS    HY  164   7.102   4.711  10.397 -1.3929  1.2816  3.2057
    2SAPS   O31  165   7.164   4.769  10.195 -0.0548  0.3041 -0.4003
    2SAPS   C31  166   7.219   4.646  10.172 -0.5066 -0.0727  0.1982
    2SAPS   O32  167   7.238   4.561  10.261  0.0801  0.2248 -0.6090
    2SAPS   C32  168   7.268   4.648  10.030 -0.2317  0.1536  0.4085
    2SAPS   H2X  169   7.319   4.745  10.013  0.8056 -0.1784  1.5072
    2SAPS   H2Y  170   7.179   4.652   9.963 -0.0020  0.1843  0.1020
    2SAPS   C23  171   7.513   5.293  10.339  0.2256 -0.4209 -0.2978
    2SAPS   H3R  172   7.576   5.264  10.426  0.8357 -0.9199 -0.8950
    2SAPS   H3S  173   7.493   5.402  10.345  1.0858  0.1255 -4.3197
    2SAPS   C24  174   7.590   5.262  10.218 -0.2769 -0.2048  0.2175
    2SAPS   H4R  175   7.593   5.153  10.198  0.3130  0.1478 -1.8856
    2SAPS   H4S  176   7.689   5.303  10.248 -0.4334 -1.3695  2.5242
    2SAPS   C25  177   7.529   5.325  10.092  0.4156  0.2601 -0.3508
    2SAPS   H5R  178   7.521   5.434  10.093 -1.5377  0.1599 -1.0071
    2SAPS   C26  179   7.466   5.255   9.996 -0.1163  1.4113 -0.1849
    2SAPS   H6R  180   7.433   5.307   9.905 -0.5839  1.7361  0.1628
    2SAPS   C27  181   7.447   5.106   9.982 -0.0922 -0.0563  0.8928
    2SAPS   H7R  182   7.508   5.043  10.050 -0.6445 -1.1018  0.4355
    2SAPS   H7S  183   7.482   5.084   9.879  1.1227  1.3932  0.9565
    2SAPS   C28  184   7.295   5.085   9.992  0.5722  0.0370 -0.1775
    2SAPS   H8R  185   7.250   5.093  10.092 -1.7936 -0.0677 -1.1932
    2SAPS   C29  186   7.212   5.058   9.888 -0.0753 -0.3440 -0.5539
    2SAPS   H9R  187   7.110   5.031   9.919  1.3040 -1.7861  3.4256
    2SAPS  C210  188   7.238   5.037   9.743 -0.2735 -0.1780 -0.3395
    2SAPS  H10R  189   7.339   5.079   9.725  0.2687 -1.6688 -0.9073
    2SAPS  H10S  190   7.164   5.095   9.684 -1.3455  0.8472  1.8901
    2SAPS  C211  191   7.230   4.888   9.722 -0.5637  0.6099  0.0738
    2SAPS  H11R  192   7.165   4.834   9.793  0.0198 -0.3818 -0.1393
    2SAPS  C212  193   7.301   4.826   9.628 -0.1259  0.8361 -1.1519
    2SAPS  H12R  194   7.283   4.718   9.615  1.1266  0.5842 -0.9152
    2SAPS  C213  195   7.394   4.887   9.528 -0.0186 -0.0942 -0.4751
    2SAPS  H13R  196   7.452   4.811   9.471  1.5058  0.2065  0.6161
    2SAPS  H13S  197   7.470   4.954   9.573  0.4037 -0.9047  0.0375
    2SAPS  C214  198   7.319   4.962   9.423  0.5613 -0.4382 -0.3342
    2SAPS  H14R  199   7.245   5.030   9.468 -0.2407  0.3530 -2.6839
    2SAPS  C215  200   7.318   4.953   9.291 -0.1976  0.1745  0.1779
    2SAPS  H15R  201   7.249   5.013   9.230  1.3002  2.5281  0.6836
    2SAPS  C216  202   7.411   4.869   9.212 -0.9889  0.4007  0.2308
    2SAPS  H16R  203   7.361   4.787   9.156  1.0195 -1.4627  0.9967
    2SAPS  H16S  204   7.485   4.809   9.269  0.6391  1.0837 -1.0794
    2SAPS  C217  205   7.492   4.955   9.112 -0.0273  0.7025 -0.3239
    2SAPS  H17R  206   7.578   4.889   9.088 -0.2289  0.0768  0.6036
    2SAPS  H17S  207   7.535   5.039   9.170 -1.0165  1.0124 -0.0320
    2SAPS  C218  208   7.431   5.014   8.985 -0.1167  0.1250  0.3758
    2SAPS  H18R  209   7.485   5.103   8.947 -2.9633  2.7057  1.9786
    2SAPS  H18S  210   7.325   5.046   8.993 -0.4651 -0.1112 -2.4289
    2SAPS  C219  211   7.451   4.913   8.873  0.1704 -0.7162  0.7312
    2SAPS  H19R  212   7.407   4.819   8.911 -0.8712 -0.4369  0.2575
    2SAPS  H19S  213   7.560   4.890   8.865  0.1875 -0.1160 -1.1947
    2SAPS  C220  214   7.386   4.948   8.735 -0.9056  0.2476 -1.0525
    2SAPS  H20R  215   7.407   5.053   8.706 -1.7577 -0.2350 -3.6658
    2SAPS  H20S  216   7.276   4.946   8.743 -0.7837  0.5626  1.7264
    2SAPS  H20T  217   7.409   4.874   8.655 -0.9547  0.1150 -0.9427
    2SAPS   C33  218   7.361   4.528   9.991 -0.1391 -0.2555 -0.0965
    2SAPS   H3X  219   7.309   4.431  10.007  0.4107 -0.8157 -1.4723
    2SAPS   H3Y  220   7.449   4.529  10.058  0.8780 -1.2244 -1.3586
    2SAPS   C34  221   7.419   4.555   9.846 -0.0654  0.4609  0.2969
    2SAPS   H4X  222   7.473   4.652   9.851 -0.9817  0.9244  1.5955
    2SAPS   H4Y  223   7.335   4.573   9.775  0.2533 -1.0652 -0.5165
    2SAPS   C35  224   7.494   4.440   9.776  0.0209 -0.6135  0.8527
    2SAPS   H5X  225   7.430   4.354   9.748  0.5253 -0.8687  0.4659
    2SAPS   H5Y  226   7.568   4.419   9.856 -0.1850 -0.5250  1.0656
    2SAPS   C36  227   7.576   4.475   9.648  0.2915 -0.2621 -0.0752
    2SAPS   H6X  228   7.651   4.395   9.634  1.0871  0.4381  0.1147
    2SAPS   H6Y  229   7.626   4.573   9.662  0.7313 -0.4446 -0.3483
    2SAPS   C37  230   7.492   4.474   9.517  0.2566 -0.5424  0.3016
    2SAPS   H7X  231   7.417   4.556   9.514  0.1951 -0.6175 -2.3963
    2SAPS   H7Y  232   7.439   4.378   9.501 -1.0527 -0.0488  1.4492
    2SAPS   C38  233   7.586   4.510   9.399  0.2524 -1.1163 -0.5890
    2SAPS   H8X  234   7.670   4.438   9.387  2.2823  0.8489  0.9002
    2SAPS   H8Y  235   7.638   4.608   9.406 -0.4253 -0.8869  1.7886
    2SAPS   C39  236   7.511   4.508   9.265 -0.5280 -0.1780  0.2775
    2SAPS   H9X  237   7.437   4.591   9.265  0.7322  0.9692 -0.6474
    2SAPS   H9Y  238   7.448   4.417   9.252 -0.3876 -0.0549 -1.4601
    2SAPS  C310  239   7.605   4.530   9.145  0.4892 -0.4659  0.0113
    2SAPS  H10X  240   7.666   4.438   9.130  3.6306  1.6826 -1.3077
    2SAPS  H10Y  241   7.666   4.619   9.170 -3.3997  2.9295 -1.4078
    2SAPS  C311  242   7.538   4.548   9.015  0.7160 -0.1124  0.4741
    2SAPS  H11X  243   7.505   4.654   9.012  1.0536 -0.0256 -0.5157
    2SAPS  H11Y  244   7.458   4.472   8.999  1.4596 -0.6066 -1.0937
    2SAPS  C312  245   7.634   4.525   8.895 -0.3444  0.1358 -0.0659
    2SAPS  H12X  246   7.654   4.417   8.881  2.2501  0.3239  1.5520
    2SAPS  H12Y  247   7.728   4.583   8.906 -0.4357  0.5522 -1.2962
    2SAPS  C313  248   7.570   4.581   8.768  0.3282  0.7845 -0.7128
    2SAPS  H13X  249   7.546   4.689   8.776 -0.2922  0.5266  1.9131
    2SAPS  H13Y  250   7.470   4.535   8.754 -0.5308  2.6195 -0.9022
    2SAPS  C314  251   7.633   4.540   8.630  0.1863  0.3041 -0.6065
    2SAPS  H14X  252   7.582   4.596   8.548 -1.3049 -1.5596 -1.0129
    2SAPS  H14Y  253   7.605   4.434   8.617 -0.7826  0.6051 -1.1491
    2SAPS  C315  254   7.785   4.571   8.610  0.0884 -0.2916 -0.5048
    2SAPS  H15X  255   7.837   4.515   8.691  2.9412 -1.0425 -2.7071
    2SAPS  H15Y  256   7.806   4.680   8.607 -1.7037  0.0961 -3.6706
    2SAPS  C316  257   7.839   4.507   8.479 -0.4376 -0.0867 -0.2313
    2SAPS  H16X  258   7.942   4.549   8.472  0.3347 -1.5247  1.3730
    2SAPS  H16Y  259   7.778   4.547   8.396 -0.3034 -1.7845 -1.1881
    2SAPS  C317  260   7.840   4.352   8.472  0.6361  0.9879  0.2039
    2SAPS  H17X  261   7.732   4.327   8.477  0.6851  0.8498  0.6279
    2SAPS  H17Y  262   7.891   4.317   8.565 -1.6829  0.0205  1.1869
    2SAPS  C318  263   7.899   4.292   8.349  0.8947  0.2011 -0.0817
    2SAPS  H18X  264   7.891   4.182   8.335 -2.8118  0.4543 -0.9379
    2SAPS  H18Y  265   8.007   4.316   8.357  0.3292  2.5183  1.1756
    2SAPS  H18Z  266   7.857   4.332   8.254  0.4256 -0.5558 -0.2061
    3SAPS     N  267   1.643   5.435  11.142  0.2583  0.2810 -0.6720
    3SAPS   HN1  268   1.682   5.339  11.148 -1.4666 -0.4303 -0.0025
    3SAPS   HN2  269   1.590   5.452  11.230 -0.1096  2.1999 -1.2310
    3SAPS   HN3  270   1.562   5.434  11.077 -0.8444  0.0825  0.6390
    3SAPS   C12  271   1.743   5.547  11.128 -1.1165 -0.1373  0.0008
    3SAPS  H12A  272   1.684   5.637  11.135 -2.8215 -1.3273  2.4747
    3SAPS   C13  273   1.854   5.535  11.233  0.3562  0.3535 -0.3277
    3SAPS  O13A  274   1.860   5.435  11.307 -0.5094  0.2177  0.2896
    3SAPS  O13B  275   1.938   5.622  11.232 -0.6451 -0.4715 -0.4437
    3SAPS   C11  276   1.805   5.550  10.985  0.0502 -0.0820  0.0233
    3SAPS  H11A  277   1.862   5.455  10.972 -1.1397 -0.7755 -0.2066
    3SAPS  H11B  278   1.876   5.636  10.978  0.1602 -0.1881 -0.1757
    3SAPS     P  279   1.714   5.487  10.740 -0.5299  0.0926  0.0152
    3SAPS   O13  280   1.710   5.342  10.776 -0.0657  0.0095  0.1126
    3SAPS   O14  281   1.612   5.532  10.646  0.7383 -0.0651  0.2770
    3SAPS   O12  282   1.705   5.569  10.876 -0.0980  0.0273  0.4359
    3SAPS   O11  283   1.858   5.522  10.699 -0.1994 -0.1667 -0.1600
    3SAPS    C1  284   1.920   5.642  10.652 -0.1864  0.2124 -0.1229
    3SAPS    HA  285   1.856   5.726  10.684 -1.4086 -0.3537 -1.0129
    3SAPS    HB  286   2.028   5.649  10.679  0.7980  2.3806 -3.9769
    3SAPS    C2  287   1.932   5.647  10.491 -0.3492 -0.2640 -0.0056
    3SAPS    HS  288   1.835   5.629  10.441 -0.1135  0.4573 -0.7365
    3SAPS   O21  289   2.027   5.543  10.453 -0.5494  0.4357  0.2436
    3SAPS   C21  290   2.017   5.494  10.336  0.4288  0.1978 -0.0708
    3SAPS   O22  291   1.928   5.512  10.249  0.3408  0.0773 -0.2964
    3SAPS   C22  292   2.132   5.402  10.311  0.2475  0.1154  0.9557
    3SAPS   H2R  293   2.194   5.388  10.403  0.2873  1.7390  1.2187
    3SAPS   H2S  294   2.096   5.302  10.281  0.5763 -0.5995  2.7690
    3SAPS    C3  295   1.991   5.784  10.449 -0.4406 -0.2387 -0.6438
    3SAPS    HX  296   2.094   5.781  10.491 -0.4181 -0.2342 -0.6983
    3SAPS    HY  297   1.927   5.862  10.495  0.1493  0.2598 -0.6529
    3SAPS   O31  298   1.992   5.799  10.303 -0.8011 -0.3057 -0.1414
    3SAPS   C31  299   2.109   5.830  10.239 -0.4896  0.3308  0.1466
    3SAPS   O32  300   2.217   5.834  10.289 -0.1561 -0.1384 -0.1939
    3SAPS   C32  301   2.081   5.811  10.093  0.1147 -0.4714  0.5085
    3SAPS   H2X  302   1.975   5.789  10.067  0.0116  1.7737 -1.2965
    3SAPS   H2Y  303   2.142   5.730  10.049  0.4505  0.0488  0.0005
    3SAPS   C23  304   2.225   5.460  10.206  0.5187 -0.2313 -0.5466
    3SAPS   H3R  305   2.327   5.417  10.217  0.8505  0.1829 -1.8418
    3SAPS   H3S  306   2.226   5.567  10.233 -0.6841 -1.1191  3.6831
    3SAPS   C24  307   2.174   5.410  10.064 -0.5436  0.8521 -0.6380
    3SAPS   H4R  308   2.069   5.437  10.040 -0.3540  0.9931 -1.2998
    3SAPS   H4S  309   2.172   5.299  10.054 -1.6769  0.8246 -0.3398
    3SAPS   C25  310   2.258   5.465   9.954  0.3521 -0.5950 -0.0917
    3SAPS   H5R  311   2.359   5.499   9.982  0.4604 -0.6076 -0.4612
    3SAPS   C26  312   2.206   5.497   9.832 -0.3822 -0.3899 -0.0461
    3SAPS   H6R  313   2.267   5.538   9.750 -0.0920 -1.7280 -0.5159
    3SAPS   C27  314   2.064   5.468   9.788  0.4545 -0.3983  0.6991
    3SAPS   H7R  315   1.990   5.469   9.871  1.1306  0.3603  1.3173
    3SAPS   H7S  316   2.054   5.369   9.739 -1.5480 -1.9822  3.9630
    3SAPS   C28  317   2.014   5.579   9.699 -0.6886 -0.0206  0.4325
    3SAPS   H8R  318   1.965   5.662   9.751  1.4395  1.5889  0.0030
    3SAPS   C29  319   1.998   5.569   9.567  0.4708  1.0613  0.1111
    3SAPS   H9R  320   1.957   5.658   9.516  0.4241  1.1984  0.3874
    3SAPS  C210  321   2.026   5.454   9.469  0.5848  1.0484 -0.1767
    3SAPS  H10R  322   1.940   5.442   9.399 -0.8791  2.9441  1.1758
    3SAPS  H10S  323   2.036   5.353   9.516 -0.2097  0.8989 -0.3121
    3SAPS  C211  324   2.154   5.473   9.405 -0.4989 -0.1134 -0.5187
    3SAPS  H11R  325   2.241   5.487   9.470  0.9372  0.2299 -2.4534
    3SAPS  C212  326   2.181   5.485   9.270  0.4072  0.2684 -0.2717
    3SAPS  H12R  327   2.284   5.520   9.252  0.4289  0.0265 -0.6289
    3SAPS  C213  328   2.094   5.486   9.147  0.3601 -0.3239 -0.3907
    3SAPS  H13R  329   2.122   5.573   9.083 -0.1042  3.4036  3.9585
    3SAPS  H13S  330   1.989   5.503   9.176  1.3344  3.8152  1.4851
    3SAPS  C214  331   2.108   5.365   9.060 -0.2149  0.3876  0.3443
    3SAPS  H14R  332   2.146   5.276   9.113  2.6751  1.7784  0.8377
    3SAPS  C215  333   2.084   5.368   8.921  0.8876 -0.1273 -0.1885
    3SAPS  H15R  334   2.089   5.273   8.867 -0.8279 -0.1340 -0.3755
    3SAPS  C216  335   2.045   5.474   8.818  0.4846  0.0923 -0.5873
    3SAPS  H16R  336   2.070   5.577   8.853 -1.0275  0.3341 -0.1901
    3SAPS  H16S  337   1.937   5.464   8.798  0.9826 -2.2584 -2.5556
    3SAPS  C217  338   2.127   5.474   8.689  0.7751 -0.2686  0.6578
    3SAPS  H17R  339   2.065   5.543   8.628  1.7365  1.6337  1.7496
    3SAPS  H17S  340   2.107   5.378   8.638 -0.7046 -0.7333  2.0514
    3SAPS  C218  341   2.276   5.507   8.696  0.2778  0.9227  0.0560
    3SAPS  H18R  342   2.307   5.427   8.767 -1.4939 -0.7645 -0.9892
    3SAPS  H18S  343   2.306   5.607   8.733  1.0150  1.1071 -0.9754
    3SAPS  C219  344   2.357   5.494   8.568 -0.0871 -0.1844 -0.3547
    3SAPS  H19R  345   2.323   5.577   8.503 -1.4209 -0.6378 -0.2573
    3SAPS  H19S  346   2.329   5.400   8.516  0.4078  0.1728 -1.3072
    3SAPS  C220  347   2.509   5.503   8.590 -1.0094  0.4598 -0.3558
    3SAPS  H20R  348   2.525   5.556   8.687 -0.1546 -1.6376  0.7246
    3SAPS  H20S  349   2.568   5.560   8.516  1.0836 -0.9383  0.1399
    3SAPS  H20T  350   2.562   5.406   8.603  1.5005  1.5719 -1.6162
    3SAPS   C33  351   2.128   5.936  10.006  0.4655  0.7204  0.4637
    3SAPS   H3X  352   2.108   6.029  10.062  2.0699  0.6890  1.1328
    3SAPS   H3Y  353   2.067   5.937   9.913  1.2178  0.5335 -0.0377
    3SAPS   C34  354   2.270   5.929   9.951  0.0141 -0.4006  0.0719
    3SAPS   H4X  355   2.289   5.846   9.881  1.5004 -0.6774  0.7587
    3SAPS   H4Y  356   2.333   5.917  10.042 -0.6213 -0.2720  0.5448
    3SAPS   C35  357   2.301   6.053   9.870  0.4406  0.5500  0.2719
    3SAPS   H5X  358   2.292   6.145   9.931 -1.2197  0.8942 -0.4266
    3SAPS   H5Y  359   2.234   6.059   9.781  0.9553  1.6573 -0.0626
    3SAPS   C36  360   2.452   6.043   9.824 -0.2513 -0.1703 -0.0716
    3SAPS   H6X  361   2.488   5.940   9.801 -0.3267 -0.5201  1.3092
    3SAPS   H6Y  362   2.516   6.064   9.912  0.8105 -2.2547 -0.2797
    3SAPS   C37  363   2.472   6.146   9.712  0.0842  0.3926 -0.1092
    3SAPS   H7X  364   2.453   6.245   9.757  1.3563 -0.3495  2.2235
    3SAPS   H7Y  365   2.397   6.121   9.634  0.4724 -0.0786 -0.3413
    3SAPS   C38  366   2.614   6.147   9.652  0.4487  0.0448  0.1536
    3SAPS   H8X  367   2.640   6.056   9.594  0.0391 -0.3317  0.5545
    3SAPS   H8Y  368   2.677   6.156   9.743  0.4403 -0.2994  0.1952
    3SAPS   C39  369   2.644   6.266   9.553  0.7736 -0.7117  0.9084
    3SAPS   H9X  370   2.623   6.358   9.612 -1.1097 -0.9194  0.6006
    3SAPS   H9Y  371   2.569   6.262   9.472  1.1735  0.0744  0.4907
    3SAPS  C310  372   2.791   6.278   9.497 -0.1060  0.6041  0.0579
    3SAPS  H10X  373   2.820   6.185   9.444  0.1100  0.6187  0.1537
    3SAPS  H10Y  374   2.858   6.300   9.583  1.3061 -0.2430 -0.7921
    3SAPS  C311  375   2.817   6.384   9.385  0.2797 -0.6830  0.0975
    3SAPS  H11X  376   2.835   6.484   9.431 -0.7393 -0.2844 -0.3486
    3SAPS  H11Y  377   2.717   6.400   9.339 -0.0334 -0.3643  0.8760
    3SAPS  C312  378   2.903   6.344   9.264 -0.0572  0.3408  0.0425
    3SAPS  H12X  379   2.849   6.266   9.206 -1.3286  0.5711  0.8830
    3SAPS  H12Y  380   3.005   6.301   9.278  0.4173 -0.0173 -3.5913
    3SAPS  C313  381   2.921   6.448   9.153  0.6305  0.3647  0.4838
    3SAPS  H13X  382   2.823   6.480   9.111  0.0729 -3.1918 -1.2746
    3SAPS  H13Y  383   2.984   6.418   9.067  1.3811  0.7955  0.8693
    3SAPS  C314  384   3.007   6.565   9.209  0.0448 -0.3058 -0.1868
    3SAPS  H14X  385   3.102   6.516   9.238 -0.0884 -1.0215 -0.9310
    3SAPS  H14Y  386   2.959   6.604   9.301 -0.9509 -3.9793  1.0057
    3SAPS  C315  387   3.035   6.684   9.107  0.3112 -0.4975  0.0738
    3SAPS  H15X  388   2.940   6.708   9.056  1.1488 -1.7217 -2.1855
    3SAPS  H15Y  389   3.108   6.639   9.036  1.8916 -0.9657  1.8982
    3SAPS  C316  390   3.103   6.804   9.166  0.1586 -0.4771  0.0560
    3SAPS  H16X  391   3.197   6.770   9.212  1.0695  1.3217 -0.3884
    3SAPS  H16Y  392   3.032   6.858   9.233 -1.5887 -0.1216 -1.9491
    3SAPS  C317  393   3.135   6.914   9.069  0.2950  0.5740  0.2001
    3SAPS  H17X  394   3.210   6.877   8.996 -0.6935  0.3360 -0.7256
    3SAPS  H17Y  395   3.188   6.989   9.131 -0.1568 -0.8172  2.3721
    3SAPS  C318  396   3.017   6.991   9.002  0.1558 -0.0224 -0.4774
    3SAPS  H18X  397   2.943   6.921   8.958 -0.7526  0.3850  0.3368
    3SAPS  H18Y  398   3.058   7.064   8.929  0.8868  0.2158  0.1570
    3SAPS  H18Z  399   2.965   7.036   9.089  0.6742 -1.0742  0.3837
    4SAPS     N  400   5.570   2.430  10.587 -0.4623  0.2179 -0.2334
    4SAPS   HN1  401   5.511   2.459  10.507 -0.3496  0.3863 -0.2563
    4SAPS   HN2  402   5.642   2.504  10.593 -1.9311  1.7481 -0.6845
    4SAPS   HN3  403   5.618   2.339  10.573 -0.5409  0.5032 -2.6580
    4SAPS   C12  404   5.508   2.430  10.724  0.1364 -0.2435 -0.3311
    4SAPS  H12A  405   5.588   2.418  10.795  0.6908  1.6243 -0.5938
    4SAPS   C13  406   5.452   2.569  10.752  0.6321  0.2122 -0.0026
    4SAPS  O13A  407   5.433   2.655  10.662 -0.2965  0.2335 -0.0360
    4SAPS  O13B  408   5.406   2.581  10.872 -0.1285 -0.3086 -0.0597
    4SAPS   C11  409   5.402   2.325  10.743  0.0997 -0.2343  0.2966
    4SAPS  H11A  410   5.345   2.358  10.832  0.1016  1.3153 -0.2374
    4SAPS  H11B  411   5.457   2.229  10.753  0.3905  0.0557  1.6459
    4SAPS     P  412   5.180   2.241  10.628  0.3405 -0.0546 -0.3513
    4SAPS   O13  413   5.176   2.160  10.746 -0.1540  0.0689 -0.4385
    4SAPS   O14  414   5.072   2.339  10.600  0.7248  0.4712  0.0794
    4SAPS   O12  415   5.314   2.339  10.629 -0.4143  0.4520 -0.1368
    4SAPS   O11  416   5.209   2.141  10.505  0.3836 -0.2385  0.6911
    4SAPS    C1  417   5.345   2.108  10.466 -0.2770  0.9603  1.0881
    4SAPS    HA  418   5.425   2.153  10.528 -0.0225  0.2915  1.2456
    4SAPS    HB  419   5.354   1.998  10.479 -1.2110  1.0776  3.2763
    4SAPS    C2  420   5.366   2.140  10.315  0.0928 -0.1059  0.1959
    4SAPS    HS  421   5.476   2.155  10.307  0.5178 -3.2842 -1.4469
    4SAPS   O21  422   5.297   2.254  10.271 -0.0506  0.1563 -0.4449
    4SAPS   C21  423   5.348   2.372  10.288  0.5238 -0.4062  0.6352
    4SAPS   O22  424   5.438   2.408  10.359  0.1350  0.4089  0.4408
    4SAPS   C22  425   5.285   2.469  10.190  0.4233 -0.1304 -0.4380
    4SAPS   H2R  426   5.189   2.437  10.144 -0.1897  1.4910 -0.3451
    4SAPS   H2S  427   5.251   2.562  10.241 -2.2241 -0.7764 -0.8787
    4SAPS    C3  428   5.305   2.016  10.232 -0.5451 -0.1424 -0.3323
    4SAPS    HX  429   5.198   2.011  10.260 -0.2560  2.2511  1.5878
    4SAPS    HY  430   5.359   1.923  10.262 -0.1420  0.1972  0.0149
    4SAPS   O31  431   5.319   2.030  10.090 -0.3712 -0.1457 -0.0498
    4SAPS   C31  432   5.441   2.051  10.046 -0.0027 -0.0967  0.9841
    4SAPS   O32  433   5.541   2.032  10.110 -0.2156 -0.4543  0.0715
    4SAPS   C32  434   5.431   2.104   9.899  0.0305  0.7353  0.1049
    4SAPS   H2X  435   5.441   2.214   9.907  1.3730  0.6425 -0.0098
    4SAPS   H2Y  436   5.338   2.071   9.848  0.8407  0.4711 -1.2643
    4SAPS   C23  437   5.383   2.498  10.077 -0.2059  0.3935  0.1384
    4SAPS   H3R  438   5.405   2.397  10.037  0.8323 -0.4147  2.5459
    4SAPS   H3S  439   5.480   2.533  10.120  0.0282 -0.8669  0.6726
    4SAPS   C24  440   5.335   2.601   9.977  0.4067  0.3763 -0.1378
    4SAPS   H4R  441   5.252   2.562   9.914 -0.2978 -0.3385  1.1861
    4SAPS   H4S  442   5.420   2.627   9.911 -0.0199  0.8617 -0.5107
    4SAPS   C25  443   5.290   2.730  10.039  0.1227 -0.2836 -0.0286
    4SAPS   H5R  444   5.362   2.773  10.110  0.4168 -1.3126  0.3070
    4SAPS   C26  445   5.179   2.802  10.014  0.1015 -0.1517  0.5129
    4SAPS   H6R  446   5.167   2.895  10.072 -1.9475  0.8318 -1.2968
    4SAPS   C27  447   5.068   2.763   9.908 -0.2136  0.1120 -0.4993
    4SAPS   H7R  448   5.038   2.656   9.906  0.9014 -0.2222 -0.0403
    4SAPS   H7S  449   5.122   2.778   9.813 -0.2191 -1.8602 -0.8469
    4SAPS   C28  450   4.948   2.846   9.923 -0.2340 -0.6349 -0.3308
    4SAPS   H8R  451   4.906   2.846  10.025 -0.1345  0.8888 -0.2685
    4SAPS   C29  452   4.877   2.919   9.833 -0.3060  0.5427  0.0642
    4SAPS   H9R  453   4.789   2.980   9.860 -0.9934 -0.4465  0.0990
    4SAPS  C210  454   4.915   2.934   9.683  0.2577  0.0019 -0.2445
    4SAPS  H10R  455   5.025   2.923   9.677  0.2375  0.7745 -3.7755
    4SAPS  H10S  456   4.897   3.037   9.645 -0.4238 -0.9264 -2.5640
    4SAPS  C211  457   4.861   2.829   9.595 -0.0899 -0.2586  0.1218
    4SAPS  H11R  458   4.831   2.737   9.646  3.2738 -0.7478  1.5023
    4SAPS  C212  459   4.844   2.830   9.462 -0.4320 -0.0538 -0.1976
    4SAPS  H12R  460   4.801   2.742   9.412  1.4984 -0.7604 -0.7145
    4SAPS  C213  461   4.877   2.947   9.372 -0.3668  0.5790 -0.0618
    4SAPS  H13R  462   4.973   2.933   9.318 -1.1406 -0.5687 -1.2112
    4SAPS  H13S  463   4.894   3.046   9.420 -3.3199  1.0243  0.2445
    4SAPS  C214  464   4.768   2.978   9.267 -0.7688 -0.3832 -0.3766
    4SAPS  H14R  465   4.700   3.059   9.296 -0.1382 -0.5167  1.6087
    4SAPS  C215  466   4.767   2.929   9.145 -0.4240 -0.7162  0.3943
    4SAPS  H15R  467   4.677   2.932   9.082 -0.7288 -3.4711  0.5688
    4SAPS  C216  468   4.871   2.830   9.095 -1.0126  0.0606  0.4170
    4SAPS  H16R  469   4.928   2.779   9.176 -0.2338  1.5402  0.8423
    4SAPS  H16S  470   4.960   2.889   9.066 -1.8147  1.4788  0.7609
    4SAPS  C217  471   4.809   2.729   8.994 -0.4956 -0.6763  0.4884
    4SAPS  H17R  472   4.706   2.701   9.025 -0.0809 -2.1846  0.5720
    4SAPS  H17S  473   4.879   2.643   8.992  0.6693  0.2345  0.5867
    4SAPS  C218  474   4.807   2.791   8.849  0.2284  0.5120 -0.0592
    4SAPS  H18R  475   4.913   2.801   8.818  0.2244 -1.1237 -0.7346
    4SAPS  H18S  476   4.765   2.893   8.862 -1.3965 -0.3317  1.9084
    4SAPS  C219  477   4.720   2.707   8.745 -1.2417 -0.3919  0.2756
    4SAPS  H19R  478   4.753   2.602   8.756  0.0128 -0.2132 -1.4755
    4SAPS  H19S  479   4.759   2.743   8.648  0.5309 -0.0563  1.0697
    4SAPS  C220  480   4.570   2.737   8.745 -0.0978 -0.3176 -0.4098
    4SAPS  H20R  481   4.527   2.685   8.657 -0.0589  2.5101 -2.2229
    4SAPS  H20S  482   4.544   2.843   8.728 -2.2526 -0.9745 -1.5430
    4SAPS  H20T  483   4.515   2.707   8.837 -2.1494 -1.5945 -1.9806
    4SAPS   C33  484   5.552   2.062   9.809 -0.0467  0.0784  0.4027
    4SAPS   H3X  485   5.552   1.952   9.799 -2.4021  0.1008 -0.3593
    4SAPS   H3Y  486   5.642   2.084   9.872  0.1364 -2.7728  1.2932
    4SAPS   C34  487   5.555   2.144   9.668 -0.6591  0.5199 -0.1042
    4SAPS   H4X  488   5.554   2.253   9.686 -1.4879  1.1299 -3.2410
    4SAPS   H4Y  489   5.460   2.112   9.619 -1.2408  1.3647  0.4285
    4SAPS   C35  490   5.677   2.121   9.577 -0.0949 -0.9651 -0.2897
    4SAPS   H5X  491   5.696   2.012   9.574  0.2631 -0.9474  0.8666
    4SAPS   H5Y  492   5.767   2.173   9.616 -0.2345  0.0047 -1.1975
    4SAPS   C36  493   5.650   2.176   9.437  0.0655  0.1191  0.1145
    4SAPS   H6X  494   5.586   2.107   9.378 -0.5877  1.2941 -0.6025
    4SAPS   H6Y  495   5.742   2.175   9.374  1.3329 -0.5401  1.9119
    4SAPS   C37  496   5.600   2.319   9.440  0.2205  0.4133 -0.1355
    4SAPS   H7X  497   5.647   2.371   9.527  1.5021  0.0193 -0.5766
    4SAPS   H7Y  498   5.493   2.322   9.469  0.1459 -1.4021 -0.1589
    4SAPS   C38  499   5.616   2.404   9.320 -0.2114  0.1665 -0.0927
    4SAPS   H8X  500   5.540   2.485   9.318  0.8323  1.1757  0.2143
    4SAPS   H8Y  501   5.595   2.343   9.229 -0.4081 -0.9873  0.7103
    4SAPS   C39  502   5.756   2.467   9.303  0.6469  0.1876 -0.4020
    4SAPS   H9X  503   5.835   2.397   9.268  0.3376 -0.9141  1.0361
    4SAPS   H9Y  504   5.787   2.525   9.393 -0.8284 -0.0439  0.2769
    4SAPS  C310  505   5.740   2.570   9.194 -0.3077 -0.4219 -0.4684
    4SAPS  H10X  506   5.672   2.648   9.235 -0.6344 -1.4570  1.0590
    4SAPS  H10Y  507   5.685   2.523   9.109 -2.2439  0.1879  0.3901
    4SAPS  C311  508   5.868   2.637   9.143 -0.1345 -0.9065 -0.3388
    4SAPS  H11X  509   5.952   2.564   9.139  0.7585  0.1484 -3.1043
    4SAPS  H11Y  510   5.886   2.724   9.211  1.4814  0.0121 -1.8527
    4SAPS  C312  511   5.856   2.710   9.012 -0.0195 -0.5668  0.3617
    4SAPS  H12X  512   5.777   2.788   9.009 -0.0847 -0.5760  1.4580
    4SAPS  H12Y  513   5.832   2.635   8.933  0.9735 -0.5610  0.0405
    4SAPS  C313  514   5.980   2.785   8.977 -0.2609 -0.2192 -0.9237
    4SAPS  H13X  515   6.043   2.709   8.926  0.6801 -0.0304 -0.0715
    4SAPS  H13Y  516   6.034   2.809   9.071 -2.9017  3.2861 -0.1004
    4SAPS  C314  517   5.959   2.925   8.906 -0.3553 -0.4989  0.0862
    4SAPS  H14X  518   5.906   2.986   8.983  0.4483 -1.2071  1.2459
    4SAPS  H14Y  519   5.886   2.898   8.827  0.0405  0.6006 -0.6846
    4SAPS  C315  520   6.090   2.993   8.863 -0.5809 -0.2054  0.1338
    4SAPS  H15X  521   6.169   2.919   8.837  0.2856  0.1075  1.7735
    4SAPS  H15Y  522   6.122   3.052   8.951  0.2122 -0.7807  0.2437
    4SAPS  C316  523   6.072   3.107   8.760  0.4436  0.2413  0.7844
    4SAPS  H16X  524   5.984   3.171   8.784 -1.0798 -1.6566  0.5214
    4SAPS  H16Y  525   6.046   3.056   8.664 -1.0102 -1.3429  1.9607
    4SAPS  C317  526   6.199   3.197   8.737  0.3960  0.4239  0.7244
    4SAPS  H17X  527   6.212   3.252   8.833 -1.1328 -0.6000  1.5631
    4SAPS  H17Y  528   6.162   3.270   8.662 -0.2865  0.1925  0.8260
    4SAPS  C318  529   6.333   3.132   8.698 -1.0882 -0.1775  0.0782
    4SAPS  H18X  530   6.351   3.145   8.589  0.5891 -0.8797  0.2350
    4SAPS  H18Y  531   6.338   3.026   8.731  1.6720  0.3857  1.7918
    4SAPS  H18Z  532   6.421   3.176   8.750 -1.5532  0.8672  0.0035
    5SAPS     N  533   2.255   6.111  11.122  0.0174 -0.2665  0.0178
    5SAPS   HN1  534   2.249   6.100  11.225  2.0347  0.1538  0.2295
    5SAPS   HN2  535   2.302   6.029  11.079  1.3319  0.8560 -0.7733
    5SAPS   HN3  536   2.324   6.188  11.135  0.9021 -0.6526 -2.0391
    5SAPS   C12  537   2.148   6.162  11.040  0.8281  0.5202  0.9225
    5SAPS  H12A  538   2.069   6.089  11.043  2.0915 -1.0729 -1.4537
    5SAPS   C13  539   2.089   6.291  11.102 -0.3979 -0.9189 -0.7456
    5SAPS  O13A  540   2.141   6.336  11.207  0.0022  0.2423  0.1036
    5SAPS  O13B  541   1.986   6.347  11.050 -0.0974 -0.5018 -0.0264
    5SAPS   C11  542   2.196   6.198  10.896  0.2889 -0.5891 -0.1138
    5SAPS  H11A  543   2.266   6.283  10.885  1.8436 -2.0464 -2.2669
    5SAPS  H11B  544   2.108   6.230  10.836  2.4418  1.6348 -2.2464
    5SAPS     P  545   2.197   5.990  10.739  0.3911  0.3834  0.1901
    5SAPS   O13  546   2.302   5.899  10.684 -0.2708  0.2727  0.4178
    5SAPS   O14  547   2.083   5.924  10.810 -0.1188 -0.0877  0.0989
    5SAPS   O12  548   2.267   6.091  10.833  0.7503 -0.0015  0.5235
    5SAPS   O11  549   2.132   6.072  10.619  0.2215  0.3487  0.4166
    5SAPS    C1  550   2.214   6.119  10.513  0.3189 -0.6583 -0.6255
    5SAPS    HA  551   2.278   6.040  10.468  1.2627  0.3963 -1.2017
    5SAPS    HB  552   2.148   6.135  10.425  0.8407 -0.3397 -0.9614
    5SAPS    C2  553   2.293   6.251  10.549 -0.7826  0.0323 -0.1251
    5SAPS    HS  554   2.359   6.234  10.636  2.3113 -0.4120 -2.3958
    5SAPS   O21  555   2.191   6.357  10.565 -0.1689 -0.5866  0.3965
    5SAPS   C21  556   2.234   6.478  10.600  0.3130 -0.5609 -0.0009
    5SAPS   O22  557   2.345   6.513  10.629 -0.3106 -0.0587 -0.1001
    5SAPS   C22  558   2.111   6.572  10.598 -0.6178  0.5804 -0.0598
    5SAPS   H2R  559   2.032   6.524  10.537 -0.4902 -0.9258  0.8963
    5SAPS   H2S  560   2.069   6.580  10.701 -0.8855  2.5077 -0.2924
    5SAPS    C3  561   2.387   6.283  10.431  0.5817  0.3327  0.5728
    5SAPS    HX  562   2.460   6.199  10.429 -0.0467 -0.2169 -1.7689
    5SAPS    HY  563   2.449   6.374  10.443 -0.7109  1.0808  1.8770
    5SAPS   O31  564   2.327   6.265  10.302  0.5087 -0.3093  0.6417
    5SAPS   C31  565   2.244   6.364  10.256  0.4755  0.3448 -0.3455
    5SAPS   O32  566   2.240   6.479  10.291  0.2826  0.2456 -0.0520
    5SAPS   C32  567   2.156   6.310  10.145 -0.1542 -0.1100  0.2256
    5SAPS   H2X  568   2.183   6.202  10.150 -0.4918 -0.2115 -0.1583
    5SAPS   H2Y  569   2.206   6.360  10.060 -2.8553  1.3958 -0.5881
    5SAPS   C23  570   2.146   6.711  10.543 -0.2263 -0.6315  0.0426
    5SAPS   H3R  571   2.223   6.712  10.463  0.5770 -0.3054  0.7944
    5SAPS   H3S  572   2.208   6.760  10.622 -0.2551 -1.9553  0.9198
    5SAPS   C24  573   2.022   6.787  10.526  0.4007 -0.4887 -0.9436
    5SAPS   H4R  574   1.962   6.787  10.619  2.3817 -2.2235  0.4276
    5SAPS   H4S  575   1.959   6.739  10.449 -0.6101 -1.4222  0.4296
    5SAPS   C25  576   2.029   6.934  10.483  0.2424  0.6899  0.1601
    5SAPS   H5R  577   2.030   7.012  10.561 -1.1409 -0.0522  0.9617
    5SAPS   C26  578   2.034   6.980  10.358  0.3244  0.0253  0.2734
    5SAPS   H6R  579   2.034   7.089  10.343  1.4532 -0.2862 -2.7335
    5SAPS   C27  580   2.033   6.897  10.229 -0.2682  0.1597 -0.1163
    5SAPS   H7R  581   1.933   6.857  10.203  0.5393 -1.1433 -1.3766
    5SAPS   H7S  582   2.081   6.798  10.243 -1.4493 -0.6422 -1.4465
    5SAPS   C28  583   2.083   6.966  10.105 -0.2518  0.5493 -0.3387
    5SAPS   H8R  584   2.109   7.071  10.121  2.1206 -0.3931  2.8346
    5SAPS   C29  585   2.088   6.922   9.982 -0.1505  0.1238  0.4176
    5SAPS   H9R  586   2.117   6.989   9.900  1.6201 -0.0432  0.8575
    5SAPS  C210  587   2.056   6.781   9.942 -0.3555  0.0440 -0.1696
    5SAPS  H10R  588   1.951   6.745   9.943 -0.3198 -0.0348  0.9574
    5SAPS  H10S  589   2.100   6.720  10.023 -1.5517 -1.5027 -0.6344
    5SAPS  C211  590   2.125   6.734   9.815 -0.1413 -0.3769  0.4358
    5SAPS  H11R  591   2.218   6.679   9.838  1.1396  2.5052  2.8361
    5SAPS  C212  592   2.084   6.738   9.689 -0.1228  1.0588 -0.1298
    5SAPS  H12R  593   2.154   6.702   9.612 -0.6917  0.3077 -0.2987
    5SAPS  C213  594   1.956   6.804   9.649  0.2121 -0.2758 -0.2692
    5SAPS  H13R  595   1.970   6.913   9.665 -1.6323 -0.0097 -0.1524
    5SAPS  H13S  596   1.875   6.781   9.722 -0.4850 -1.2359 -1.2937
    5SAPS  C214  597   1.909   6.772   9.509  0.1306 -0.2290 -0.1444
    5SAPS  H14R  598   1.831   6.696   9.500  1.0974 -1.1982 -0.5260
    5SAPS  C215  599   1.958   6.817   9.390  0.5626  0.1647 -0.1311
    5SAPS  H15R  600   1.911   6.774   9.300  0.3952  0.0979 -0.0119
    5SAPS  C216  601   2.073   6.909   9.369  0.6624 -0.6721 -0.3678
    5SAPS  H16R  602   2.097   6.962   9.463 -0.3031  0.8719 -0.9555
    5SAPS  H16S  603   2.039   6.992   9.304  0.7102  0.1736  0.6710
    5SAPS  C217  604   2.199   6.840   9.301  0.1728 -0.0978  0.1748
    5SAPS  H17R  605   2.252   6.783   9.380 -1.3318 -0.6754  0.8251
    5SAPS  H17S  606   2.255   6.931   9.275 -0.2328 -0.2189 -1.2255
    5SAPS  C218  607   2.188   6.756   9.173 -0.3272 -0.3648 -0.0387
    5SAPS  H18R  608   2.292   6.721   9.155  0.1515  1.7615 -1.8720
    5SAPS  H18S  609   2.127   6.665   9.186  1.2032 -1.9870 -3.1312
    5SAPS  C219  610   2.148   6.849   9.054 -0.0253  0.4671 -0.2199
    5SAPS  H19R  611   2.215   6.938   9.056 -1.0379  1.2508  0.3438
    5SAPS  H19S  612   2.042   6.878   9.074 -0.4919 -0.7596 -0.8039
    5SAPS  C220  613   2.151   6.789   8.914 -0.5080 -0.2492  0.5850
    5SAPS  H20R  614   2.070   6.851   8.868  0.5229  0.2136 -0.6735
    5SAPS  H20S  615   2.113   6.685   8.923  1.6771 -0.9327  3.1503
    5SAPS  H20T  616   2.250   6.786   8.864  0.6570 -3.3052  2.8183
    5SAPS   C33  617   2.010   6.349  10.136  0.6790 -1.0483  0.1581
    5SAPS   H3X  618   1.984   6.456  10.146  2.0165 -0.7780  0.9223
    5SAPS   H3Y  619   1.954   6.311  10.224 -1.9051  1.7046 -0.1235
    5SAPS   C34  620   1.941   6.285  10.013 -0.1337  0.0329 -0.0124
    5SAPS   H4X  621   1.832   6.305  10.020 -0.0733  0.2546  0.2922
    5SAPS   H4Y  622   1.976   6.179  10.008  0.9907  0.3844  0.2183
    5SAPS   C35  623   1.983   6.340   9.874 -0.2473 -0.1807  0.1394
    5SAPS   H5X  624   2.088   6.311   9.853 -0.7331  0.1441 -3.5613
    5SAPS   H5Y  625   1.972   6.450   9.879 -0.8471 -0.0309 -2.6224
    5SAPS   C36  626   1.903   6.284   9.758 -0.1096 -0.0875  0.2636
    5SAPS   H6X  627   1.798   6.309   9.784 -1.7415 -3.5142 -2.2892
    5SAPS   H6Y  628   1.909   6.173   9.757 -2.8848 -0.3051  0.3364
    5SAPS   C37  629   1.934   6.352   9.629 -0.5414  0.2183  0.1147
    5SAPS   H7X  630   1.936   6.461   9.651  1.6316 -0.3554  3.3680
    5SAPS   H7Y  631   1.859   6.328   9.550  0.2275  2.2916 -1.3350
    5SAPS   C38  632   2.062   6.297   9.572  0.1595 -0.0282 -0.3909
    5SAPS   H8X  633   2.054   6.187   9.570  1.3621 -0.1180 -1.4947
    5SAPS   H8Y  634   2.142   6.315   9.648 -0.0345 -0.4741 -0.0780
    5SAPS   C39  635   2.112   6.364   9.438 -0.5275  0.4074 -0.6106
    5SAPS   H9X  636   2.111   6.472   9.462  0.5543  0.0395  1.3165
    5SAPS   H9Y  637   2.038   6.345   9.356 -1.2865  1.7012 -0.2539
    5SAPS  C310  638   2.250   6.316   9.378 -0.3413  0.1310 -0.4573
    5SAPS  H10X  639   2.243   6.210   9.347  1.1887 -0.4061  0.9113
    5SAPS  H10Y  640   2.321   6.326   9.463 -0.9618 -0.3916  0.1312
    5SAPS  C311  641   2.292   6.405   9.257 -0.3190  0.4403 -0.4506
    5SAPS  H11X  642   2.312   6.506   9.298 -0.1256 -0.0047  0.5725
    5SAPS  H11Y  643   2.204   6.422   9.191  0.1824 -2.1308 -1.9096
    5SAPS  C312  644   2.418   6.360   9.174 -0.0769 -0.3467  0.2651
    5SAPS  H12X  645   2.381   6.274   9.114 -0.8252 -0.0092  0.2301
    5SAPS  H12Y  646   2.505   6.344   9.241 -0.4466 -0.0710  0.8107
    5SAPS  C313  647   2.472   6.453   9.066  0.6108 -0.0191 -0.2445
    5SAPS  H13X  648   2.516   6.546   9.109 -2.1337 -0.1355  3.2606
    5SAPS  H13Y  649   2.385   6.487   9.005 -1.2876 -1.0018  1.8200
    5SAPS  C314  650   2.567   6.388   8.968 -0.0824  0.2069 -0.0791
    5SAPS  H14X  651   2.511   6.316   8.904  1.3316  0.9458 -2.2903
    5SAPS  H14Y  652   2.627   6.324   9.036 -1.7880 -0.5426  0.7595
    5SAPS  C315  653   2.643   6.496   8.895 -0.1448 -0.7373 -1.3450
    5SAPS  H15X  654   2.716   6.456   8.822  0.8047 -1.2934 -0.1200
    5SAPS  H15Y  655   2.691   6.559   8.973 -1.8168 -1.5375  0.4146
    5SAPS  C316  656   2.557   6.598   8.816  0.2907  0.7774  0.2503
    5SAPS  H16X  657   2.501   6.668   8.881 -1.3187 -0.1649 -0.0699
    5SAPS  H16Y  658   2.490   6.532   8.756 -0.1728  0.8534  0.6736
    5SAPS  C317  659   2.634   6.670   8.705 -0.4091  0.5132  0.2940
    5SAPS  H17X  660   2.692   6.600   8.641  0.5127  1.6053 -0.0985
    5SAPS  H17Y  661   2.713   6.735   8.747 -2.5482  1.0819  3.8851
    5SAPS  C318  662   2.539   6.749   8.611  0.0917 -0.2497  0.1862
    5SAPS  H18X  663   2.587   6.760   8.512 -0.7084  1.1112 -0.0876
    5SAPS  H18Y  664   2.520   6.845   8.665  2.4824 -0.5749  1.7503
    5SAPS  H18Z  665   2.448   6.686   8.597  0.6266 -0.8628 -0.5937
    6SAPS     N  666   0.867   0.526  10.862 -0.0710  0.0524  0.8717
    6SAPS   HN1  667   0.966   0.495  10.874 -0.5999 -1.7096  0.9713
    6SAPS   HN2  668   0.862   0.586  10.777 -1.4272 -2.4737 -0.9670
    6SAPS   HN3  669   0.831   0.579  10.944 -1.5759 -2.6466  2.0980
    6SAPS   C12  670   0.796   0.397  10.852  0.4277 -0.5076 -0.4033
    6SAPS  H12A  671   0.819   0.343  10.943  2.6401  1.7913  0.5286
    6SAPS   C13  672   0.646   0.418  10.841  0.5320 -0.2625 -0.8368
    6SAPS  O13A  673   0.600   0.524  10.894  0.0679  0.0277  0.0935
    6SAPS  O13B  674   0.564   0.319  10.826 -0.0776 -0.0169  0.3400
    6SAPS   C11  675   0.857   0.309  10.740  0.0333 -0.3937  0.1694
    6SAPS  H11A  676   0.828   0.364  10.647  3.7168  0.9379 -0.3442
    6SAPS  H11B  677   0.805   0.211  10.737  0.2184 -0.4788 -0.4252
    6SAPS     P  678   1.061   0.189  10.641 -0.1275 -0.0644  0.0021
    6SAPS   O13  679   1.206   0.216  10.642 -0.1834  0.0559 -0.1289
    6SAPS   O14  680   1.010   0.065  10.687 -0.8345 -0.5269 -0.1133
    6SAPS   O12  681   0.997   0.298  10.744  0.0411  0.6280 -0.2675
    6SAPS   O11  682   0.988   0.231  10.507 -0.6624 -0.0948 -0.3775
    6SAPS    C1  683   1.055   0.212  10.375  0.0818  0.8456  0.1819
    6SAPS    HA  684   1.018   0.295  10.311 -0.3333  0.3395 -0.2428
    6SAPS    HB  685   1.165   0.201  10.377  0.0392 -0.9274 -2.5452
    6SAPS    C2  686   1.012   0.073  10.307  0.4635 -0.0131  0.9561
    6SAPS    HS  687   1.063  -0.010  10.361  1.4251 -1.1819 -1.5668
    6SAPS   O21  688   1.039   0.067  10.170 -0.4383  0.4424  0.1303
    6SAPS   C21  689   1.160   0.022  10.135 -0.9020 -0.1183 -0.3504
    6SAPS   O22  690   1.248  -0.028  10.204  0.3312  0.1958  0.0823
    6SAPS   C22  691   1.175   0.050   9.983 -0.3543  0.2281 -0.3475
    6SAPS   H2R  692   1.091   0.121   9.966 -2.5241 -0.9955  3.7220
    6SAPS   H2S  693   1.278   0.089   9.982 -0.0154 -0.5523  0.9289
    6SAPS    C3  694   0.855   0.069  10.331 -0.6917  0.8519 -0.3443
    6SAPS    HX  695   0.806   0.163  10.296  0.5452  1.6793  0.1031
    6SAPS    HY  696   0.825   0.082  10.437 -0.9655  0.0280 -0.3156
    6SAPS   O31  697   0.789  -0.043  10.268  0.3313  0.0141 -0.1409
    6SAPS   C31  698   0.773  -0.153  10.342  0.4035 -0.8183 -0.4720
    6SAPS   O32  699   0.804  -0.168  10.460 -0.1255  0.3516  0.2810
    6SAPS   C32  700   0.712  -0.263  10.255 -0.1611 -0.5942 -0.6628
    6SAPS   H2X  701   0.605  -0.266  10.284 -0.4590 -2.8315 -1.7605
    6SAPS   H2Y  702   0.756  -0.357  10.295 -1.0876 -1.1290 -0.8625
    6SAPS   C23  703   1.156  -0.078   9.894 -0.5175 -0.4741 -0.1434
    6SAPS   H3R  704   1.230  -0.157   9.920  1.6502  1.9184  1.4725
    6SAPS   H3S  705   1.189  -0.058   9.789 -2.1394  2.1413 -0.2362
    6SAPS   C24  706   1.009  -0.132   9.894 -0.3240  0.4895  0.4225
    6SAPS   H4R  707   0.982  -0.157   9.999 -0.9276  0.0824  0.1729
    6SAPS   H4S  708   1.002  -0.233   9.849 -0.5223  0.5606  0.2928
    6SAPS   C25  709   0.917  -0.035   9.835 -0.4605  0.4433 -0.1355
    6SAPS   H5R  710   0.874   0.045   9.898 -0.4941  0.5823 -0.3340
    6SAPS   C26  711   0.882  -0.037   9.704  0.1385 -0.3880 -0.9992
    6SAPS   H6R  712   0.812   0.042   9.671  0.9201  2.3324  3.0761
    6SAPS   C27  713   0.921  -0.133   9.597  0.1549  0.4999 -0.2065
    6SAPS   H7R  714   0.982  -0.222   9.625  0.0531 -0.1233 -1.8825
    6SAPS   H7S  715   0.976  -0.077   9.519 -0.7224  0.0628 -1.1554
    6SAPS   C28  716   0.805  -0.200   9.531 -0.4464 -0.2829 -0.0905
    6SAPS   H8R  717   0.729  -0.248   9.595 -0.8593 -0.4680 -0.7069
    6SAPS   C29  718   0.789  -0.197   9.397  0.0790 -0.1303 -0.5448
    6SAPS   H9R  719   0.695  -0.243   9.364 -1.0324  0.1444  1.9597
    6SAPS  C210  720   0.877  -0.145   9.288 -0.2871  0.3408  0.7053
    6SAPS  H10R  721   0.892  -0.036   9.301  0.4675  0.5593 -1.5682
    6SAPS  H10S  722   0.814  -0.165   9.198 -0.4374  1.4660  0.5555
    6SAPS  C211  723   1.013  -0.216   9.289 -0.3101  0.6846  0.3256
    6SAPS  H11R  724   1.047  -0.272   9.378 -1.7973  1.4780  1.4510
    6SAPS  C212  725   1.096  -0.199   9.189 -0.7160 -0.7506 -0.7077
    6SAPS  H12R  726   1.191  -0.253   9.204 -1.5128 -1.0974  5.1465
    6SAPS  C213  727   1.074  -0.117   9.061 -0.3902  0.8830  0.4294
    6SAPS  H13R  728   1.103  -0.012   9.083 -0.3386  1.1566 -0.8858
    6SAPS  H13S  729   0.965  -0.111   9.040  0.0474  2.0134 -1.9264
    6SAPS  C214  730   1.137  -0.165   8.930  0.7929  0.0855 -0.5477
    6SAPS  H14R  731   1.222  -0.100   8.904  0.8797  0.9393  1.6835
    6SAPS  C215  732   1.101  -0.265   8.852  0.2729  0.4893  0.9318
    6SAPS  H15R  733   1.165  -0.298   8.769 -0.4220 -0.3943  0.7184
    6SAPS  C216  734   0.985  -0.357   8.872 -0.3990 -0.4312 -0.2634
    6SAPS  H16R  735   0.971  -0.371   8.981 -2.5737  2.4815 -0.0780
    6SAPS  H16S  736   0.998  -0.455   8.821  0.4834 -0.7633  0.5662
    6SAPS  C217  737   0.854  -0.296   8.811 -0.9183  0.3605 -0.3236
    6SAPS  H17R  738   0.878  -0.255   8.710  1.8961 -1.0441 -0.3280
    6SAPS  H17S  739   0.804  -0.215   8.868  1.3999  1.3699  0.3859
    6SAPS  C218  740   0.754  -0.405   8.794  0.0093  0.1056  0.1755
    6SAPS  H18R  741   0.800  -0.485   8.732  1.9070 -0.1286  1.7782
    6SAPS  H18S  742   0.668  -0.367   8.734 -0.7838 -0.9196  0.6085
    6SAPS  C219  743   0.707  -0.469   8.924 -0.3907 -0.6418 -0.1146
    6SAPS  H19R  744   0.694  -0.389   9.000  0.9723  0.7740 -1.3191
    6SAPS  H19S  745   0.794  -0.527   8.960 -0.4330 -0.5809  0.0916
    6SAPS  C220  746   0.590  -0.573   8.907 -0.7840  0.2317 -0.5075
    6SAPS  H20R  747   0.611  -0.629   8.813  2.7526 -2.2332  1.4901
    6SAPS  H20S  748   0.490  -0.526   8.898 -0.8091 -0.1216 -2.5740
    6SAPS  H20T  749   0.589  -0.635   9.000 -2.9034  0.8088 -0.0912
    6SAPS   C33  750   0.722  -0.258  10.103 -0.1004  0.0419 -0.1691
    6SAPS   H3X  751   0.821  -0.304  10.084  0.4325 -0.0222  2.3422
    6SAPS   H3Y  752   0.713  -0.154  10.066 -0.6733  0.8791  2.1547
    6SAPS   C34  753   0.606  -0.343  10.046 -0.5765 -0.3691 -0.2943
    6SAPS   H4X  754   0.507  -0.297  10.067  0.4504  1.4753  0.7813
    6SAPS   H4Y  755   0.631  -0.442  10.090  2.5579  0.6738  0.5531
    6SAPS   C35  756   0.614  -0.372   9.888  0.0081  0.5621 -0.2954
    6SAPS   H5X  757   0.717  -0.410   9.872 -0.0459  0.4874 -0.4691
    6SAPS   H5Y  758   0.596  -0.281   9.826 -0.3649  0.6884  0.0002
    6SAPS   C36  759   0.531  -0.488   9.834 -0.8955  0.3057  0.6678
    6SAPS   H6X  760   0.426  -0.458   9.851 -0.8430  1.3960 -0.7338
    6SAPS   H6Y  761   0.550  -0.571   9.906  1.7786 -0.4681 -0.7798
    6SAPS   C37  762   0.555  -0.538   9.693 -0.2870 -0.2522  0.2709
    6SAPS   H7X  763   0.527  -0.645   9.687 -2.5608  0.1160  2.4467
    6SAPS   H7Y  764   0.665  -0.525   9.686 -0.0912 -1.2862  1.1644
    6SAPS   C38  765   0.473  -0.466   9.588  0.1798 -0.5729 -0.3284
    6SAPS   H8X  766   0.469  -0.358   9.614  0.5242 -0.4772 -0.6560
    6SAPS   H8Y  767   0.368  -0.503   9.589 -0.4181  1.0260  1.5100
    6SAPS   C39  768   0.522  -0.489   9.446 -0.0951 -0.2948  0.0935
    6SAPS   H9X  769   0.613  -0.552   9.457 -0.3154 -0.3401  2.0703
    6SAPS   H9Y  770   0.550  -0.389   9.407  2.2753 -0.6313  0.7826
    6SAPS  C310  771   0.429  -0.562   9.351  1.4175  0.4089 -0.4075
    6SAPS  H10X  772   0.410  -0.670   9.372 -1.9715  1.1358  0.9210
    6SAPS  H10Y  773   0.486  -0.551   9.256  4.7594 -0.9811  1.2906
    6SAPS  C311  774   0.283  -0.489   9.329 -1.1267  0.4066  0.0830
    6SAPS  H11X  775   0.306  -0.390   9.284  2.5572  0.5227  1.8862
    6SAPS  H11Y  776   0.222  -0.486   9.422 -0.9802  0.7467  0.1694
    6SAPS  C312  777   0.202  -0.569   9.223  0.2350  0.5487 -0.6170
    6SAPS  H12X  778   0.099  -0.528   9.219  0.0276 -0.0291 -1.5763
    6SAPS  H12Y  779   0.172  -0.669   9.262 -0.1817 -0.5151 -3.3801
    6SAPS  C313  780   0.255  -0.586   9.084  0.4590 -0.1607 -0.0050
    6SAPS  H13X  781   0.300  -0.687   9.076 -2.7592 -1.8650  1.2484
    6SAPS  H13Y  782   0.339  -0.515   9.067 -0.3606  1.0133  0.6748
    6SAPS  C314  783   0.151  -0.561   8.978 -0.1351 -0.0488  0.2319
    6SAPS  H14X  784   0.106  -0.460   8.991  0.4238  0.0347  1.7573
    6SAPS  H14Y  785   0.069  -0.633   8.997  0.0320  0.0656  1.4914
    6SAPS  C315  786   0.206  -0.578   8.835  0.8146  0.1549  0.1319
    6SAPS  H15X  787   0.251  -0.679   8.821  2.6045  0.7206  1.5481
    6SAPS  H15Y  788   0.277  -0.496   8.813 -1.8355  2.6514  0.3863
    6SAPS  C316  789   0.096  -0.555   8.733  0.0418  0.5162  0.0281
    6SAPS  H16X  790   0.045  -0.463   8.767  1.4235  1.0883  0.6522
    6SAPS  H16Y  791   0.020  -0.635   8.739  0.0998  0.4045 -0.6330
    6SAPS  C317  792   0.152  -0.549   8.588 -0.0585 -0.2617  0.0254
    6SAPS  H17X  793   0.251  -0.500   8.588 -0.3268  0.5858  3.4274
    6SAPS  H17Y  794   0.092  -0.486   8.520  3.3124  1.7443 -1.3122
    6SAPS  C318  795   0.158  -0.691   8.524 -0.4444 -0.1857 -0.0164
    6SAPS  H18X  796   0.155  -0.775   8.597  1.6982  0.7630  1.2637
    6SAPS  H18Y  797   0.251  -0.695   8.464  0.9561  1.1025  1.9457
    6SAPS  H18Z  798   0.074  -0.711   8.454  0.8064 -1.2350 -1.2858
    7SAPS     N  799   3.426   6.026  10.432  0.2906  0.1253  0.1903
    7SAPS   HN1  800   3.402   5.925  10.428  1.5601 -0.1482 -1.8011
    7SAPS   HN2  801   3.383   6.056  10.522 -1.2327 -2.5393  0.4719
    7SAPS   HN3  802   3.387   6.078  10.350  0.7228  0.0391 -0.0749
    7SAPS   C12  803   3.573   6.039  10.449 -0.4195 -0.3615 -0.0544
    7SAPS  H12A  804   3.617   6.054  10.352 -0.7426  0.4419 -0.0788
    7SAPS   C13  805   3.611   6.160  10.538 -0.4100  0.8754  0.0004
    7SAPS  O13A  806   3.524   6.243  10.575  0.6890  0.2015 -0.2965
    7SAPS  O13B  807   3.737   6.181  10.550 -0.3041  0.3247 -0.4879
    7SAPS   C11  808   3.629   5.913  10.517  0.3248 -0.2277  0.1620
    7SAPS  H11A  809   3.583   5.821  10.474 -0.3931 -0.6178  1.7157
    7SAPS  H11B  810   3.592   5.902  10.621 -0.3644 -0.0590 -0.0601
    7SAPS     P  811   3.852   5.818  10.411  0.0100  0.4107 -0.1015
    7SAPS   O13  812   3.996   5.846  10.433  0.4165  0.0246  0.5157
    7SAPS   O14  813   3.808   5.677  10.429 -0.3584  0.2412  0.1562
    7SAPS   O12  814   3.771   5.902  10.517  0.7281  0.3108 -0.0679
    7SAPS   O11  815   3.785   5.877  10.278  0.5025 -0.5281 -0.1239
    7SAPS    C1  816   3.865   5.966  10.194 -0.1546  0.2119 -0.1060
    7SAPS    HA  817   3.929   6.037  10.251  1.0460  0.1670 -1.3419
    7SAPS    HB  818   3.936   5.903  10.136 -0.0477 -0.9906  1.2839
    7SAPS    C2  819   3.774   6.063  10.116 -0.3044 -0.0428  0.3524
    7SAPS    HS  820   3.691   6.096  10.181 -2.2495 -0.5089 -1.7778
    7SAPS   O21  821   3.733   5.985  10.005 -0.4633 -0.4346  0.5608
    7SAPS   C21  822   3.635   5.893  10.030 -0.4296 -0.0804  0.2459
    7SAPS   O22  823   3.568   5.897  10.130 -0.1056 -0.1754 -0.6762
    7SAPS   C22  824   3.647   5.783   9.922  0.1436 -0.0308 -0.7316
    7SAPS   H2R  825   3.745   5.730   9.930 -0.1985 -0.8045 -1.5881
    7SAPS   H2S  826   3.562   5.713   9.932 -0.1022  0.3425 -0.1010
    7SAPS    C3  827   3.838   6.190  10.066 -0.2889 -0.4829  0.3346
    7SAPS    HX  828   3.913   6.155   9.992 -0.3185  1.0454 -0.4447
    7SAPS    HY  829   3.895   6.233  10.150  0.3727 -0.8062  0.0552
    7SAPS   O31  830   3.742   6.280  10.003  0.3943  0.6578  0.4836
    7SAPS   C31  831   3.691   6.362  10.090 -0.7173  0.4905 -0.2479
    7SAPS   O32  832   3.691   6.366  10.209  0.1780  0.3639 -0.5695
    7SAPS   C32  833   3.596   6.444  10.004  0.5844 -0.5141  0.3244
    7SAPS   H2X  834   3.516   6.368   9.987  0.9810 -0.3048 -3.0430
    7SAPS   H2Y  835   3.640   6.457   9.903  0.8549 -1.1994  0.3444
    7SAPS   C23  836   3.634   5.829   9.779  0.1768 -1.1331  0.1091
    7SAPS   H3R  837   3.642   5.737   9.718  1.0846 -0.9857  0.0014
    7SAPS   H3S  838   3.721   5.891   9.748 -0.8833 -0.0064 -0.6943
    7SAPS   C24  839   3.498   5.901   9.759  0.1964  0.5469  0.1156
    7SAPS   H4R  840   3.418   5.844   9.809 -1.5295 -0.1646 -3.1538
    7SAPS   H4S  841   3.470   5.899   9.651 -0.2678  0.0035  0.2418
    7SAPS   C25  842   3.484   6.040   9.808 -0.0066 -0.4948  0.4839
    7SAPS   H5R  843   3.450   6.055   9.911 -0.4927  3.6978 -0.1258
    7SAPS   C26  844   3.500   6.155   9.736 -0.5422  0.7411 -0.8422
    7SAPS   H6R  845   3.483   6.254   9.780 -0.1965  0.6576 -0.5126
    7SAPS   C27  846   3.538   6.150   9.589  0.0130 -0.3195  0.3383
    7SAPS   H7R  847   3.443   6.131   9.533  0.3294  0.0438 -0.3402
    7SAPS   H7S  848   3.607   6.065   9.571 -0.2907 -0.2688 -1.1968
    7SAPS   C28  849   3.598   6.280   9.531  0.6665  0.0894 -0.4668
    7SAPS   H8R  850   3.704   6.296   9.554  0.9496  0.7592 -2.1088
    7SAPS   C29  851   3.560   6.380   9.451  0.3877  0.0746 -0.3975
    7SAPS   H9R  852   3.622   6.470   9.460 -1.3186  1.2392  0.4156
    7SAPS  C210  853   3.419   6.397   9.397 -0.2883  0.3408  0.1520
    7SAPS  H10R  854   3.343   6.335   9.449 -1.5825  1.6641 -0.1142
    7SAPS  H10S  855   3.417   6.364   9.291  0.3830 -1.2976  0.6117
    7SAPS  C211  856   3.370   6.535   9.408  0.0080 -0.1410 -0.5236
    7SAPS  H11R  857   3.432   6.610   9.357  0.1771  0.3993  0.4419
    7SAPS  C212  858   3.261   6.577   9.473  0.6357  0.5098 -0.3868
    7SAPS  H12R  859   3.231   6.683   9.475 -0.4283  0.2081  0.6359
    7SAPS  C213  860   3.155   6.499   9.553  0.2693  0.6897  0.3516
    7SAPS  H13R  861   3.131   6.407   9.495 -0.1064  1.5473 -0.8919
    7SAPS  H13S  862   3.054   6.545   9.551 -0.5185 -0.9008  1.2763
    7SAPS  C214  863   3.202   6.451   9.689  0.0289 -0.2817 -0.2196
    7SAPS  H14R  864   3.297   6.395   9.685  0.7124  0.7961  0.2695
    7SAPS  C215  865   3.129   6.451   9.804 -0.4307  0.3431  0.2759
    7SAPS  H15R  866   3.181   6.423   9.897  1.5688  1.8077 -0.3415
    7SAPS  C216  867   2.987   6.501   9.821  0.2147 -0.4511  0.0574
    7SAPS  H16R  868   2.910   6.460   9.752 -0.4512 -1.9400  1.6301
    7SAPS  H16S  869   2.985   6.610   9.803  0.0561  0.2755  3.6945
    7SAPS  C217  870   2.923   6.478   9.959 -0.6659  0.4964 -0.1271
    7SAPS  H17R  871   2.980   6.518  10.046  0.1355  1.9435 -1.2747
    7SAPS  H17S  872   2.938   6.370   9.979 -1.0120  0.1786 -1.4723
    7SAPS  C218  873   2.774   6.499   9.975  0.3644 -0.5457 -0.3223
    7SAPS  H18R  874   2.725   6.451   9.888 -1.4967 -0.5812  0.7019
    7SAPS  H18S  875   2.737   6.604   9.974  0.3344 -0.5531 -0.0594
    7SAPS  C219  876   2.718   6.418  10.093 -0.4185 -0.0128  0.1968
    7SAPS  H19R  877   2.793   6.447  10.169  0.2010 -1.0146 -0.0122
    7SAPS  H19S  878   2.730   6.309  10.073 -2.5570 -0.0101 -1.4745
    7SAPS  C220  879   2.579   6.451  10.145 -0.7333  0.1467  0.1033
    7SAPS  H20R  880   2.499   6.397  10.089 -0.1401 -1.5101  0.7988
    7SAPS  H20S  881   2.568   6.560  10.159 -0.6460  0.2842 -0.8525
    7SAPS  H20T  882   2.575   6.398  10.242  1.3169 -0.1931  0.0376
    7SAPS   C33  883   3.535   6.563  10.081  0.2149  0.0537 -0.5355
    7SAPS   H3X  884   3.609   6.605  10.153  0.1684  0.2117 -0.5789
    7SAPS   H3Y  885   3.456   6.519  10.145 -0.2852 -0.9550 -1.8009
    7SAPS   C34  886   3.465   6.658   9.987  0.6564 -0.2051 -0.8706
    7SAPS   H4X  887   3.427   6.740  10.052  0.5086  0.1666 -1.4131
    7SAPS   H4Y  888   3.383   6.607   9.932 -0.3683 -1.1629  1.4523
    7SAPS   C35  889   3.564   6.734   9.885 -0.5964  0.7926 -1.0344
    7SAPS   H5X  890   3.624   6.655   9.835  2.6166  0.8997  2.2319
    7SAPS   H5Y  891   3.625   6.802   9.947 -2.1090  2.3156 -1.1469
    7SAPS   C36  892   3.499   6.811   9.770 -0.0680 -0.3866 -1.0320
    7SAPS   H6X  893   3.432   6.889   9.814 -1.1100 -2.0128  0.3998
    7SAPS   H6Y  894   3.436   6.747   9.704 -0.1974  0.5592 -1.8534
    7SAPS   C37  895   3.603   6.861   9.669 -0.2831 -0.0483 -0.7609
    7SAPS   H7X  896   3.629   6.773   9.607  0.4790  0.4626 -1.1989
    7SAPS   H7Y  897   3.694   6.900   9.720 -0.5074 -1.6887  0.9837
    7SAPS   C38  898   3.553   6.969   9.577  0.2199 -0.1041 -0.4415
    7SAPS   H8X  899   3.489   7.037   9.637  1.3092 -0.6288  1.3741
    7SAPS   H8Y  900   3.484   6.925   9.501  0.2243  0.0422 -0.5324
    7SAPS   C39  901   3.649   7.070   9.509 -0.8079 -0.2552 -0.0118
    7SAPS   H9X  902   3.743   7.017   9.482 -0.2544  0.5919  0.2144
    7SAPS   H9Y  903   3.675   7.140   9.591 -0.9168 -0.2708  0.0356
    7SAPS  C310  904   3.592   7.147   9.395 -0.6013  0.1283  0.3368
    7SAPS  H10X  905   3.638   7.247   9.378 -0.6036  0.3350  1.4769
    7SAPS  H10Y  906   3.484   7.168   9.413 -0.0729  1.1150  2.6561
    7SAPS  C311  907   3.611   7.075   9.263 -0.3054  0.3165  0.0779
    7SAPS  H11X  908   3.549   6.983   9.271  0.1061  0.1216  1.2824
    7SAPS  H11Y  909   3.719   7.053   9.248 -0.2242 -0.0569  1.1184
    7SAPS  C312  910   3.566   7.155   9.138  0.4759 -0.5418 -0.0437
    7SAPS  H12X  911   3.635   7.243   9.133  0.1805  0.0759  3.9260
    7SAPS  H12Y  912   3.461   7.188   9.151  0.5610  1.0531 -2.6244
    7SAPS  C313  913   3.558   7.069   9.017 -0.1383  0.2272  0.3031
    7SAPS  H13X  914   3.485   6.987   9.032  0.2270 -0.0686  0.4992
    7SAPS  H13Y  915   3.650   7.011   8.991 -0.3053  1.3138 -3.2787
    7SAPS  C314  916   3.518   7.132   8.880 -0.4588 -0.6341 -0.4718
    7SAPS  H14X  917   3.602   7.186   8.831  0.7304  0.6313  2.7383
    7SAPS  H14Y  918   3.441   7.207   8.907  2.0643  1.9149  0.1055
    7SAPS  C315  919   3.463   7.037   8.776 -0.4824 -0.2528  0.6342
    7SAPS  H15X  920   3.435   7.087   8.681  2.2947  0.4879  0.1399
    7SAPS  H15Y  921   3.364   7.001   8.811 -2.0080  2.2724 -0.7889
    7SAPS  C316  922   3.560   6.929   8.733 -0.4655  0.5395 -0.4089
    7SAPS  H16X  923   3.574   6.852   8.812 -0.0639  1.6281  0.6040
    7SAPS  H16Y  924   3.656   6.976   8.705  0.3956 -1.8114 -1.6537
    7SAPS  C317  925   3.529   6.848   8.610  0.5936 -0.3933 -0.2167
    7SAPS  H17X  926   3.510   6.912   8.522  0.5578 -1.8518 -1.3030
    7SAPS  H17Y  927   3.429   6.806   8.631 -0.2875  2.3138  1.5761
    7SAPS  C318  928   3.616   6.729   8.575 -0.0984 -0.2139  0.3879
    7SAPS  H18X  929   3.622   6.656   8.658 -1.2985 -1.2332 -0.4008
    7SAPS  H18Y  930   3.719   6.760   8.545  0.5682 -0.2232  2.4845
    7SAPS  H18Z  931   3.561   6.669   8.500  0.0573  2.2898 -1.8992
    8SAPS     N  932   1.529   2.015  10.922 -0.7822 -0.2535  0.2806
    8SAPS   HN1  933   1.525   2.091  10.993  0.4809 -0.4224  0.5574
    8SAPS   HN2  934   1.615   1.957  10.932 -0.0717  0.0580 -2.8628
    8SAPS   HN3  935   1.529   2.055  10.826  0.9339 -1.8276 -0.4323
    8SAPS   C12  936   1.408   1.935  10.922 -0.0380  0.4811  0.3655
    8SAPS  H12A  937   1.397   1.902  11.025 -2.0012  2.0829  0.7589
    8SAPS   C13  938   1.279   2.018  10.887  0.9370  0.2411 -0.3890
    8SAPS  O13A  939   1.288   2.144  10.898  0.1859  0.0049 -0.5861
    8SAPS  O13B  940   1.164   1.962  10.918  0.1402 -0.3013  0.3425
    8SAPS   C11  941   1.430   1.813  10.822 -0.6658  0.3427 -0.0551
    8SAPS  H11A  942   1.434   1.843  10.715 -1.3191  0.5566 -0.0268
    8SAPS  H11B  943   1.335   1.757  10.833 -0.4396 -0.0872 -0.2941
    8SAPS     P  944   1.537   1.612  10.948  0.2026  0.1605 -0.1568
    8SAPS   O13  945   1.662   1.585  11.015  0.1693  0.0162  0.6230
    8SAPS   O14  946   1.421   1.616  11.030  0.4699  0.2567  0.6159
    8SAPS   O12  947   1.550   1.743  10.862  0.7361 -0.1465 -0.1789
    8SAPS   O11  948   1.516   1.494  10.840  0.6153 -0.4737 -0.3392
    8SAPS    C1  949   1.571   1.508  10.707  0.2990 -0.5498 -0.3924
    8SAPS    HA  950   1.530   1.596  10.653  2.5924  1.4554  0.9290
    8SAPS    HB  951   1.681   1.522  10.716 -0.0517  2.2470  0.5824
    8SAPS    C2  952   1.553   1.381  10.618  0.4431 -0.4203  0.6493
    8SAPS    HS  953   1.618   1.390  10.528 -1.6971  0.1912 -0.8919
    8SAPS   O21  954   1.417   1.359  10.582 -0.3492 -0.3157 -0.1661
    8SAPS   C21  955   1.365   1.425  10.482  0.2578  0.0923  0.6196
    8SAPS   O22  956   1.415   1.522  10.420 -0.5148  0.5012 -0.7485
    8SAPS   C22  957   1.228   1.369  10.459  0.4340 -0.2998 -0.4373
    8SAPS   H2R  958   1.203   1.286  10.529 -2.1592 -0.7300 -1.7379
    8SAPS   H2S  959   1.149   1.447  10.464  0.5398 -0.1871 -0.5120
    8SAPS    C3  960   1.598   1.248  10.693 -0.2206  0.4524 -0.2980
    8SAPS    HX  961   1.538   1.249  10.786  0.3432  0.4884  0.0737
    8SAPS    HY  962   1.698   1.258  10.740 -0.8656  2.3031  0.8028
    8SAPS   O31  963   1.574   1.134  10.602 -0.1988 -0.5381  0.6349
    8SAPS   C31  964   1.675   1.095  10.525 -0.0018 -0.0622  0.3591
    8SAPS   O32  965   1.789   1.134  10.530 -0.0333  0.7851 -0.0971
    8SAPS   C32  966   1.636   0.992  10.423 -1.0246  0.9025  0.5209
    8SAPS   H2X  967   1.526   0.993  10.406 -0.5774  2.5078 -3.1869
    8SAPS   H2Y  968   1.664   0.895  10.470 -3.5731  1.0174  2.4468
    8SAPS   C23  969   1.213   1.311  10.317  0.0081 -0.4547  0.4020
    8SAPS   H3R  970   1.208   1.393  10.242 -0.2305 -1.5589 -0.8405
    8SAPS   H3S  971   1.115   1.258  10.323  0.4181 -1.0517  2.6486
    8SAPS   C24  972   1.317   1.196  10.289  0.2317 -0.1058 -0.8530
    8SAPS   H4R  973   1.309   1.125  10.374  0.0210 -0.3319 -1.0582
    8SAPS   H4S  974   1.422   1.233  10.293  0.2681 -0.2076 -0.8618
    8SAPS   C25  975   1.301   1.117  10.162 -0.1086  0.6784  0.1109
    8SAPS   H5R  976   1.238   1.029  10.181  0.6396 -0.1959 -1.3011
    8SAPS   C26  977   1.355   1.152  10.042  0.4903  0.4241 -0.8879
    8SAPS   H6R  978   1.337   1.086   9.956 -0.5479 -0.5426  0.0455
    8SAPS   C27  979   1.431   1.277  10.005  0.7043  0.3581 -1.1110
    8SAPS   H7R  980   1.473   1.256   9.905  2.1393 -1.6723 -0.1555
    8SAPS   H7S  981   1.521   1.290  10.069 -0.2049 -0.2360  0.3586
    8SAPS   C28  982   1.355   1.409  10.007  0.6157  0.1985 -0.5020
    8SAPS   H8R  983   1.397   1.480  10.080  0.3331 -0.4304  0.2832
    8SAPS   C29  984   1.241   1.440   9.937  0.1664 -0.1645 -0.1332
    8SAPS   H9R  985   1.208   1.545   9.943  1.1862  0.1125  1.1094
    8SAPS  C210  986   1.157   1.350   9.859  0.2607  0.5458 -0.0829
    8SAPS  H10R  987   1.221   1.272   9.812 -0.0871  0.1196  0.1408
    8SAPS  H10S  988   1.114   1.411   9.776  1.3849  1.3221 -0.1088
    8SAPS  C211  989   1.041   1.276   9.934  0.8578 -0.5549  0.1310
    8SAPS  H11R  990   1.055   1.271  10.043 -1.8975  2.2949  0.7589
    8SAPS  C212  991   0.924   1.241   9.885 -0.0158  0.0328  0.2142
    8SAPS  H12R  992   0.845   1.189   9.942 -1.7531  1.0996 -1.1121
    8SAPS  C213  993   0.877   1.256   9.738 -0.1641 -0.0748 -0.1059
    8SAPS  H13R  994   0.786   1.193   9.728 -0.0851 -0.3191  0.6430
    8SAPS  H13S  995   0.956   1.220   9.668  0.1583 -0.2276  0.3341
    8SAPS  C214  996   0.850   1.393   9.690 -0.4830 -0.7778 -0.7562
    8SAPS  H14R  997   0.860   1.470   9.768  2.4254 -0.3166 -1.4867
    8SAPS  C215  998   0.825   1.437   9.564  0.0585  0.3792  0.2522
    8SAPS  H15R  999   0.814   1.546   9.549  1.1698  0.3074 -1.3067
    8SAPS  C216 1000   0.821   1.349   9.446 -0.3818 -0.5334 -0.4860
    8SAPS  H16R 1001   0.726   1.387   9.403 -0.4088 -0.0397 -0.0003
    8SAPS  H16S 1002   0.824   1.241   9.471  0.6893 -0.7095 -1.2928
    8SAPS  C217 1003   0.940   1.370   9.352  0.1003 -0.3339 -0.3687
    8SAPS  H17R 1004   0.960   1.478   9.336  0.3042 -0.2028  0.6702
    8SAPS  H17S 1005   0.925   1.320   9.254 -3.2063 -2.6530  1.1323
    8SAPS  C218 1006   1.082   1.325   9.400 -0.1567 -0.4918  0.3502
    8SAPS  H18R 1007   1.099   1.216   9.394  0.0071 -0.4323 -0.3254
    8SAPS  H18S 1008   1.094   1.350   9.508 -0.0757 -0.5719  0.3588
    8SAPS  C219 1009   1.189   1.400   9.315  1.0577 -0.1781 -0.4677
    8SAPS  H19R 1010   1.174   1.502   9.355 -2.1213  0.2643 -2.4380
    8SAPS  H19S 1011   1.160   1.392   9.209  1.2004  0.3529 -0.5481
    8SAPS  C220 1012   1.331   1.350   9.333  0.8127  0.0766 -0.1117
    8SAPS  H20R 1013   1.393   1.410   9.264 -1.1951 -0.2308 -2.2969
    8SAPS  H20S 1014   1.336   1.243   9.305  0.0851  0.1258 -0.4519
    8SAPS  H20T 1015   1.350   1.360   9.442 -1.0786 -2.5696  0.5561
    8SAPS   C33 1016   1.696   1.014  10.277  0.2870 -0.2146  0.0823
    8SAPS   H3X 1017   1.807   1.003  10.280  0.8879  2.3253 -4.1403
    8SAPS   H3Y 1018   1.661   1.112  10.237 -1.0547  0.1783  2.0464
    8SAPS   C34 1019   1.648   0.907  10.168 -0.1114 -0.8853  0.6280
    8SAPS   H4X 1020   1.537   0.908  10.165 -0.1003  0.5088 -0.0986
    8SAPS   H4Y 1021   1.685   0.806  10.195 -2.0619 -1.4937  1.2205
    8SAPS   C35 1022   1.692   0.944  10.026  0.1934  0.4052 -0.3775
    8SAPS   H5X 1023   1.801   0.963  10.018  0.1618  0.1861 -1.6371
    8SAPS   H5Y 1024   1.649   1.042   9.992  1.1946  0.5852 -1.1653
    8SAPS   C36 1025   1.657   0.829   9.929 -0.6265  0.5222 -0.0219
    8SAPS   H6X 1026   1.548   0.820   9.908 -1.1796  0.9133  2.3443
    8SAPS   H6Y 1027   1.697   0.734   9.973  1.2785  0.8916 -0.8584
    8SAPS   C37 1028   1.736   0.835   9.795  0.7759  0.1923 -0.1595
    8SAPS   H7X 1029   1.839   0.796   9.812  0.4410 -0.5998  0.0693
    8SAPS   H7Y 1030   1.735   0.941   9.762 -0.1145  0.7290  1.5325
    8SAPS   C38 1031   1.657   0.748   9.690 -0.5843 -0.7630  0.1801
    8SAPS   H8X 1032   1.557   0.790   9.667  0.0393  0.8657  0.3458
    8SAPS   H8Y 1033   1.651   0.643   9.726  2.7660 -2.6215 -3.8267
    8SAPS   C39 1034   1.740   0.746   9.556 -0.0515  0.9577 -0.5452
    8SAPS   H9X 1035   1.844   0.707   9.568 -0.6557  0.0161  3.1084
    8SAPS   H9Y 1036   1.753   0.855   9.537 -0.4102  1.3747  1.3908
    8SAPS  C310 1037   1.669   0.680   9.436 -0.6905 -0.2931 -0.5008
    8SAPS  H10X 1038   1.564   0.714   9.431 -0.9053 -0.8793 -0.1542
    8SAPS  H10Y 1039   1.659   0.573   9.464 -0.2907  0.2419  1.8954
    8SAPS  C311 1040   1.729   0.713   9.301 -0.4906  0.1935  0.2153
    8SAPS  H11X 1041   1.840   0.712   9.301 -0.3503  0.5319 -3.3630
    8SAPS  H11Y 1042   1.703   0.818   9.276 -0.5609 -0.2988 -1.9786
    8SAPS  C312 1043   1.666   0.617   9.201 -0.2505 -0.4935  0.4704
    8SAPS  H12X 1044   1.558   0.640   9.217  0.2425  0.7366  2.4004
    8SAPS  H12Y 1045   1.676   0.511   9.233  2.4411  0.1971  2.2644
    8SAPS  C313 1046   1.702   0.642   9.057 -0.3858  0.1394 -0.6468
    8SAPS  H13X 1047   1.702   0.748   9.025 -3.7896  0.2389 -0.7554
    8SAPS  H13Y 1048   1.632   0.588   8.989  0.2637 -0.6826 -0.6759
    8SAPS  C314 1049   1.849   0.595   9.017 -0.2865  0.3074 -0.1027
    8SAPS  H14X 1050   1.870   0.498   9.067 -0.7193  0.3043  0.0793
    8SAPS  H14Y 1051   1.923   0.667   9.059 -2.0849  1.6882  0.8346
    8SAPS  C315 1052   1.873   0.593   8.867 -0.0540 -0.5475  0.5742
    8SAPS  H15X 1053   1.917   0.689   8.832 -1.0852  0.3619  1.6917
    8SAPS  H15Y 1054   1.779   0.585   8.809  1.0496  1.0073 -1.5771
    8SAPS  C316 1055   1.963   0.476   8.814 -0.2125 -0.5851 -0.4771
    8SAPS  H16X 1056   1.985   0.478   8.705  2.6953  3.5246 -0.0415
    8SAPS  H16Y 1057   1.913   0.386   8.856 -0.3408 -0.3408 -0.1051
    8SAPS  C317 1058   2.100   0.474   8.889  0.4453  0.5389 -0.1287
    8SAPS  H17X 1059   2.081   0.475   8.999 -2.0376 -0.7824 -0.4556
    8SAPS  H17Y 1060   2.156   0.561   8.850  0.6737 -0.3060 -1.7391
    8SAPS  C318 1061   2.187   0.354   8.858 -0.3214  0.3784  0.8654
    8SAPS  H18X 1062   2.127   0.261   8.871  1.1922 -0.4487  2.3184
    8SAPS  H18Y 1063   2.274   0.350   8.927  1.3422 -0.7015 -1.1864
    8SAPS  H18Z 1064   2.235   0.357   8.758  1.0166 -0.9804  1.4275
    9SAPS     N 1065   2.810   2.998   6.134 -0.4021 -0.0258 -0.3306
    9SAPS   HN1 1066   2.853   3.071   6.194 -0.1704 -0.9931  0.7119
    9SAPS   HN2 1067   2.891   2.949   6.089  0.9355 -1.0975  2.9128
    9SAPS   HN3 1068   2.746   3.042   6.066 -0.9921 -0.0791  0.1813
    9SAPS   C12 1069   2.722   2.896   6.199  0.4300 -0.0449  0.7337
    9SAPS  H12A 1070   2.653   2.945   6.266 -0.0131 -2.2405  1.9830
    9SAPS   C13 1071   2.639   2.812   6.104  0.9192  0.1563  0.4065
    9SAPS  O13A 1072   2.671   2.820   5.983  0.9895 -0.2747  0.5838
    9SAPS  O13B 1073   2.564   2.721   6.144 -0.6048  0.0852 -0.1596
    9SAPS   C11 1074   2.818   2.812   6.293  0.2680 -0.1582  0.2293
    9SAPS  H11A 1075   2.746   2.741   6.340  0.6435  0.8770  2.5156
    9SAPS  H11B 1076   2.863   2.881   6.368  0.3967  1.2919 -1.1371
    9SAPS     P 1077   3.019   2.646   6.296  0.0572 -0.6221 -0.1886
    9SAPS   O13 1078   2.932   2.542   6.356  0.1735 -0.6791  0.2267
    9SAPS   O14 1079   3.134   2.609   6.205 -0.0349 -0.4047 -0.0330
    9SAPS   O12 1080   2.921   2.747   6.224 -0.9001 -0.0822  0.1157
    9SAPS   O11 1081   3.071   2.730   6.416 -0.1012  0.1748  0.3277
    9SAPS    C1 1082   3.160   2.841   6.388  0.4928  0.3107  0.5835
    9SAPS    HA 1083   3.257   2.807   6.346 -0.6644 -0.0495 -1.9557
    9SAPS    HB 1084   3.118   2.917   6.319 -0.8835 -0.4851  0.5101
    9SAPS    C2 1085   3.190   2.925   6.521  0.4046 -0.0554  0.1189
    9SAPS    HS 1086   3.250   3.011   6.483 -0.9086 -0.7989 -4.2712
    9SAPS   O21 1087   3.272   2.839   6.611  0.0034 -0.0900  0.4835
    9SAPS   C21 1088   3.397   2.829   6.585 -0.7564  0.0882  0.5449
    9SAPS   O22 1089   3.461   2.876   6.491 -0.2447 -0.3619 -0.4832
    9SAPS   C22 1090   3.456   2.730   6.688 -0.1716 -0.2528  0.9619
    9SAPS   H2R 1091   3.380   2.652   6.708  0.1745 -1.4348 -1.7793
    9SAPS   H2S 1092   3.541   2.679   6.636 -0.0695 -0.6784  1.5421
    9SAPS    C3 1093   3.060   2.959   6.604  0.4049 -0.7482  0.0016
    9SAPS    HX 1094   3.014   2.859   6.619  2.1916 -1.5258  0.4866
    9SAPS    HY 1095   2.986   3.011   6.539  0.0220 -0.9123  0.3040
    9SAPS   O31 1096   3.085   3.030   6.728 -0.0019  0.0435  0.1197
    9SAPS   C31 1097   3.010   3.000   6.833  0.1873 -0.1270  0.0533
    9SAPS   O32 1098   2.922   2.918   6.831  0.2113 -0.4728 -0.2051
    9SAPS   C32 1099   3.060   3.074   6.959 -0.1911  0.2179 -0.1963
    9SAPS   H2X 1100   3.025   3.179   6.946 -0.3878  0.3345  1.0883
    9SAPS   H2Y 1101   3.170   3.072   6.941 -0.1196 -0.1859  0.2675
    9SAPS   C23 1102   3.507   2.812   6.810 -0.5923 -0.1783  0.1504
    9SAPS   H3R 1103   3.573   2.896   6.777 -0.8458 -1.2900 -3.7110
    9SAPS   H3S 1104   3.567   2.735   6.863 -1.1228  0.1383  1.2434
    9SAPS   C24 1105   3.396   2.866   6.908 -0.1148 -0.8656  0.2279
    9SAPS   H4R 1106   3.334   2.942   6.857 -0.7700 -0.9598  0.8691
    9SAPS   H4S 1107   3.454   2.914   6.990  1.5938 -1.3192 -0.6754
    9SAPS   C25 1108   3.290   2.772   6.958 -0.3160  0.1684 -0.1754
    9SAPS   H5R 1109   3.246   2.725   6.868  0.4391 -0.5018 -0.1952
    9SAPS   C26 1110   3.251   2.744   7.086  0.4374  0.1227  0.4405
    9SAPS   H6R 1111   3.182   2.659   7.100  0.2695  0.2773  0.5467
    9SAPS   C27 1112   3.306   2.792   7.211 -0.1134 -0.0253 -0.0753
    9SAPS   H7R 1113   3.220   2.845   7.257 -0.2636  1.6064 -2.0791
    9SAPS   H7S 1114   3.391   2.863   7.199  2.1479 -2.5036  0.2664
    9SAPS   C28 1115   3.367   2.684   7.292  0.6381  0.0241 -0.4242
    9SAPS   H8R 1116   3.391   2.585   7.251  0.7995 -0.9919  1.9634
    9SAPS   C29 1117   3.395   2.688   7.427  0.1554  0.2270 -0.2658
    9SAPS   H9R 1118   3.427   2.592   7.471  0.1880 -0.0645 -0.9245
    9SAPS  C210 1119   3.384   2.807   7.516  0.1253 -0.2103 -0.4001
    9SAPS  H10R 1120   3.286   2.791   7.566  0.7519 -1.9087  0.3910
    9SAPS  H10S 1121   3.388   2.901   7.457 -0.4240  0.3008  0.3571
    9SAPS  C211 1122   3.490   2.826   7.619  0.1181  0.0075  0.1413
    9SAPS  H11R 1123   3.589   2.783   7.600 -1.7341 -4.2111 -1.0382
    9SAPS  C212 1124   3.470   2.873   7.748  0.3861  0.0785  0.9112
    9SAPS  H12R 1125   3.558   2.878   7.813 -0.0707  0.7963  1.4845
    9SAPS  C213 1126   3.339   2.918   7.808 -0.1871  0.1318 -0.6179
    9SAPS  H13R 1127   3.281   2.828   7.838  1.8492 -0.9927  0.0989
    9SAPS  H13S 1128   3.272   2.951   7.725 -0.4031 -0.7314 -0.8001
    9SAPS  C214 1129   3.354   3.016   7.918 -0.0209 -0.6434 -0.5239
    9SAPS  H14R 1130   3.416   3.105   7.901 -2.7265  1.5995  0.6609
    9SAPS  C215 1131   3.296   3.001   8.040 -0.0680  0.6547 -0.2119
    9SAPS  H15R 1132   3.317   3.075   8.119 -0.7105  0.0851  0.5020
    9SAPS  C216 1133   3.209   2.884   8.088  0.8319 -1.2714 -0.2091
    9SAPS  H16R 1134   3.233   2.786   8.043 -0.1333 -1.9497  0.7234
    9SAPS  H16S 1135   3.101   2.902   8.069  0.9300  0.4636  0.5986
    9SAPS  C217 1136   3.223   2.874   8.244 -0.0103  0.4108 -0.1204
    9SAPS  H17R 1137   3.175   2.963   8.290 -0.6934  0.0409 -0.1053
    9SAPS  H17S 1138   3.325   2.877   8.289 -0.5612  1.5268  1.1325
    9SAPS  C218 1139   3.148   2.740   8.298 -0.1095 -0.0216 -0.6890
    9SAPS  H18R 1140   3.188   2.649   8.247 -0.8737 -2.4431  2.7055
    9SAPS  H18S 1141   3.043   2.746   8.263  0.3309  1.1721 -1.8932
    9SAPS  C219 1142   3.178   2.724   8.445 -0.1768 -0.0885  0.3686
    9SAPS  H19R 1143   3.133   2.808   8.502 -2.2872 -0.3708 -0.7491
    9SAPS  H19S 1144   3.287   2.722   8.462 -0.0107  1.6427 -0.2233
    9SAPS  C220 1145   3.121   2.587   8.500 -1.0131 -0.5927  0.6932
    9SAPS  H20R 1146   3.011   2.584   8.482 -1.5536  3.0497  2.4776
    9SAPS  H20S 1147   3.146   2.584   8.609  3.0938 -0.5624 -0.0889
    9SAPS  H20T 1148   3.180   2.507   8.451 -0.7731  0.6851 -1.2115
    9SAPS   C33 1149   3.008   3.017   7.097  0.5906  0.1176  0.2383
    9SAPS   H3X 1150   3.068   3.067   7.176  0.5729  1.3310 -0.5042
    9SAPS   H3Y 1151   3.034   2.909   7.099  3.2009  0.6729  1.2830
    9SAPS   C34 1152   2.860   3.047   7.114  0.1405  0.5342  0.4413
    9SAPS   H4X 1153   2.798   3.003   7.033  0.2849  1.1193  0.0046
    9SAPS   H4Y 1154   2.842   3.155   7.092  1.9441  0.4233 -1.9985
    9SAPS   C35 1155   2.797   3.008   7.253 -0.1122 -0.1116 -0.7116
    9SAPS   H5X 1156   2.841   3.075   7.330  0.7987 -1.8629  0.3665
    9SAPS   H5Y 1157   2.845   2.909   7.264  2.1050  0.9692  0.0445
    9SAPS   C36 1158   2.651   2.996   7.260  1.1724  0.0888  0.4634
    9SAPS   H6X 1159   2.624   2.947   7.164 -4.0417 -0.6785  2.0058
    9SAPS   H6Y 1160   2.588   3.085   7.240  1.1284 -0.4150 -1.9851
    9SAPS   C37 1161   2.594   2.903   7.363  0.3733  0.2376 -0.2411
    9SAPS   H7X 1162   2.640   2.802   7.374 -0.5412  0.0142  2.1711
    9SAPS   H7Y 1163   2.494   2.872   7.328  0.7462 -1.3163 -0.0070
    9SAPS   C38 1164   2.586   2.966   7.503 -0.7115  0.0857 -0.2831
    9SAPS   H8X 1165   2.544   3.068   7.503  0.6325  0.6716  0.7978
    9SAPS   H8Y 1166   2.689   2.976   7.544 -1.2086  0.2492  0.9508
    9SAPS   C39 1167   2.506   2.880   7.603  0.4088  0.2419 -0.4223
    9SAPS   H9X 1168   2.556   2.784   7.628 -0.1639  0.0904  0.1765
    9SAPS   H9Y 1169   2.413   2.860   7.545  0.0209 -0.8875  0.5351
    9SAPS  C310 1170   2.462   2.965   7.725  0.5634  0.2336 -0.4317
    9SAPS  H10X 1171   2.366   2.920   7.757  1.2763 -1.0619 -0.0585
    9SAPS  H10Y 1172   2.437   3.072   7.711 -2.5698 -0.4303 -0.6041
    9SAPS  C311 1173   2.560   2.956   7.843  1.0128 -0.1013 -0.6196
    9SAPS  H11X 1174   2.663   2.984   7.809  0.9625  0.8336 -0.0567
    9SAPS  H11Y 1175   2.568   2.851   7.878  2.5291 -0.1663 -1.0611
    9SAPS  C312 1176   2.517   3.053   7.962  0.3830 -0.1118 -0.2808
    9SAPS  H12X 1177   2.420   3.018   8.003 -0.0611  0.5969 -0.7101
    9SAPS  H12Y 1178   2.475   3.146   7.919 -0.6376  0.0722  1.0410
    9SAPS  C313 1179   2.610   3.070   8.080  0.0922  0.3036 -0.4579
    9SAPS  H13X 1180   2.607   3.173   8.122  0.9134  0.8984 -1.7882
    9SAPS  H13Y 1181   2.717   3.053   8.057 -0.0033 -0.5009 -0.3314
    9SAPS  C314 1182   2.593   2.957   8.192  0.6627 -0.3995 -0.5042
    9SAPS  H14X 1183   2.590   2.866   8.129  0.6765  0.0685 -1.1896
    9SAPS  H14Y 1184   2.491   2.970   8.236 -0.2532 -0.5448 -2.4956
    9SAPS  C315 1185   2.693   2.967   8.310 -0.0309  0.2080 -0.1650
    9SAPS  H15X 1186   2.683   3.064   8.363  2.3278  0.5386 -0.2210
    9SAPS  H15Y 1187   2.798   2.968   8.274 -0.0678  3.9288 -0.5516
    9SAPS  C316 1188   2.685   2.854   8.416  0.5141 -0.5135  0.2798
    9SAPS  H16X 1189   2.595   2.882   8.475  1.2264 -0.5106  1.3879
    9SAPS  H16Y 1190   2.767   2.860   8.491  1.3364 -0.1360 -0.6312
    9SAPS  C317 1191   2.677   2.712   8.357  0.6796  0.7609 -0.1585
    9SAPS  H17X 1192   2.759   2.710   8.283 -1.3333  0.8427 -2.5116
    9SAPS  H17Y 1193   2.582   2.686   8.307 -0.0522  2.4876  0.2407
    9SAPS  C318 1194   2.691   2.608   8.468  0.5832  0.5220  0.2168
    9SAPS  H18X 1195   2.681   2.512   8.413  0.6045  0.4306  0.3719
    9SAPS  H18Y 1196   2.611   2.617   8.545 -0.4298 -2.6861 -0.3452
    9SAPS  H18Z 1197   2.790   2.623   8.517  0.8920 -2.5725  0.7311
   10SAPS     N 1198   4.858   2.487   6.160  0.3139  0.2694 -0.4350
   10SAPS   HN1 1199   4.834   2.412   6.093  0.2647  0.5978 -0.7900
   10SAPS   HN2 1200   4.851   2.444   6.254  0.9502 -1.1652 -1.0083
   10SAPS   HN3 1201   4.784   2.560   6.150 -0.0301  0.2125  1.4442
   10SAPS   C12 1202   4.995   2.543   6.131 -0.3517 -0.6064  0.1006
   10SAPS  H12A 1203   5.052   2.457   6.099 -2.0542 -1.9265  0.4304
   10SAPS   C13 1204   5.019   2.648   6.019  0.2044 -0.6726 -0.1345
   10SAPS  O13A 1205   5.139   2.672   5.987  0.1320 -0.3524 -0.5630
   10SAPS  O13B 1206   4.926   2.688   5.945 -0.3055  0.1632 -0.1454
   10SAPS   C11 1207   5.043   2.605   6.265  0.0181  0.9211  0.7277
   10SAPS  H11A 1208   4.982   2.693   6.295  0.0816  0.5878  1.8694
   10SAPS  H11B 1209   5.142   2.654   6.249 -0.8521  1.9424 -2.0807
   10SAPS     P 1210   5.167   2.416   6.399  0.3496 -0.1181 -0.0500
   10SAPS   O13 1211   5.125   2.276   6.433 -0.3041 -0.0429 -0.3461
   10SAPS   O14 1212   5.262   2.433   6.286  0.2713 -0.0810 -0.4303
   10SAPS   O12 1213   5.040   2.510   6.373 -0.5409  0.3172 -0.0385
   10SAPS   O11 1214   5.244   2.481   6.523 -0.1799 -0.5988  0.5734
   10SAPS    C1 1215   5.384   2.456   6.556  0.6960 -0.1382 -0.6470
   10SAPS    HA 1216   5.446   2.419   6.471  0.6277 -1.9106  0.0366
   10SAPS    HB 1217   5.429   2.547   6.600  0.3657  0.1564 -0.9192
   10SAPS    C2 1218   5.397   2.356   6.675 -0.5941  0.7010 -0.0177
   10SAPS    HS 1219   5.308   2.291   6.674  0.7761 -1.2693 -1.3499
   10SAPS   O21 1220   5.409   2.436   6.796  0.6829 -0.1765  0.3100
   10SAPS   C21 1221   5.312   2.421   6.879  0.7105  0.0406  0.3603
   10SAPS   O22 1222   5.220   2.335   6.862  0.4646 -0.0273  0.0664
   10SAPS   C22 1223   5.327   2.518   6.986  0.1034 -0.1916  0.0601
   10SAPS   H2R 1224   5.280   2.616   6.964  1.0550  0.9099  2.5885
   10SAPS   H2S 1225   5.276   2.483   7.079 -0.4571 -3.9917 -1.4792
   10SAPS    C3 1226   5.522   2.266   6.653  0.3939 -0.0390 -0.2901
   10SAPS    HX 1227   5.612   2.327   6.633 -0.1943  0.7576 -0.5260
   10SAPS    HY 1228   5.500   2.216   6.556 -2.4170 -1.3348  0.8720
   10SAPS   O31 1229   5.530   2.167   6.761 -0.5804 -0.1526 -0.3719
   10SAPS   C31 1230   5.610   2.202   6.856  0.3540 -0.2522  0.2379
   10SAPS   O32 1231   5.671   2.306   6.865 -0.1105 -0.2907  0.1891
   10SAPS   C32 1232   5.622   2.089   6.961  0.0831 -0.0427 -1.2389
   10SAPS   H2X 1233   5.715   2.031   6.941  0.4248  0.4570 -1.1258
   10SAPS   H2Y 1234   5.543   2.016   6.935 -1.0208  1.0164 -0.9246
   10SAPS   C23 1235   5.468   2.534   7.049 -0.0011  0.2354  0.4638
   10SAPS   H3R 1236   5.544   2.565   6.974 -1.0114  1.2153 -0.1705
   10SAPS   H3S 1237   5.490   2.428   7.077 -1.8388 -0.4983 -0.7190
   10SAPS   C24 1238   5.461   2.619   7.182 -0.4341  0.5791 -0.1737
   10SAPS   H4R 1239   5.562   2.612   7.228 -0.4200 -0.6476 -0.3362
   10SAPS   H4S 1240   5.393   2.587   7.264 -0.0714 -0.2513 -0.1828
   10SAPS   C25 1241   5.434   2.764   7.157  0.1638  0.0989  0.2727
   10SAPS   H5R 1242   5.466   2.792   7.056 -0.1491 -0.5594 -0.0134
   10SAPS   C26 1243   5.381   2.854   7.242  0.7893 -0.0023 -0.4772
   10SAPS   H6R 1244   5.372   2.957   7.207 -1.5063 -0.0206 -0.0564
   10SAPS   C27 1245   5.339   2.832   7.386 -0.1985 -0.0697 -0.6764
   10SAPS   H7R 1246   5.384   2.904   7.458 -1.2519 -1.0905  1.0661
   10SAPS   H7S 1247   5.367   2.733   7.428 -2.3253 -0.5748 -0.3668
   10SAPS   C28 1248   5.194   2.859   7.381  0.6513 -0.2654 -0.2078
   10SAPS   H8R 1249   5.167   2.952   7.328 -1.1993 -1.4238 -1.3997
   10SAPS   C29 1250   5.092   2.787   7.433 -0.4994 -0.3192  0.2787
   10SAPS   H9R 1251   4.988   2.812   7.406 -0.3513  0.3136  0.2789
   10SAPS  C210 1252   5.110   2.656   7.513  0.4781 -0.7786 -0.0495
   10SAPS  H10R 1253   5.186   2.589   7.467  0.4567 -0.6477 -0.2761
   10SAPS  H10S 1254   5.016   2.598   7.510 -0.3939  0.5775  0.2102
   10SAPS  C211 1255   5.163   2.681   7.654 -0.3021 -0.0541  0.7715
   10SAPS  H11R 1256   5.268   2.714   7.658 -0.6661  1.3391 -0.3636
   10SAPS  C212 1257   5.094   2.670   7.770 -0.1030  0.1791  0.6543
   10SAPS  H12R 1258   5.150   2.710   7.855  1.3258 -0.9962  0.2948
   10SAPS  C213 1259   4.956   2.605   7.791 -0.3882  0.1269 -0.0362
   10SAPS  H13R 1260   4.984   2.535   7.873  0.8921  0.2252 -0.3623
   10SAPS  H13S 1261   4.941   2.539   7.703  2.3837 -0.1011 -0.4260
   10SAPS  C214 1262   4.830   2.682   7.812 -0.6870 -0.1688  0.4414
   10SAPS  H14R 1263   4.822   2.760   7.735 -0.0399 -1.5786 -1.1228
   10SAPS  C215 1264   4.738   2.654   7.906  0.6970 -0.0680 -0.3268
   10SAPS  H15R 1265   4.640   2.705   7.910  1.9646  2.4918  0.5938
   10SAPS  C216 1266   4.761   2.543   8.004  0.3078  0.3587  0.9451
   10SAPS  H16R 1267   4.838   2.571   8.079 -0.2141 -3.2511  3.0681
   10SAPS  H16S 1268   4.794   2.450   7.952  0.8685  1.5017 -0.8147
   10SAPS  C217 1269   4.630   2.513   8.091 -0.2309  0.0388 -0.1550
   10SAPS  H17R 1270   4.553   2.467   8.026  0.7988 -0.9500 -0.7107
   10SAPS  H17S 1271   4.593   2.614   8.121 -0.7742 -0.0139 -0.6286
   10SAPS  C218 1272   4.650   2.418   8.205 -0.0816  0.5082  1.0811
   10SAPS  H18R 1273   4.698   2.325   8.166 -1.9043 -0.7074  1.6139
   10SAPS  H18S 1274   4.558   2.378   8.253  0.6167 -1.1222  1.1173
   10SAPS  C219 1275   4.708   2.487   8.328  0.6460 -0.5002 -0.0424
   10SAPS  H19R 1276   4.635   2.568   8.352  2.5333  1.0852  0.6222
   10SAPS  H19S 1277   4.802   2.535   8.295  0.5868 -0.7020 -0.5157
   10SAPS  C220 1278   4.720   2.396   8.453  0.4016 -0.1874  0.3568
   10SAPS  H20R 1279   4.759   2.448   8.542 -1.3970  1.4129  0.2512
   10SAPS  H20S 1280   4.780   2.313   8.408  0.0609 -0.1711 -0.1477
   10SAPS  H20T 1281   4.624   2.343   8.474  1.7807 -2.8530  0.4164
   10SAPS   C33 1282   5.620   2.127   7.113  0.2881 -1.7631  0.1900
   10SAPS   H3X 1283   5.522   2.164   7.150  0.4344 -0.7105 -0.4340
   10SAPS   H3Y 1284   5.692   2.212   7.115 -1.8210  0.1758 -1.8431
   10SAPS   C34 1285   5.675   2.023   7.216 -0.6326 -0.2767 -0.2072
   10SAPS   H4X 1286   5.785   2.020   7.205 -0.4574  0.4802  1.1145
   10SAPS   H4Y 1287   5.635   1.921   7.196 -0.5663 -0.2511 -0.4642
   10SAPS   C35 1288   5.656   2.065   7.365 -0.4305  0.4436  0.3282
   10SAPS   H5X 1289   5.553   2.038   7.397 -0.3717 -0.9599 -0.5909
   10SAPS   H5Y 1290   5.667   2.176   7.366 -1.5031  0.5654  0.2140
   10SAPS   C36 1291   5.751   1.995   7.453  0.0724 -0.4125  0.3233
   10SAPS   H6X 1292   5.859   2.007   7.429  0.6399 -2.6449  1.4802
   10SAPS   H6Y 1293   5.729   1.887   7.453 -0.5778 -0.2858 -0.3059
   10SAPS   C37 1294   5.723   2.039   7.595 -0.5801  0.3604 -0.6501
   10SAPS   H7X 1295   5.624   1.998   7.625  0.7382 -2.7818 -0.2701
   10SAPS   H7Y 1296   5.715   2.150   7.596  1.3891  0.5191  0.0607
   10SAPS   C38 1297   5.837   1.997   7.688  0.0226  0.3524 -0.3509
   10SAPS   H8X 1298   5.819   2.040   7.789 -0.4619 -0.3038 -0.1498
   10SAPS   H8Y 1299   5.929   2.039   7.641  1.3308 -0.6606  1.2036
   10SAPS   C39 1300   5.856   1.840   7.695  0.6871 -0.7857 -0.3843
   10SAPS   H9X 1301   5.854   1.790   7.596  2.0817 -0.7741 -0.4435
   10SAPS   H9Y 1302   5.789   1.798   7.773  1.3861 -0.7688  0.2359
   10SAPS  C310 1303   6.001   1.815   7.760  0.5851  0.6003 -0.0488
   10SAPS  H10X 1304   6.072   1.858   7.686 -0.8059  1.2801 -1.0330
   10SAPS  H10Y 1305   6.012   1.705   7.773  0.3541  0.5870  0.0480
   10SAPS  C311 1306   6.018   1.877   7.902  0.0336 -0.1587  0.5091
   10SAPS  H11X 1307   5.990   1.984   7.893 -0.7878 -0.4346 -0.4075
   10SAPS  H11Y 1308   6.127   1.872   7.924 -0.0569  1.4091  1.4594
   10SAPS  C312 1309   5.931   1.812   8.016 -0.9629  0.2918 -0.2701
   10SAPS  H12X 1310   5.821   1.810   7.998 -0.7208 -0.8845 -1.8723
   10SAPS  H12Y 1311   5.968   1.864   8.107 -0.2993  0.9781 -0.9196
   10SAPS  C313 1312   5.977   1.665   8.053  0.4923 -0.1953  0.0013
   10SAPS  H13X 1313   6.083   1.679   8.085  0.3025 -2.1316  1.7032
   10SAPS  H13Y 1314   5.971   1.591   7.970 -0.0793 -0.5373  0.3449
   10SAPS  C314 1315   5.899   1.608   8.171  0.3450  0.1946  0.1479
   10SAPS  H14X 1316   5.789   1.615   8.155 -0.0514 -1.8344  1.6035
   10SAPS  H14Y 1317   5.916   1.670   8.262  1.3218  1.0385 -0.5843
   10SAPS  C315 1318   5.921   1.461   8.195 -0.4957 -0.2078  0.0710
   10SAPS  H15X 1319   6.029   1.435   8.191 -0.1413  0.3106  3.2640
   10SAPS  H15Y 1320   5.864   1.417   8.111 -2.0061  0.1613  0.8634
   10SAPS  C316 1321   5.861   1.395   8.317  0.0457  0.7417 -1.0358
   10SAPS  H16X 1322   5.915   1.424   8.410 -2.4417  0.1461  0.6929
   10SAPS  H16Y 1323   5.870   1.286   8.297 -1.2169  0.5135 -0.4746
   10SAPS  C317 1324   5.712   1.439   8.345  0.1688  0.7201  0.7249
   10SAPS  H17X 1325   5.713   1.550   8.345  4.6824  1.0905 -3.9575
   10SAPS  H17Y 1326   5.688   1.407   8.448 -1.8050  0.7881  0.3293
   10SAPS  C318 1327   5.615   1.382   8.238 -0.6704  0.3433 -0.0094
   10SAPS  H18X 1328   5.513   1.377   8.282 -0.9913  2.2559 -0.4655
   10SAPS  H18Y 1329   5.636   1.277   8.206  1.4874  1.0066 -0.9281
   10SAPS  H18Z 1330   5.606   1.448   8.149  0.7151  1.5662  0.7258
   11SAPS     N 1331   5.161   5.952   5.757  0.0361 -0.3153 -0.2677
   11SAPS   HN1 1332   5.203   5.890   5.830 -0.9789 -0.0942  0.5243
   11SAPS   HN2 1333   5.138   6.047   5.793 -1.5547 -0.2696 -1.3510
   11SAPS   HN3 1334   5.068   5.910   5.739  0.3736 -2.1116  1.7805
   11SAPS   C12 1335   5.236   5.958   5.630 -0.1546  0.1084 -0.8958
   11SAPS  H12A 1336   5.286   5.864   5.607 -0.4518  0.1301 -1.6272
   11SAPS   C13 1337   5.153   5.991   5.514  0.4732  0.0321  0.5621
   11SAPS  O13A 1338   5.024   5.992   5.528  0.0464  0.9544 -0.4493
   11SAPS  O13B 1339   5.201   5.985   5.397 -0.9318  0.1903  0.2652
   11SAPS   C11 1340   5.337   6.079   5.659  0.3314 -0.3348  0.6978
   11SAPS  H11A 1341   5.272   6.169   5.666  0.9328  0.2037 -0.5545
   11SAPS  H11B 1342   5.395   6.108   5.570 -0.2524 -1.5669 -0.1123
   11SAPS     P 1343   5.564   5.983   5.771  0.6809  0.0865 -0.3629
   11SAPS   O13 1344   5.534   5.847   5.817 -0.4342 -0.7807 -0.0728
   11SAPS   O14 1345   5.628   5.997   5.639 -0.6888  0.1133  0.0062
   11SAPS   O12 1346   5.421   6.066   5.774  0.1641  0.3798 -0.1486
   11SAPS   O11 1347   5.640   6.065   5.887  0.2670 -0.1145  0.1974
   11SAPS    C1 1348   5.570   6.144   5.989 -0.0030  0.2230  0.3631
   11SAPS    HA 1349   5.567   6.248   5.952  0.2296 -0.8843 -3.0924
   11SAPS    HB 1350   5.465   6.112   6.008 -0.7328  1.8442 -0.7839
   11SAPS    C2 1351   5.642   6.133   6.139 -0.1011  0.0770  0.0637
   11SAPS    HS 1352   5.748   6.164   6.122  0.5991 -1.3059  1.5950
   11SAPS   O21 1353   5.644   5.999   6.183 -0.0335  0.0013 -0.3163
   11SAPS   C21 1354   5.746   5.926   6.204 -0.5149  0.0092 -0.3323
   11SAPS   O22 1355   5.862   5.946   6.166 -0.1224  0.0495  0.6324
   11SAPS   C22 1356   5.717   5.823   6.304  0.5353 -0.0310 -0.4978
   11SAPS   H2R 1357   5.650   5.746   6.259  0.8751 -3.1161  3.6687
   11SAPS   H2S 1358   5.807   5.763   6.328 -1.4794 -3.3641 -0.6491
   11SAPS    C3 1359   5.577   6.221   6.242  0.2073 -0.1926  0.7289
   11SAPS    HX 1360   5.474   6.184   6.262 -0.5636  0.7763 -1.2032
   11SAPS    HY 1361   5.561   6.317   6.189 -0.7887 -1.3156 -1.1100
   11SAPS   O31 1362   5.644   6.231   6.368  0.2078  0.1027  0.0148
   11SAPS   C31 1363   5.751   6.311   6.362 -0.4915 -0.4544 -0.4384
   11SAPS   O32 1364   5.798   6.359   6.259  0.9295 -0.2851 -0.0857
   11SAPS   C32 1365   5.825   6.322   6.497 -0.4837  0.0910 -0.5009
   11SAPS   H2X 1366   5.818   6.424   6.541 -0.2624 -1.0541  2.4372
   11SAPS   H2Y 1367   5.930   6.293   6.477 -0.0762 -0.2083  1.7844
   11SAPS   C23 1368   5.661   5.868   6.437  0.0131 -0.4422  0.5369
   11SAPS   H3R 1369   5.569   5.927   6.421 -0.2190 -0.1728  2.5829
   11SAPS   H3S 1370   5.737   5.933   6.486 -0.0961  1.0766 -1.1737
   11SAPS   C24 1371   5.621   5.759   6.536  0.1779 -0.0161  0.0222
   11SAPS   H4R 1372   5.720   5.716   6.560  0.5119  1.7097  2.0230
   11SAPS   H4S 1373   5.558   5.684   6.482  2.0975 -1.8523  0.1763
   11SAPS   C25 1374   5.534   5.785   6.659 -1.0570 -0.4753 -1.0038
   11SAPS   H5R 1375   5.442   5.843   6.640 -2.0613 -1.0523  1.6454
   11SAPS   C26 1376   5.572   5.764   6.787 -0.4054 -0.5408  0.5944
   11SAPS   H6R 1377   5.516   5.818   6.865  0.3086  1.7398 -0.3736
   11SAPS   C27 1378   5.711   5.704   6.825  0.0100  0.4211  0.3792
   11SAPS   H7R 1379   5.739   5.628   6.750  0.0460  0.4697  0.3438
   11SAPS   H7S 1380   5.707   5.650   6.922 -1.1939  1.7079  1.0952
   11SAPS   C28 1381   5.825   5.810   6.831 -0.0183 -0.2531  0.8843
   11SAPS   H8R 1382   5.859   5.854   6.736 -1.3248 -1.3930 -0.1473
   11SAPS   C29 1383   5.875   5.851   6.946  0.2149 -0.3836  0.2544
   11SAPS   H9R 1384   5.960   5.920   6.941 -0.1985  0.0478 -2.0073
   11SAPS  C210 1385   5.829   5.811   7.081 -0.1611 -0.2758  0.8888
   11SAPS  H10R 1386   5.719   5.796   7.089 -0.4879  1.7322  0.7617
   11SAPS  H10S 1387   5.844   5.893   7.155 -1.4427  0.0999  0.7730
   11SAPS  C211 1388   5.908   5.693   7.122 -0.4624  0.2551 -0.0561
   11SAPS  H11R 1389   5.957   5.641   7.038 -0.6212 -0.5661  0.3504
   11SAPS  C212 1390   5.920   5.653   7.245 -0.3303 -0.4414 -0.0343
   11SAPS  H12R 1391   5.968   5.554   7.256 -0.9935 -0.9183 -1.2832
   11SAPS  C213 1392   5.860   5.715   7.371  0.3663  0.3019  0.5962
   11SAPS  H13R 1393   5.786   5.639   7.405 -0.6264  0.0961 -1.8353
   11SAPS  H13S 1394   5.808   5.810   7.349  0.9191  0.6534  0.7876
   11SAPS  C214 1395   5.980   5.733   7.458  0.0753 -0.3873 -0.2422
   11SAPS  H14R 1396   6.063   5.786   7.408 -1.4643  0.8675 -1.5819
   11SAPS  C215 1397   6.002   5.691   7.581 -0.0903  0.3529 -0.2996
   11SAPS  H15R 1398   6.085   5.725   7.646  1.7194 -3.6161 -0.2497
   11SAPS  C216 1399   5.904   5.602   7.659  0.2810 -0.1731  0.3801
   11SAPS  H16R 1400   5.803   5.600   7.614  0.4446  0.9861 -0.0742
   11SAPS  H16S 1401   5.887   5.641   7.762 -2.0896 -0.0350 -0.0208
   11SAPS  C217 1402   5.966   5.463   7.667 -0.6703  0.6547 -0.8652
   11SAPS  H17R 1403   6.075   5.474   7.688 -0.3096 -0.6391 -1.9819
   11SAPS  H17S 1404   5.968   5.407   7.571 -1.5379 -3.2805  1.2298
   11SAPS  C218 1405   5.900   5.370   7.769 -1.0423  0.8063  0.2764
   11SAPS  H18R 1406   5.905   5.269   7.722  1.8884  0.6073  0.8401
   11SAPS  H18S 1407   5.798   5.411   7.784 -1.3282 -0.1042  0.9299
   11SAPS  C219 1408   5.978   5.376   7.899  0.0164 -0.5963 -0.5410
   11SAPS  H19R 1409   6.005   5.479   7.930 -3.5298  0.7798 -1.4654
   11SAPS  H19S 1410   6.077   5.331   7.878 -0.1228 -0.4971 -1.4260
   11SAPS  C220 1411   5.924   5.304   8.021  0.7137  0.4090  0.4382
   11SAPS  H20R 1412   5.981   5.336   8.111  1.0756  1.4388 -0.1396
   11SAPS  H20S 1413   5.927   5.194   8.009  1.5089  0.4020  0.6409
   11SAPS  H20T 1414   5.819   5.337   8.038  0.3008 -0.9261  0.5506
   11SAPS   C33 1415   5.759   6.226   6.603  0.4307 -0.3606  0.8112
   11SAPS   H3X 1416   5.738   6.122   6.571 -0.3240  0.4438 -1.4906
   11SAPS   H3Y 1417   5.660   6.272   6.624  1.0372  0.7630  1.3483
   11SAPS   C34 1418   5.839   6.213   6.728  0.6800  0.2560  0.3642
   11SAPS   H4X 1419   5.900   6.305   6.738  0.6140  0.4867 -1.1249
   11SAPS   H4Y 1420   5.918   6.135   6.726  0.3553 -0.1156 -2.6284
   11SAPS   C35 1421   5.754   6.219   6.858 -0.2327  0.1228 -0.0507
   11SAPS   H5X 1422   5.691   6.128   6.850 -0.5991  0.2306  1.3893
   11SAPS   H5Y 1423   5.686   6.307   6.851  1.5041  1.5995  0.6939
   11SAPS   C36 1424   5.840   6.237   6.983 -0.0966 -0.3433  0.0427
   11SAPS   H6X 1425   5.881   6.339   6.976 -2.2395  0.4652 -2.0897
   11SAPS   H6Y 1426   5.917   6.157   6.988  0.1198 -0.1078  0.4830
   11SAPS   C37 1427   5.747   6.234   7.109  0.3245 -0.5454  0.4613
   11SAPS   H7X 1428   5.685   6.144   7.090 -0.6392  0.6311 -2.5493
   11SAPS   H7Y 1429   5.700   6.332   7.134  1.1231  0.2234 -0.8840
   11SAPS   C38 1430   5.820   6.206   7.236  0.1595  0.0476 -0.1615
   11SAPS   H8X 1431   5.913   6.267   7.237  1.4737 -1.8351 -0.8446
   11SAPS   H8Y 1432   5.866   6.105   7.227  0.2393 -0.0576  1.2285
   11SAPS   C39 1433   5.744   6.216   7.372  0.2280 -0.5513  0.4113
   11SAPS   H9X 1434   5.642   6.173   7.361  0.4359 -1.0904  0.5112
   11SAPS   H9Y 1435   5.730   6.321   7.406 -2.1881 -0.7301  0.1174
   11SAPS  C310 1436   5.833   6.154   7.482  0.5435 -0.0094 -0.5325
   11SAPS  H10X 1437   5.924   6.216   7.474 -0.7835  2.2248  0.7591
   11SAPS  H10Y 1438   5.868   6.054   7.447 -1.0798 -1.6455  2.1650
   11SAPS  C311 1439   5.773   6.150   7.620 -0.8162  0.1045 -0.2932
   11SAPS  H11X 1440   5.663   6.159   7.625 -1.2921 -2.9884 -2.4696
   11SAPS  H11Y 1441   5.822   6.223   7.688  0.7020 -1.6774  0.6429
   11SAPS  C312 1442   5.819   6.025   7.699 -0.1007  0.7064  0.0989
   11SAPS  H12X 1443   5.930   6.018   7.702 -0.1856 -0.4346  1.5968
   11SAPS  H12Y 1444   5.769   5.945   7.641 -1.4988  1.7064 -0.1352
   11SAPS  C313 1445   5.775   6.010   7.847  0.5822 -0.2451  0.5591
   11SAPS  H13X 1446   5.667   6.034   7.842  0.1519 -1.9108  1.0393
   11SAPS  H13Y 1447   5.815   6.088   7.915  2.6303 -0.4607 -0.3453
   11SAPS  C314 1448   5.784   5.866   7.895  0.4728 -0.3343 -0.0442
   11SAPS  H14X 1449   5.891   5.839   7.904  0.3873 -0.4019  0.8665
   11SAPS  H14Y 1450   5.746   5.799   7.816 -0.9218 -0.4105  0.6569
   11SAPS  C315 1451   5.720   5.851   8.025 -0.1047 -0.4150  0.0829
   11SAPS  H15X 1452   5.613   5.871   8.003  0.1244 -0.4226 -1.0800
   11SAPS  H15Y 1453   5.759   5.919   8.104  0.8813  1.3461 -1.8471
   11SAPS  C316 1454   5.726   5.706   8.086  0.3942  0.4665  0.1221
   11SAPS  H16X 1455   5.829   5.667   8.073  0.6163  1.5571 -1.7082
   11SAPS  H16Y 1456   5.659   5.640   8.028  0.8057  2.6582 -3.1150
   11SAPS  C317 1457   5.694   5.697   8.236 -0.5083 -0.3281  0.4542
   11SAPS  H17X 1458   5.607   5.762   8.259  0.2424  1.5361 -1.5986
   11SAPS  H17Y 1459   5.779   5.750   8.283  1.0332 -2.9460  0.7934
   11SAPS  C318 1460   5.677   5.566   8.308  0.1583  0.2469  0.7936
   11SAPS  H18X 1461   5.678   5.581   8.418  2.1003  0.4077  0.7920
   11SAPS  H18Y 1462   5.757   5.499   8.267  0.2608  0.7056  0.2431
   11SAPS  H18Z 1463   5.575   5.529   8.285 -0.0498  0.4376  1.4074
   12SAPS     N 1464   4.784   1.212   5.868 -0.0049 -0.4155  0.6414
   12SAPS   HN1 1465   4.711   1.224   5.942 -0.4356  0.4295  0.0971
   12SAPS   HN2 1466   4.874   1.209   5.919 -0.5267 -1.5500  1.5549
   12SAPS   HN3 1467   4.776   1.294   5.805 -2.2417 -1.4100 -0.4981
   12SAPS   C12 1468   4.763   1.085   5.795  0.1650  0.1153  0.0192
   12SAPS  H12A 1469   4.687   1.106   5.722 -0.5883  4.6739  1.7522
   12SAPS   C13 1470   4.886   1.039   5.710 -0.5924  0.4905  0.1473
   12SAPS  O13A 1471   4.982   1.118   5.685  0.5211 -0.1832 -0.0164
   12SAPS  O13B 1472   4.876   0.934   5.646  0.3299 -0.3692 -0.0154
   12SAPS   C11 1473   4.699   0.978   5.903  0.6798 -0.6608  0.4436
   12SAPS  H11A 1474   4.681   0.884   5.846  1.0012 -0.7890  0.5508
   12SAPS  H11B 1475   4.605   1.015   5.948  0.5361  0.0182 -0.3966
   12SAPS     P 1476   4.787   0.825   6.084  0.1909  0.1597 -0.1415
   12SAPS   O13 1477   4.648   0.794   6.099  0.3749  0.2215 -0.2103
   12SAPS   O14 1478   4.873   0.718   6.025 -0.0395  0.7778  0.1026
   12SAPS   O12 1479   4.801   0.961   6.002 -0.4226  0.4106 -0.4021
   12SAPS   O11 1480   4.833   0.855   6.232 -0.1419  0.3366  0.5664
   12SAPS    C1 1481   4.808   0.984   6.286 -0.2103  0.3631  0.0501
   12SAPS    HA 1482   4.888   1.052   6.252  0.5034 -0.6693 -0.3734
   12SAPS    HB 1483   4.714   1.028   6.248 -0.5624 -1.2963 -1.1218
   12SAPS    C2 1484   4.794   0.987   6.442  0.1870  0.3144 -0.2223
   12SAPS    HS 1485   4.771   1.096   6.454 -0.4039  0.4096 -1.9460
   12SAPS   O21 1486   4.916   0.946   6.503 -0.4320 -0.3083  0.3391
   12SAPS   C21 1487   4.939   1.000   6.620  0.3427  0.2635 -0.3208
   12SAPS   O22 1488   4.868   1.083   6.674 -0.0248 -0.4031 -0.3017
   12SAPS   C22 1489   5.078   0.969   6.666  0.5911 -0.0092 -0.3415
   12SAPS   H2R 1490   5.101   0.862   6.645  0.0282 -0.0529 -0.7469
   12SAPS   H2S 1491   5.145   1.025   6.599  0.1720  0.1343 -0.6419
   12SAPS    C3 1492   4.665   0.909   6.494  0.0533 -0.5481  0.1904
   12SAPS    HX 1493   4.692   0.804   6.468 -1.4049 -1.1867  1.0970
   12SAPS    HY 1494   4.586   0.945   6.425  1.8634 -0.3842 -1.9131
   12SAPS   O31 1495   4.647   0.931   6.644 -0.6068 -0.1478 -0.6461
   12SAPS   C31 1496   4.562   1.028   6.669 -0.4776  0.0876  0.7728
   12SAPS   O32 1497   4.495   1.085   6.583  0.1935 -0.3383 -0.7996
   12SAPS   C32 1498   4.555   1.064   6.814 -0.2308  0.5185  0.3802
   12SAPS   H2X 1499   4.597   1.166   6.826  1.7264 -0.1994  0.0260
   12SAPS   H2Y 1500   4.624   0.995   6.868  0.6264  1.2562  0.2593
   12SAPS   C23 1501   5.101   1.010   6.814 -0.0898 -0.4128  0.0245
   12SAPS   H3R 1502   5.045   1.104   6.835 -0.6364 -0.5727 -0.6965
   12SAPS   H3S 1503   5.207   1.039   6.829 -0.5757  1.0784  0.7844
   12SAPS   C24 1504   5.063   0.909   6.925  0.4084 -0.8256  0.4290
   12SAPS   H4R 1505   5.110   0.809   6.914 -0.8395 -1.3246 -0.5868
   12SAPS   H4S 1506   4.955   0.887   6.917  0.2022 -1.4038  3.5239
   12SAPS   C25 1507   5.094   0.956   7.068  1.1480  0.5433 -0.2524
   12SAPS   H5R 1508   5.192   0.998   7.093  1.2958  0.2378 -0.3271
   12SAPS   C26 1509   5.004   0.964   7.168  0.1645  0.6863 -0.6626
   12SAPS   H6R 1510   5.034   1.016   7.260  0.2564 -1.7348  0.7724
   12SAPS   C27 1511   4.859   0.923   7.172 -0.0432 -0.7192 -0.6418
   12SAPS   H7R 1512   4.844   0.854   7.257 -3.2727 -1.4915 -1.7189
   12SAPS   H7S 1513   4.825   0.868   7.081  0.3629 -1.1414 -0.5459
   12SAPS   C28 1514   4.769   1.045   7.184 -0.9905  0.2709  0.1704
   12SAPS   H8R 1515   4.751   1.105   7.094 -1.7966  0.2782  0.3275
   12SAPS   C29 1516   4.676   1.066   7.281  0.2346  0.2203 -0.1082
   12SAPS   H9R 1517   4.614   1.156   7.269  0.3015  0.1808 -0.7983
   12SAPS  C210 1518   4.649   0.992   7.408  0.3355  0.0840  0.4690
   12SAPS  H10R 1519   4.663   0.883   7.391  0.4356  0.3487 -1.2936
   12SAPS  H10S 1520   4.540   0.996   7.429  0.1205 -2.0921  0.0094
   12SAPS  C211 1521   4.736   1.027   7.525  0.1188 -0.0458 -0.3681
   12SAPS  H11R 1522   4.844   1.016   7.508  0.2753 -0.0934  0.5743
   12SAPS  C212 1523   4.690   1.060   7.650 -0.0547  0.6206  0.3063
   12SAPS  H12R 1524   4.767   1.073   7.728  0.7793 -0.3352 -0.3326
   12SAPS  C213 1525   4.545   1.059   7.700  0.3185  0.0914 -0.4544
   12SAPS  H13R 1526   4.495   1.105   7.612  0.1265 -2.2132 -1.6104
   12SAPS  H13S 1527   4.527   1.136   7.779 -1.8255 -0.8368  0.0321
   12SAPS  C214 1528   4.476   0.926   7.723 -0.4480 -1.0881  0.8697
   12SAPS  H14R 1529   4.452   0.876   7.627  2.3115 -0.8937  0.0037
   12SAPS  C215 1530   4.463   0.840   7.827 -0.0117  0.1431  0.2349
   12SAPS  H15R 1531   4.407   0.746   7.812  1.5003 -0.4359 -2.5734
   12SAPS  C216 1532   4.522   0.868   7.964 -0.2724  1.0031 -0.1431
   12SAPS  H16R 1533   4.585   0.960   7.964  0.1596  0.7151  0.8681
   12SAPS  H16S 1534   4.589   0.782   7.984  0.4783  1.2093 -1.6634
   12SAPS  C217 1535   4.419   0.886   8.072 -0.3484  0.1344  0.1755
   12SAPS  H17R 1536   4.357   0.795   8.086 -0.0946 -0.1319 -0.4299
   12SAPS  H17S 1537   4.344   0.960   8.034  1.0371  0.2050 -2.6838
   12SAPS  C218 1538   4.487   0.932   8.199  0.4217  1.2258  0.0847
   12SAPS  H18R 1539   4.416   0.981   8.268  1.6755  1.5150  1.2174
   12SAPS  H18S 1540   4.565   1.006   8.170  1.8388 -0.3116 -0.2019
   12SAPS  C219 1541   4.554   0.806   8.278  0.4839 -0.8443 -0.9392
   12SAPS  H19R 1542   4.592   0.864   8.364 -3.5837 -0.4847  0.8613
   12SAPS  H19S 1543   4.641   0.747   8.241  2.9554  0.6350  2.0616
   12SAPS  C220 1544   4.451   0.705   8.335  0.8589 -0.3282  0.8002
   12SAPS  H20R 1545   4.481   0.664   8.433 -4.1442 -1.0391  2.2949
   12SAPS  H20S 1546   4.437   0.622   8.262  1.4795  0.1841  0.0711
   12SAPS  H20T 1547   4.358   0.764   8.349  0.8052  0.1376 -1.1302
   12SAPS   C33 1548   4.412   1.055   6.875 -0.0482  0.2657 -0.4076
   12SAPS   H3X 1549   4.360   0.963   6.841 -1.8628  0.7604  0.8560
   12SAPS   H3Y 1550   4.349   1.137   6.834 -2.0534 -0.7034  0.6261
   12SAPS   C34 1551   4.413   1.053   7.028  0.3564  0.4840  0.4489
   12SAPS   H4X 1552   4.440   1.157   7.058 -0.8402  0.5788  1.2930
   12SAPS   H4Y 1553   4.495   0.987   7.063 -0.9111 -1.3708  0.0677
   12SAPS   C35 1554   4.279   1.033   7.095  0.0415 -0.0573 -0.3712
   12SAPS   H5X 1555   4.237   0.936   7.061  1.5476 -1.4292  1.4215
   12SAPS   H5Y 1556   4.215   1.119   7.066 -1.2046 -1.2161 -1.2208
   12SAPS   C36 1557   4.296   1.010   7.245  0.6476  0.2129 -0.3517
   12SAPS   H6X 1558   4.353   1.095   7.287  2.5323 -1.5274  0.7984
   12SAPS   H6Y 1559   4.351   0.914   7.253  0.0844  0.0023  1.3017
   12SAPS   C37 1560   4.161   1.002   7.315  0.3810  0.2978 -0.0798
   12SAPS   H7X 1561   4.088   0.928   7.275 -0.2487  1.9049 -2.0602
   12SAPS   H7Y 1562   4.110   1.098   7.293 -0.5039 -0.5338 -1.8813
   12SAPS   C38 1563   4.175   0.963   7.461 -0.7194 -0.2334  1.1799
   12SAPS   H8X 1564   4.243   1.036   7.509  1.5633 -0.8113 -0.9751
   12SAPS   H8Y 1565   4.212   0.860   7.479  2.0410  0.7466  1.6065
   12SAPS   C39 1566   4.045   0.993   7.537 -1.1547  0.3237 -0.0481
   12SAPS   H9X 1567   3.967   0.921   7.503 -2.3156  1.6498 -0.2737
   12SAPS   H9Y 1568   4.016   1.100   7.535  1.4577  1.0757 -0.2741
   12SAPS  C310 1569   4.078   0.957   7.677 -0.2898  0.6811  0.1364
   12SAPS  H10X 1570   4.118   1.051   7.722  2.1798 -0.4022  0.3544
   12SAPS  H10Y 1571   4.160   0.882   7.675  0.3425  1.3589 -0.3891
   12SAPS  C311 1572   3.952   0.897   7.758 -0.1458  0.1642  0.8604
   12SAPS  H11X 1573   3.937   0.798   7.709 -0.3652  0.5700  0.0983
   12SAPS  H11Y 1574   3.862   0.961   7.754 -0.5321 -0.4117 -0.2372
   12SAPS  C312 1575   3.986   0.870   7.909  0.4009 -0.1073  1.3490
   12SAPS  H12X 1576   4.070   0.798   7.920  1.3103  0.7443  0.3252
   12SAPS  H12Y 1577   3.888   0.842   7.952 -1.2269  1.8338 -0.8279
   12SAPS  C313 1578   4.017   0.992   7.995 -0.3191 -0.6021  0.5608
   12SAPS  H13X 1579   3.938   1.069   7.996 -0.1258 -0.3734 -0.4825
   12SAPS  H13Y 1580   4.104   1.039   7.945 -0.2822 -1.1798  0.0609
   12SAPS  C314 1581   4.047   0.950   8.141 -0.3696 -0.1132  0.3143
   12SAPS  H14X 1582   4.118   0.866   8.152  1.0871  0.9335 -0.6992
   12SAPS  H14Y 1583   3.951   0.914   8.185 -1.0663  1.8333  0.4721
   12SAPS  C315 1584   4.094   1.064   8.228 -0.4199 -0.1054 -0.7546
   12SAPS  H15X 1585   4.037   1.159   8.217 -1.0636 -0.2684  0.8988
   12SAPS  H15Y 1586   4.189   1.077   8.172 -0.8609 -2.8049 -2.2906
   12SAPS  C316 1587   4.105   1.032   8.371 -0.5973  0.0103 -0.9098
   12SAPS  H16X 1588   4.174   1.096   8.430 -1.7143  1.4234 -1.0647
   12SAPS  H16Y 1589   4.150   0.931   8.369  0.2713  0.3930 -1.0212
   12SAPS  C317 1590   3.966   1.038   8.435 -0.5865  0.3121 -0.1491
   12SAPS  H17X 1591   3.895   0.970   8.384  2.4176 -1.5998 -2.0406
   12SAPS  H17Y 1592   3.921   1.136   8.408 -1.2766 -0.4514 -1.8779
   12SAPS  C318 1593   3.971   1.021   8.594  0.1615 -0.2613 -0.0965
   12SAPS  H18X 1594   4.033   1.095   8.649 -1.4073 -0.0411  1.4940
   12SAPS  H18Y 1595   4.008   0.921   8.624  0.5421 -0.4156 -1.0403
   12SAPS  H18Z 1596   3.866   1.022   8.631  0.3560 -0.8875  0.4800
   13SAPS     N 1597   4.959   5.365   5.775  0.0137  0.0099 -0.0104
   13SAPS   HN1 1598   4.940   5.325   5.681  0.8118  0.3877 -0.3445
   13SAPS   HN2 1599   5.023   5.292   5.813 -0.0258 -0.8428 -1.4839
   13SAPS   HN3 1600   4.873   5.378   5.831  0.7959  3.1749  0.6440
   13SAPS   C12 1601   5.040   5.492   5.775 -0.3131 -0.5011  0.0093
   13SAPS  H12A 1602   5.118   5.493   5.700 -2.0903  3.1890 -2.0638
   13SAPS   C13 1603   4.951   5.617   5.764 -0.1224 -0.5227  0.3609
   13SAPS  O13A 1604   4.823   5.609   5.743 -0.3354  0.2165  0.0365
   13SAPS  O13B 1605   5.009   5.731   5.760 -0.1949  0.6376 -0.0335
   13SAPS   C11 1606   5.113   5.503   5.917  0.7367 -0.4023 -0.6154
   13SAPS  H11A 1607   5.043   5.509   6.003  2.9247 -2.3146  1.4566
   13SAPS  H11B 1608   5.177   5.594   5.916  0.6447 -0.1327  3.1940
   13SAPS     P 1609   5.323   5.408   6.037  0.2107  0.0718  0.1783
   13SAPS   O13 1610   5.392   5.281   6.055  0.0660 -0.4116  0.4349
   13SAPS   O14 1611   5.405   5.519   5.986 -0.5905  0.2309  0.5270
   13SAPS   O12 1612   5.200   5.389   5.937  0.4814  0.1681  0.2864
   13SAPS   O11 1613   5.263   5.465   6.174  0.2613 -0.0823 -0.2253
   13SAPS    C1 1614   5.165   5.406   6.258 -0.6486 -0.0960  0.6019
   13SAPS    HA 1615   5.065   5.450   6.240 -0.0853  0.8673 -0.2684
   13SAPS    HB 1616   5.169   5.295   6.255  1.4759 -0.0487  0.0656
   13SAPS    C2 1617   5.214   5.439   6.398 -0.2530  0.5015 -0.2738
   13SAPS    HS 1618   5.158   5.374   6.468 -0.5014  2.2150  1.2071
   13SAPS   O21 1619   5.200   5.577   6.439  0.4139  0.4698 -0.0914
   13SAPS   C21 1620   5.076   5.612   6.462  0.2812  0.3652 -0.1262
   13SAPS   O22 1621   4.979   5.545   6.438  0.0427 -0.8757 -0.0190
   13SAPS   C22 1622   5.071   5.753   6.529 -0.4240  0.5042 -0.1157
   13SAPS   H2R 1623   5.072   5.827   6.446 -0.6922  1.0447  0.3551
   13SAPS   H2S 1624   4.970   5.767   6.574 -0.3138 -0.0336  0.3140
   13SAPS    C3 1625   5.360   5.408   6.416 -0.3537 -0.6599 -0.1003
   13SAPS    HX 1626   5.415   5.476   6.348 -1.0555  2.2022  2.0235
   13SAPS    HY 1627   5.376   5.302   6.387 -0.4307 -1.3494  2.1424
   13SAPS   O31 1628   5.418   5.434   6.546 -0.2061 -0.2855 -0.3660
   13SAPS   C31 1629   5.385   5.343   6.641 -0.2354 -0.6084 -0.0041
   13SAPS   O32 1630   5.325   5.236   6.633 -0.2727 -0.1902  0.0164
   13SAPS   C32 1631   5.444   5.392   6.771 -0.2731  0.1022  0.0377
   13SAPS   H2X 1632   5.364   5.441   6.830 -0.0984  1.8179 -1.0940
   13SAPS   H2Y 1633   5.519   5.473   6.771 -0.4260  0.2746  1.6237
   13SAPS   C23 1634   5.160   5.766   6.658  0.7649 -0.3943  0.6524
   13SAPS   H3R 1635   5.159   5.874   6.685 -0.0623 -0.4080  0.6932
   13SAPS   H3S 1636   5.263   5.731   6.634  0.3529 -0.3286 -1.3577
   13SAPS   C24 1637   5.111   5.676   6.766 -0.3266 -0.0597 -0.2892
   13SAPS   H4R 1638   5.107   5.572   6.727 -1.2115  0.1893 -0.9009
   13SAPS   H4S 1639   5.011   5.715   6.794 -0.4396  0.9419 -1.9399
   13SAPS   C25 1640   5.210   5.672   6.882  0.7347 -0.4223  0.1428
   13SAPS   H5R 1641   5.306   5.719   6.856 -0.8266  2.2321 -1.1573
   13SAPS   C26 1642   5.190   5.612   6.993  0.3938 -0.4827  0.6189
   13SAPS   H6R 1643   5.262   5.615   7.076  0.8910 -0.8195  0.2042
   13SAPS   C27 1644   5.064   5.542   7.038  0.2063  0.2330 -0.6683
   13SAPS   H7R 1645   5.091   5.437   7.066 -0.3305 -0.0579 -1.2207
   13SAPS   H7S 1646   4.999   5.527   6.949  0.7711  2.3470 -1.4938
   13SAPS   C28 1647   4.983   5.621   7.138 -0.1174  0.3327  0.5675
   13SAPS   H8R 1648   4.964   5.726   7.112  2.4623  0.9883  1.0176
   13SAPS   C29 1649   4.937   5.579   7.260  1.1152  0.2941 -0.5595
   13SAPS   H9R 1650   4.893   5.653   7.330  1.2029  0.9352 -1.1749
   13SAPS  C210 1651   4.955   5.448   7.324 -0.1381  0.7693  0.4180
   13SAPS  H10R 1652   4.945   5.363   7.253 -4.8146  0.4868  1.1129
   13SAPS  H10S 1653   4.864   5.419   7.382  0.5622 -1.7609  0.3738
   13SAPS  C211 1654   5.093   5.435   7.398  1.1302 -0.0160 -0.8528
   13SAPS  H11R 1655   5.184   5.461   7.341  1.5962 -0.1262 -0.1614
   13SAPS  C212 1656   5.102   5.388   7.526 -0.0063 -0.8306  0.2632
   13SAPS  H12R 1657   5.202   5.371   7.568 -0.1058 -0.0070  0.8600
   13SAPS  C213 1658   4.983   5.359   7.616 -0.3697  0.0957 -0.6497
   13SAPS  H13R 1659   5.009   5.296   7.704 -0.9837  3.0060  1.7992
   13SAPS  H13S 1660   4.913   5.295   7.558 -0.0927 -3.8072  2.8598
   13SAPS  C214 1661   4.908   5.485   7.660  0.0956 -0.0813  0.1937
   13SAPS  H14R 1662   4.888   5.568   7.591 -0.5342 -1.5365 -1.4371
   13SAPS  C215 1663   4.841   5.498   7.775 -0.7787 -0.1684  0.5526
   13SAPS  H15R 1664   4.780   5.589   7.778 -2.5119 -1.2957  0.9416
   13SAPS  C216 1665   4.825   5.393   7.888  0.7121  0.0340  0.1752
   13SAPS  H16R 1666   4.882   5.433   7.975 -1.0847  0.4602  1.2096
   13SAPS  H16S 1667   4.869   5.294   7.865 -1.6013 -1.2765  1.0990
   13SAPS  C217 1668   4.684   5.380   7.924  0.8890 -0.1420 -0.0849
   13SAPS  H17R 1669   4.632   5.345   7.832  1.1984  2.1149 -1.1782
   13SAPS  H17S 1670   4.637   5.475   7.957 -1.1074 -1.2172  0.3348
   13SAPS  C218 1671   4.668   5.287   8.038  0.4286  1.0616  0.0071
   13SAPS  H18R 1672   4.734   5.311   8.124  0.1204 -0.1918  0.6128
   13SAPS  H18S 1673   4.692   5.185   8.001  2.0253  1.3509  0.1670
   13SAPS  C219 1674   4.532   5.287   8.098  0.3571  0.0373 -0.1906
   13SAPS  H19R 1675   4.508   5.382   8.150 -0.3033 -0.2645  0.0654
   13SAPS  H19S 1676   4.535   5.201   8.168  1.1003  1.7092  1.9514
   13SAPS  C220 1677   4.411   5.271   8.004 -0.0319 -0.3036 -0.1366
   13SAPS  H20R 1678   4.432   5.197   7.923  0.8155  0.4842 -0.6554
   13SAPS  H20S 1679   4.393   5.371   7.959 -1.1269 -0.2152  0.4733
   13SAPS  H20T 1680   4.320   5.239   8.060 -1.0832  1.9535 -0.4541
   13SAPS   C33 1681   5.496   5.270   6.852  0.3670  0.3558  0.2488
   13SAPS   H3X 1682   5.590   5.230   6.807  0.6626  1.3405 -0.0409
   13SAPS   H3Y 1683   5.425   5.185   6.843  0.7519  0.2479 -2.8218
   13SAPS   C34 1684   5.515   5.308   6.993 -0.0995  0.5735 -0.8770
   13SAPS   H4X 1685   5.580   5.224   7.029  0.0201  0.1464 -2.0689
   13SAPS   H4Y 1686   5.413   5.313   7.037 -0.9296 -0.1206 -2.6409
   13SAPS   C35 1687   5.597   5.426   7.036  0.5120  0.2549 -0.3305
   13SAPS   H5X 1688   5.549   5.525   7.020 -0.3724  0.0950  1.0820
   13SAPS   H5Y 1689   5.689   5.430   6.974  0.5393  3.2728 -0.2728
   13SAPS   C36 1690   5.638   5.423   7.182  0.3728 -0.1092 -0.2773
   13SAPS   H6X 1691   5.709   5.500   7.218 -4.3377  2.4037  5.2000
   13SAPS   H6Y 1692   5.702   5.332   7.183 -0.6240 -0.8379 -0.8983
   13SAPS   C37 1693   5.524   5.424   7.281  0.5206  0.2642 -0.2258
   13SAPS   H7X 1694   5.455   5.341   7.256  2.3213 -1.2475 -0.3845
   13SAPS   H7Y 1695   5.467   5.516   7.259  0.2461  0.4994  1.3367
   13SAPS   C38 1696   5.564   5.416   7.430 -0.0861  1.0702 -0.2038
   13SAPS   H8X 1697   5.610   5.515   7.452 -4.0801  2.7570  1.7432
   13SAPS   H8Y 1698   5.646   5.342   7.428  0.1433  1.2788  1.0512
   13SAPS   C39 1699   5.453   5.383   7.533  0.1846 -0.6464 -0.1435
   13SAPS   H9X 1700   5.406   5.287   7.505 -1.6742  0.7774 -2.2399
   13SAPS   H9Y 1701   5.373   5.460   7.528 -1.0359 -1.9277 -1.1194
   13SAPS  C310 1702   5.494   5.363   7.678 -0.0723 -0.1439  0.1332
   13SAPS  H10X 1703   5.529   5.458   7.724 -1.4288 -0.5091  2.0512
   13SAPS  H10Y 1704   5.582   5.295   7.687 -0.5046 -0.7200  0.0479
   13SAPS  C311 1705   5.383   5.296   7.761 -0.8056  0.1467  0.2543
   13SAPS  H11X 1706   5.369   5.192   7.726  0.1451 -0.5842  1.9002
   13SAPS  H11Y 1707   5.286   5.348   7.753 -1.0919 -0.5084 -0.6715
   13SAPS  C312 1708   5.434   5.302   7.906  0.3506  0.2241  0.0498
   13SAPS  H12X 1709   5.458   5.409   7.921  1.3168  0.1613 -0.9266
   13SAPS  H12Y 1710   5.523   5.236   7.921 -0.5246 -0.9825  0.1290
   13SAPS  C313 1711   5.334   5.257   8.022 -0.2690  0.3229 -0.0741
   13SAPS  H13X 1712   5.303   5.153   7.998  2.2745 -0.6590  0.5325
   13SAPS  H13Y 1713   5.244   5.318   8.002 -0.5615 -0.1396 -0.1723
   13SAPS  C314 1714   5.388   5.261   8.170 -0.3685  0.2850 -0.7204
   13SAPS  H14X 1715   5.327   5.206   8.245 -0.7894  0.9484 -0.5634
   13SAPS  H14Y 1716   5.375   5.369   8.192 -0.7009  0.1650 -0.3079
   13SAPS  C315 1717   5.530   5.210   8.186 -0.5956  0.1279 -0.0892
   13SAPS  H15X 1718   5.604   5.254   8.116  0.2667 -0.2474  0.5551
   13SAPS  H15Y 1719   5.532   5.100   8.173 -1.4004  0.1840 -0.7531
   13SAPS  C316 1720   5.583   5.219   8.331 -0.8126  0.0658 -0.8326
   13SAPS  H16X 1721   5.508   5.156   8.383 -0.2716  1.8063  2.2751
   13SAPS  H16Y 1722   5.570   5.317   8.381  0.4008 -0.4737  0.6351
   13SAPS  C317 1723   5.729   5.170   8.337 -0.1995  0.5322  0.2228
   13SAPS  H17X 1724   5.791   5.239   8.398 -0.7218  0.9019  0.3358
   13SAPS  H17Y 1725   5.771   5.178   8.235 -2.3907  2.2549 -0.6102
   13SAPS  C318 1726   5.741   5.021   8.382 -0.3867 -0.7330 -0.6368
   13SAPS  H18X 1727   5.682   4.951   8.318  1.9495 -1.8846 -1.6388
   13SAPS  H18Y 1728   5.691   5.004   8.479  0.0869  0.0599 -0.2465
   13SAPS  H18Z 1729   5.846   4.987   8.374  0.1692  1.1928 -2.5224
   14SAPS     N 1730   4.785   5.832   5.574  0.3255  0.5711 -0.6233
   14SAPS   HN1 1731   4.880   5.873   5.568  0.1133  0.9182 -1.7378
   14SAPS   HN2 1732   4.801   5.744   5.627 -2.2367  0.3551 -0.0706
   14SAPS   HN3 1733   4.755   5.809   5.477 -0.8415 -2.9623  0.4221
   14SAPS   C12 1734   4.702   5.927   5.648 -0.4534 -0.5084  0.5616
   14SAPS  H12A 1735   4.698   6.016   5.587 -0.4229 -1.3786 -0.7409
   14SAPS   C13 1736   4.551   5.878   5.664 -0.7742 -0.5722  0.1621
   14SAPS  O13A 1737   4.514   5.778   5.600  0.0371 -0.2173 -0.2428
   14SAPS  O13B 1738   4.484   5.939   5.750  0.6019 -0.1122  0.2721
   14SAPS   C11 1739   4.761   5.967   5.788 -0.3516  0.3139 -0.4452
   14SAPS  H11A 1740   4.794   5.879   5.847  0.4941  0.4953 -0.6371
   14SAPS  H11B 1741   4.691   6.023   5.854  0.7659 -0.2005  1.2392
   14SAPS     P 1742   4.890   6.196   5.804  0.3226 -0.2835  0.4116
   14SAPS   O13 1743   5.025   6.237   5.770  0.4897 -0.1113 -0.0847
   14SAPS   O14 1744   4.784   6.278   5.750 -0.8138  0.3284  0.4530
   14SAPS   O12 1745   4.873   6.046   5.768  0.2010 -0.6680  0.0382
   14SAPS   O11 1746   4.873   6.208   5.955  0.2214  0.1429  0.5660
   14SAPS    C1 1747   4.821   6.315   6.022  0.1966  0.2209 -0.5372
   14SAPS    HA 1748   4.802   6.402   5.956 -2.1193  0.7465  0.7287
   14SAPS    HB 1749   4.718   6.285   6.048 -0.4959 -0.6368 -3.9410
   14SAPS    C2 1750   4.917   6.364   6.135  0.1338 -0.0027 -0.4389
   14SAPS    HS 1751   5.009   6.371   6.073 -0.6157  1.7054 -1.4166
   14SAPS   O21 1752   4.926   6.263   6.240  0.6724  0.2299 -0.1225
   14SAPS   C21 1753   5.042   6.194   6.241  0.6340  0.3269  0.2216
   14SAPS   O22 1754   5.128   6.198   6.156 -0.3679 -0.1737 -0.0064
   14SAPS   C22 1755   5.039   6.102   6.366  0.1059 -0.0411  0.5005
   14SAPS   H2R 1756   4.945   6.124   6.421  0.0326 -0.8251  0.6974
   14SAPS   H2S 1757   5.028   5.998   6.327  1.5049 -1.0986  2.6939
   14SAPS    C3 1758   4.890   6.500   6.203 -0.3175 -0.0674  0.4097
   14SAPS    HX 1759   4.779   6.502   6.212 -0.3048 -0.2568  0.6019
   14SAPS    HY 1760   4.924   6.570   6.124  0.1711 -1.6129 -0.8151
   14SAPS   O31 1761   4.967   6.519   6.329  0.1655  0.7208  0.1617
   14SAPS   C31 1762   4.902   6.592   6.420  0.7725 -0.1094 -1.0641
   14SAPS   O32 1763   4.795   6.659   6.401 -0.5885  0.6466  0.4629
   14SAPS   C32 1764   4.972   6.578   6.547 -0.3128 -0.0113  0.7114
   14SAPS   H2X 1765   5.081   6.585   6.524 -0.5087  0.1570 -0.1690
   14SAPS   H2Y 1766   4.949   6.482   6.597  0.0645 -0.3594  0.2288
   14SAPS   C23 1767   5.166   6.123   6.459  0.0347 -0.2915  0.0715
   14SAPS   H3R 1768   5.258   6.090   6.405  1.5711  0.0085  2.3886
   14SAPS   H3S 1769   5.147   6.055   6.544  1.8822 -2.2294 -0.9498
   14SAPS   C24 1770   5.190   6.261   6.516  0.0570 -1.1408 -0.3890
   14SAPS   H4R 1771   5.109   6.291   6.586  0.8944 -1.0218  0.5639
   14SAPS   H4S 1772   5.190   6.332   6.431 -3.1349  0.2128  0.5714
   14SAPS   C25 1773   5.332   6.252   6.583 -0.0613 -0.1309 -0.5629
   14SAPS   H5R 1774   5.424   6.229   6.528  1.7589 -0.4090  2.4175
   14SAPS   C26 1775   5.352   6.280   6.712 -0.1925 -0.0728  0.2764
   14SAPS   H6R 1776   5.455   6.274   6.752  0.7736  3.1112 -1.3948
   14SAPS   C27 1777   5.255   6.314   6.818  0.4307  0.6804  0.3114
   14SAPS   H7R 1778   5.203   6.221   6.849  0.7641 -0.3323 -1.9779
   14SAPS   H7S 1779   5.182   6.377   6.762 -1.6166 -2.2384 -0.5330
   14SAPS   C28 1780   5.313   6.405   6.921 -0.6264 -0.2633  0.0489
   14SAPS   H8R 1781   5.346   6.503   6.883 -2.2508 -0.3331 -1.7166
   14SAPS   C29 1782   5.334   6.370   7.049  0.0471 -0.5172 -0.7018
   14SAPS   H9R 1783   5.372   6.443   7.121 -2.8691  1.4160 -0.9458
   14SAPS  C210 1784   5.282   6.236   7.102  0.3317 -0.2863  0.5214
   14SAPS  H10R 1785   5.330   6.155   7.043  0.0997  0.1846 -0.3348
   14SAPS  H10S 1786   5.171   6.232   7.093  0.4387  0.3838 -1.8333
   14SAPS  C211 1787   5.320   6.227   7.249 -0.2245  0.5615  0.4507
   14SAPS  H11R 1788   5.274   6.303   7.314  1.8860  0.5383  2.0757
   14SAPS  C212 1789   5.390   6.133   7.308  0.3677  0.2220 -0.2987
   14SAPS  H12R 1790   5.401   6.138   7.417  2.7784  0.0851 -0.4775
   14SAPS  C213 1791   5.433   6.002   7.239  0.6099 -1.0142 -0.5411
   14SAPS  H13R 1792   5.534   5.989   7.282  0.3608 -0.8285  0.1212
   14SAPS  H13S 1793   5.451   6.025   7.132  0.6720 -1.1228 -0.5529
   14SAPS  C214 1794   5.337   5.888   7.263 -0.2490  0.4241 -0.4526
   14SAPS  H14R 1795   5.273   5.860   7.178  0.3352 -0.0386 -0.7478
   14SAPS  C215 1796   5.332   5.831   7.386  0.2789 -0.1870  0.3458
   14SAPS  H15R 1797   5.267   5.743   7.395 -0.1453  0.1371  0.4551
   14SAPS  C216 1798   5.419   5.856   7.514 -0.0876 -0.4439  0.1206
   14SAPS  H16R 1799   5.488   5.940   7.492 -2.8528  1.5052 -1.8593
   14SAPS  H16S 1800   5.475   5.761   7.532  0.0044 -0.7022 -1.4425
   14SAPS  C217 1801   5.333   5.889   7.643 -0.2063  0.3047 -0.6820
   14SAPS  H17R 1802   5.270   5.979   7.624 -1.6050 -0.5581 -0.2538
   14SAPS  H17S 1803   5.393   5.919   7.732 -0.2905  1.2593 -0.9344
   14SAPS  C218 1804   5.237   5.782   7.694  0.1890  0.4089  0.2477
   14SAPS  H18R 1805   5.211   5.719   7.607  0.3489 -2.3453  2.0709
   14SAPS  H18S 1806   5.148   5.837   7.731  1.1469  1.4035  1.1422
   14SAPS  C219 1807   5.297   5.685   7.797 -0.9949  0.9147  0.4626
   14SAPS  H19R 1808   5.343   5.747   7.877  1.5424 -0.2484  0.0121
   14SAPS  H19S 1809   5.381   5.630   7.750 -1.7046  0.4566 -0.2866
   14SAPS  C220 1810   5.191   5.585   7.854  0.1613  0.8989  0.4737
   14SAPS  H20R 1811   5.100   5.635   7.894 -0.7512  0.3144 -0.8003
   14SAPS  H20S 1812   5.232   5.543   7.948 -0.8416 -0.6078  0.2605
   14SAPS  H20T 1813   5.154   5.514   7.777  0.3545  1.9805 -0.6617
   14SAPS   C33 1814   4.928   6.686   6.641  0.5151 -0.1380 -0.1421
   14SAPS   H3X 1815   4.822   6.666   6.668  0.7885 -2.8238 -0.8057
   14SAPS   H3Y 1816   4.936   6.783   6.588  0.4669 -0.4251 -0.6833
   14SAPS   C34 1817   5.008   6.681   6.768 -0.4709 -0.6000  0.3094
   14SAPS   H4X 1818   5.022   6.784   6.805 -3.3222  0.5213 -1.4638
   14SAPS   H4Y 1819   5.110   6.650   6.735 -0.8534 -1.2242 -0.3338
   14SAPS   C35 1820   4.970   6.581   6.870  0.3041  0.1504 -0.9128
   14SAPS   H5X 1821   4.996   6.478   6.840 -0.1249 -0.4721  0.7049
   14SAPS   H5Y 1822   4.859   6.572   6.879  0.3063  0.6709 -0.2132
   14SAPS   C36 1823   5.033   6.623   7.006  0.1131  0.5822 -0.7611
   14SAPS   H6X 1824   5.001   6.726   7.032  1.2128  0.9949 -1.0263
   14SAPS   H6Y 1825   5.143   6.620   6.995  0.7545  1.3328  3.5222
   14SAPS   C37 1826   4.991   6.521   7.113 -0.7299  0.0917  0.0020
   14SAPS   H7X 1827   5.023   6.419   7.085 -0.3210 -0.2942  1.7625
   14SAPS   H7Y 1828   4.880   6.523   7.121 -0.6913 -0.9164  0.9606
   14SAPS   C38 1829   5.053   6.541   7.254  0.6173 -0.1673  0.2384
   14SAPS   H8X 1830   5.010   6.633   7.300  0.9109  0.9650 -1.6493
   14SAPS   H8Y 1831   5.162   6.556   7.242  0.9044 -1.9321  0.3076
   14SAPS   C39 1832   5.015   6.427   7.348 -0.2435 -0.3073  0.9141
   14SAPS   H9X 1833   5.056   6.331   7.309 -1.0186 -0.3274  0.1045
   14SAPS   H9Y 1834   4.906   6.403   7.348 -0.3145 -0.3486 -1.7189
   14SAPS  C310 1835   5.049   6.451   7.493 -0.4671 -0.7272 -0.7074
   14SAPS  H10X 1836   4.977   6.511   7.552  0.2217 -0.6480  0.0652
   14SAPS  H10Y 1837   5.138   6.518   7.493 -0.1915 -0.8505  3.6669
   14SAPS  C311 1838   5.092   6.327   7.568 -0.3498 -0.0623  0.3615
   14SAPS  H11X 1839   5.178   6.277   7.516 -0.4180 -0.1179  0.3016
   14SAPS  H11Y 1840   5.007   6.255   7.572 -1.1422  0.9326  2.1756
   14SAPS  C312 1841   5.141   6.349   7.712  0.1691 -0.0700 -0.0908
   14SAPS  H12X 1842   5.051   6.379   7.769  1.3619 -0.0485  1.9072
   14SAPS  H12Y 1843   5.209   6.437   7.704 -0.0013  0.3210  2.0398
   14SAPS  C313 1844   5.197   6.225   7.786  0.6199  0.2618  0.2315
   14SAPS  H13X 1845   5.292   6.204   7.733  0.9077  3.2445 -0.6207
   14SAPS  H13Y 1846   5.132   6.135   7.785  1.3911 -0.3021 -0.8546
   14SAPS  C314 1847   5.238   6.260   7.930 -0.6426  0.2829  0.6035
   14SAPS  H14X 1848   5.154   6.312   7.982 -1.1624  0.4693 -0.3894
   14SAPS  H14Y 1849   5.315   6.340   7.924 -0.5171  0.0596 -1.4418
   14SAPS  C315 1850   5.288   6.139   8.015  0.0968 -0.7641 -0.3384
   14SAPS  H15X 1851   5.380   6.092   7.975  1.3033  0.2464  1.1605
   14SAPS  H15Y 1852   5.206   6.064   8.013  1.1100 -1.8819 -1.2030
   14SAPS  C316 1853   5.316   6.193   8.154 -0.2070  0.3294 -0.5532
   14SAPS  H16X 1854   5.224   6.233   8.202  0.4813  0.4447  0.7043
   14SAPS  H16Y 1855   5.388   6.277   8.154  0.7557 -0.4548 -1.8723
   14SAPS  C317 1856   5.363   6.075   8.247  0.0547  0.2675  0.5584
   14SAPS  H17X 1857   5.461   6.042   8.207 -0.0182 -0.1566  0.7265
   14SAPS  H17Y 1858   5.292   5.993   8.227 -0.9321  1.3472 -0.5791
   14SAPS  C318 1859   5.366   6.103   8.401  0.0982  0.9722  0.0178
   14SAPS  H18X 1860   5.433   6.036   8.459 -0.1667  1.1606  0.5408
   14SAPS  H18Y 1861   5.264   6.098   8.443 -0.0500  1.3062 -0.2911
   14SAPS  H18Z 1862   5.410   6.204   8.414 -0.4721  1.1495  0.5798
   15SAPS     N 1863   6.253   0.248   5.797  0.4166  0.3184  0.7079
   15SAPS   HN1 1864   6.247   0.341   5.751  0.2250  0.3040  0.7027
   15SAPS   HN2 1865   6.179   0.228   5.868 -1.1259  0.7214 -0.7228
   15SAPS   HN3 1866   6.349   0.248   5.837 -0.2654 -0.6576  2.4393
   15SAPS   C12 1867   6.253   0.142   5.687  0.5526  1.2328  0.5146
   15SAPS  H12A 1868   6.222   0.042   5.713 -1.1083  1.6602  0.3198
   15SAPS   C13 1869   6.166   0.188   5.571 -0.5680  0.0219  0.3890
   15SAPS  O13A 1870   6.105   0.297   5.579 -0.2506 -0.1264 -0.0703
   15SAPS  O13B 1871   6.169   0.114   5.470  0.1960  0.0686 -0.1357
   15SAPS   C11 1872   6.402   0.140   5.621 -0.0860 -0.4029 -0.4499
   15SAPS  H11A 1873   6.429   0.239   5.578  0.7531 -1.0983 -1.5732
   15SAPS  H11B 1874   6.404   0.063   5.541  0.4244 -0.4977 -0.3550
   15SAPS     P 1875   6.572  -0.015   5.755  0.1454  0.2724 -0.0317
   15SAPS   O13 1876   6.544  -0.122   5.656  0.3198  1.1728 -0.3959
   15SAPS   O14 1877   6.720   0.020   5.764  0.1114  0.1063 -0.3297
   15SAPS   O12 1878   6.494   0.123   5.727 -0.1650  0.8320  0.4588
   15SAPS   O11 1879   6.521  -0.057   5.894  0.1454 -0.1672  0.0041
   15SAPS    C1 1880   6.606  -0.121   5.991 -0.3365 -0.4878  0.6087
   15SAPS    HA 1881   6.692  -0.177   5.948 -1.3817 -2.2289  0.7132
   15SAPS    HB 1882   6.650  -0.045   6.060 -0.3417 -0.7154  0.8630
   15SAPS    C2 1883   6.533  -0.235   6.062 -0.0771  0.4986 -0.9174
   15SAPS    HS 1884   6.453  -0.187   6.124  0.1265  0.0752 -0.3101
   15SAPS   O21 1885   6.621  -0.304   6.149  0.3665 -0.1659 -0.3469
   15SAPS   C21 1886   6.629  -0.251   6.268  0.5416 -1.0090  0.1698
   15SAPS   O22 1887   6.577  -0.147   6.307  0.0974 -0.2902  0.3451
   15SAPS   C22 1888   6.704  -0.349   6.356  0.3016  0.0087  0.1295
   15SAPS   H2R 1889   6.752  -0.426   6.291  0.9407 -0.0577  0.6611
   15SAPS   H2S 1890   6.786  -0.298   6.412  1.5596 -3.3754  1.6715
   15SAPS    C3 1891   6.460  -0.332   5.969  0.3870  0.2582  0.2175
   15SAPS    HX 1892   6.534  -0.406   5.932 -0.4398 -0.4248 -0.0885
   15SAPS    HY 1893   6.415  -0.280   5.881  1.6043 -0.0457 -0.6215
   15SAPS   O31 1894   6.360  -0.408   6.038  0.2332  0.6675  0.1303
   15SAPS   C31 1895   6.246  -0.349   6.068 -0.3765 -0.1648  0.4476
   15SAPS   O32 1896   6.206  -0.243   6.037 -0.3068 -0.2573 -0.0047
   15SAPS   C32 1897   6.165  -0.453   6.151 -0.0534  0.4943  0.3759
   15SAPS   H2X 1898   6.168  -0.545   6.091  0.7464  0.9980 -0.3906
   15SAPS   H2Y 1899   6.060  -0.423   6.169 -0.2362 -0.1413  0.3681
   15SAPS   C23 1900   6.618  -0.416   6.466  0.3098  0.2417 -0.3493
   15SAPS   H3R 1901   6.537  -0.470   6.412 -0.5613 -0.0560  1.1805
   15SAPS   H3S 1902   6.563  -0.340   6.526  0.8503  0.6676 -0.3833
   15SAPS   C24 1903   6.674  -0.532   6.539 -0.4683 -0.2205  0.2325
   15SAPS   H4R 1904   6.701  -0.617   6.474 -0.6262 -0.9242  1.0660
   15SAPS   H4S 1905   6.597  -0.567   6.610  0.3216  0.7457  1.6219
   15SAPS   C25 1906   6.801  -0.485   6.615  0.4891  0.4422  0.0177
   15SAPS   H5R 1907   6.862  -0.415   6.557  1.8050 -0.8953 -0.2846
   15SAPS   C26 1908   6.841  -0.516   6.736  0.4330 -0.3999 -0.7001
   15SAPS   H6R 1909   6.933  -0.469   6.775  1.4085 -1.8963 -1.1298
   15SAPS   C27 1910   6.772  -0.615   6.836 -0.1332 -0.4227  0.6299
   15SAPS   H7R 1911   6.848  -0.693   6.857  0.4882 -0.2005 -0.6914
   15SAPS   H7S 1912   6.700  -0.674   6.776  0.7516 -1.0925  0.2054
   15SAPS   C28 1913   6.692  -0.559   6.955 -0.0141 -0.7311 -0.2240
   15SAPS   H8R 1914   6.623  -0.478   6.927  0.1357 -0.0555  1.2578
   15SAPS   C29 1915   6.688  -0.599   7.082 -0.7803  0.3305 -0.0941
   15SAPS   H9R 1916   6.620  -0.555   7.157 -1.2095  0.2758 -0.4468
   15SAPS  C210 1917   6.761  -0.712   7.148  0.0273  0.0615  0.5003
   15SAPS  H10R 1918   6.799  -0.669   7.243  0.2347  3.1088 -0.8358
   15SAPS  H10S 1919   6.850  -0.725   7.082 -0.7667  0.3816 -0.6604
   15SAPS  C211 1920   6.686  -0.842   7.154  0.1123  0.3990 -0.2724
   15SAPS  H11R 1921   6.661  -0.873   7.052 -0.3191  1.2605 -0.4353
   15SAPS  C212 1922   6.650  -0.911   7.268 -0.2703  0.3848  0.1259
   15SAPS  H12R 1923   6.596  -1.007   7.266  1.2964 -0.5270 -0.2584
   15SAPS  C213 1924   6.697  -0.864   7.408  0.1033  0.0399 -0.1934
   15SAPS  H13R 1925   6.806  -0.846   7.400  0.4792 -1.0141  1.8176
   15SAPS  H13S 1926   6.671  -0.938   7.487 -1.0456  0.9794  0.3291
   15SAPS  C214 1927   6.647  -0.733   7.462 -0.2600 -0.5086 -0.1462
   15SAPS  H14R 1928   6.589  -0.672   7.392 -0.3580  0.7709  1.0165
   15SAPS  C215 1929   6.674  -0.671   7.576 -0.4492 -0.3331 -0.2763
   15SAPS  H15R 1930   6.623  -0.581   7.614 -2.5387 -2.2182  1.7005
   15SAPS  C216 1931   6.761  -0.741   7.681  0.9005 -0.5970 -0.1712
   15SAPS  H16R 1932   6.840  -0.676   7.725  0.1934  0.0773  0.1343
   15SAPS  H16S 1933   6.824  -0.823   7.641 -1.5748 -1.8795 -1.6611
   15SAPS  C217 1934   6.680  -0.795   7.804  0.3977  0.5600 -0.2172
   15SAPS  H17R 1935   6.748  -0.826   7.886  0.3197 -1.6205 -0.9126
   15SAPS  H17S 1936   6.631  -0.887   7.766 -0.3655  0.4677  0.9762
   15SAPS  C218 1937   6.570  -0.707   7.861 -0.6368  0.4153  0.8791
   15SAPS  H18R 1938   6.490  -0.685   7.787 -0.1410 -2.0092 -0.4704
   15SAPS  H18S 1939   6.619  -0.613   7.896  0.7411  0.0822 -0.0593
   15SAPS  C219 1940   6.498  -0.777   7.981  0.0544 -0.1317 -0.2291
   15SAPS  H19R 1941   6.565  -0.764   8.069 -2.2594  1.0722  1.4631
   15SAPS  H19S 1942   6.504  -0.886   7.964  0.0943 -0.3277  0.9943
   15SAPS  C220 1943   6.364  -0.724   8.017  0.1046  0.5276  1.0818
   15SAPS  H20R 1944   6.364  -0.617   8.048 -3.2033  0.1141  3.0489
   15SAPS  H20S 1945   6.321  -0.780   8.103  2.5341  0.3617  2.2695
   15SAPS  H20T 1946   6.294  -0.727   7.930  0.9726  1.2923  0.3301
   15SAPS   C33 1947   6.239  -0.498   6.280 -0.7932  0.2301  0.3886
   15SAPS   H3X 1948   6.346  -0.517   6.257 -1.5807 -1.8762 -1.9489
   15SAPS   H3Y 1949   6.180  -0.587   6.309  0.5440 -0.9946 -0.5086
   15SAPS   C34 1950   6.239  -0.396   6.395 -0.0279  0.4438 -0.1527
   15SAPS   H4X 1951   6.135  -0.359   6.389 -0.2558  0.0658  1.1390
   15SAPS   H4Y 1952   6.300  -0.307   6.371 -0.8546  1.1179  0.2188
   15SAPS   C35 1953   6.250  -0.459   6.532 -0.8337  0.4783  0.3952
   15SAPS   H5X 1954   6.345  -0.515   6.547 -0.4948  0.6638 -0.9755
   15SAPS   H5Y 1955   6.169  -0.535   6.538 -1.6089  1.1947 -0.6432
   15SAPS   C36 1956   6.245  -0.346   6.632  0.3000 -0.1422  0.1437
   15SAPS   H6X 1957   6.147  -0.297   6.610 -0.2505 -0.1704  2.2506
   15SAPS   H6Y 1958   6.328  -0.274   6.619  0.3925  0.7358  4.1907
   15SAPS   C37 1959   6.251  -0.397   6.776  0.3973 -0.2290 -0.4913
   15SAPS   H7X 1960   6.327  -0.478   6.774 -1.3269 -1.9198 -0.6317
   15SAPS   H7Y 1961   6.159  -0.454   6.801 -0.4615  0.9030 -1.0233
   15SAPS   C38 1962   6.283  -0.284   6.877  0.2630  0.2876  0.4194
   15SAPS   H8X 1963   6.216  -0.196   6.864 -0.8564 -0.5431  0.4388
   15SAPS   H8Y 1964   6.387  -0.255   6.848  0.3133 -0.3177 -0.0100
   15SAPS   C39 1965   6.279  -0.348   7.010 -0.4628 -0.9499  0.0078
   15SAPS   H9X 1966   6.359  -0.424   7.015  0.8020  0.3298 -0.0095
   15SAPS   H9Y 1967   6.178  -0.394   7.017 -1.2015 -0.0685 -3.2698
   15SAPS  C310 1968   6.280  -0.250   7.127 -0.5647  0.7182 -0.5734
   15SAPS  H10X 1969   6.194  -0.181   7.128  0.3203  1.9199  2.1372
   15SAPS  H10Y 1970   6.366  -0.179   7.120 -0.1124  0.1099 -1.4525
   15SAPS  C311 1971   6.294  -0.317   7.265 -0.0171  0.1460 -0.4985
   15SAPS  H11X 1972   6.265  -0.235   7.335 -1.6733 -0.5186 -0.3636
   15SAPS  H11Y 1973   6.400  -0.349   7.274 -0.4031 -1.1489 -0.3723
   15SAPS  C312 1974   6.201  -0.435   7.280 -0.8410  0.6770 -0.6973
   15SAPS  H12X 1975   6.215  -0.508   7.197  1.3550  1.2914 -0.9200
   15SAPS  H12Y 1976   6.096  -0.401   7.273 -1.0290  0.2691  0.0736
   15SAPS  C313 1977   6.224  -0.518   7.408 -0.2205 -0.0398 -0.1336
   15SAPS  H13X 1978   6.331  -0.547   7.423 -0.4961 -0.4542  1.2237
   15SAPS  H13Y 1979   6.164  -0.612   7.408  0.9408 -0.9584  3.2838
   15SAPS  C314 1980   6.185  -0.442   7.538 -0.9107 -0.3287 -0.2536
   15SAPS  H14X 1981   6.076  -0.435   7.522 -1.1005 -1.1065  0.5899
   15SAPS  H14Y 1982   6.233  -0.342   7.533  0.5043 -1.0495 -3.9789
   15SAPS  C315 1983   6.236  -0.521   7.662 -0.5540  0.8109 -1.0391
   15SAPS  H15X 1984   6.346  -0.534   7.659 -0.6643 -0.9397  0.7366
   15SAPS  H15Y 1985   6.195  -0.624   7.671 -1.9968  1.4955  1.7644
   15SAPS  C316 1986   6.193  -0.451   7.796  0.5531 -0.2100 -0.1977
   15SAPS  H16X 1987   6.197  -0.533   7.870 -4.4992 -2.0330 -1.5506
   15SAPS  H16Y 1988   6.085  -0.424   7.793 -0.1423 -2.5146  1.5161
   15SAPS  C317 1989   6.292  -0.344   7.835  0.1019  0.3653  0.4148
   15SAPS  H17X 1990   6.308  -0.261   7.764 -0.7896 -0.9820 -1.4627
   15SAPS  H17Y 1991   6.385  -0.401   7.856  0.3437  0.9397  0.9010
   15SAPS  C318 1992   6.253  -0.292   7.972  0.0303 -0.1669  0.2143
   15SAPS  H18X 1993   6.155  -0.241   7.983 -0.5015 -1.3600  1.3319
   15SAPS  H18Y 1994   6.337  -0.233   8.016  1.2184 -1.0392 -0.8223
   15SAPS  H18Z 1995   6.244  -0.377   8.043  1.0540 -2.6223 -2.4049
   16SAPS     N 1996   0.962   0.973   6.238 -0.7860 -0.7270  0.8671
   16SAPS   HN1 1997   1.033   0.980   6.313  0.7667 -0.8486 -0.5348
   16SAPS   HN2 1998   0.970   1.064   6.189  0.2451  0.0933  2.4833
   16SAPS   HN3 1999   0.863   0.976   6.271 -0.1953  3.1447  2.9201
   16SAPS   C12 2000   0.988   0.855   6.141 -0.1022 -0.8411 -0.6163
   16SAPS  H12A 2001   0.914   0.844   6.063  0.8561 -3.1804 -1.3087
   16SAPS   C13 2002   1.124   0.860   6.061 -0.7097  0.4970  0.4663
   16SAPS  O13A 2003   1.192   0.964   6.055  0.1513 -0.4826 -0.1570
   16SAPS  O13B 2004   1.130   0.773   5.971 -0.3918  0.1089 -0.1917
   16SAPS   C11 2005   0.978   0.723   6.221  0.4555  0.0620 -0.1719
   16SAPS  H11A 2006   1.061   0.715   6.295 -0.1720 -2.1433  0.3852
   16SAPS  H11B 2007   0.984   0.636   6.152  1.3806  0.0948 -0.1507
   16SAPS     P 2008   0.823   0.598   6.383 -0.0056  0.6239  0.0062
   16SAPS   O13 2009   0.681   0.586   6.409 -0.3428 -0.7451  0.3610
   16SAPS   O14 2010   0.894   0.475   6.336 -0.0674 -0.4179  0.1301
   16SAPS   O12 2011   0.853   0.726   6.294  0.5952  0.6120 -0.4451
   16SAPS   O11 2012   0.887   0.648   6.526 -0.3260  0.1463  0.4301
   16SAPS    C1 2013   0.857   0.789   6.550  0.0758  1.2623  0.5651
   16SAPS    HA 2014   0.925   0.847   6.485  1.0346 -0.8761 -0.4273
   16SAPS    HB 2015   0.751   0.815   6.526 -0.0117  0.6610  0.2655
   16SAPS    C2 2016   0.875   0.814   6.698  0.2841  0.2967 -0.4528
   16SAPS    HS 2017   0.969   0.773   6.741 -0.1999 -0.1495  0.2211
   16SAPS   O21 2018   0.765   0.748   6.754  0.1914  0.4676  0.5612
   16SAPS   C21 2019   0.806   0.641   6.837  0.0546 -0.7357 -0.2859
   16SAPS   O22 2020   0.916   0.590   6.840  0.3052 -0.2627  0.0476
   16SAPS   C22 2021   0.681   0.597   6.917  0.8059 -0.1941 -0.1463
   16SAPS   H2R 2022   0.631   0.690   6.952  1.0135 -0.5739  1.2001
   16SAPS   H2S 2023   0.626   0.538   6.841 -0.0401 -2.0427  1.8107
   16SAPS    C3 2024   0.875   0.962   6.725  0.3820  0.5091  0.4275
   16SAPS    HX 2025   0.777   0.999   6.689  0.4050 -0.2100 -0.4197
   16SAPS    HY 2026   0.959   1.002   6.664  1.4751 -1.7165  0.3525
   16SAPS   O31 2027   0.898   0.982   6.865 -0.3017  0.2666 -0.1783
   16SAPS   C31 2028   0.796   0.990   6.949 -0.2158 -0.3251 -0.3061
   16SAPS   O32 2029   0.677   0.975   6.928  0.0430 -0.0702 -0.9103
   16SAPS   C32 2030   0.872   1.011   7.087  0.2189  0.2652  0.4361
   16SAPS   H2X 2031   0.958   1.079   7.069 -0.7852  1.4389 -0.0632
   16SAPS   H2Y 2032   0.899   0.909   7.120 -3.0312 -1.0646 -0.6310
   16SAPS   C23 2033   0.716   0.488   7.022 -0.6296  0.1111 -0.9869
   16SAPS   H3R 2034   0.782   0.415   6.970  0.0055  0.2595 -0.3992
   16SAPS   H3S 2035   0.620   0.443   7.055 -1.2426  1.0951 -1.3781
   16SAPS   C24 2036   0.786   0.533   7.153  0.1382 -0.0478  0.2732
   16SAPS   H4R 2037   0.886   0.566   7.117  1.1517 -3.1867 -0.0480
   16SAPS   H4S 2038   0.802   0.440   7.212  0.5609 -0.8590 -1.0749
   16SAPS   C25 2039   0.722   0.645   7.222  0.2531 -0.5216 -0.7494
   16SAPS   H5R 2040   0.651   0.704   7.162 -0.3451 -1.0039 -0.5293
   16SAPS   C26 2041   0.720   0.648   7.360  0.2169 -0.1634 -0.1952
   16SAPS   H6R 2042   0.664   0.723   7.417  1.8595  0.7202  0.3287
   16SAPS   C27 2043   0.790   0.555   7.452  0.1294 -0.1279 -0.0949
   16SAPS   H7R 2044   0.888   0.518   7.415 -0.7809 -3.2563  0.3527
   16SAPS   H7S 2045   0.734   0.460   7.469 -2.3276  1.1269 -0.6740
   16SAPS   C28 2046   0.836   0.624   7.582 -0.3756 -0.1064  0.0325
   16SAPS   H8R 2047   0.879   0.724   7.570 -1.0542 -0.0127 -1.8937
   16SAPS   C29 2048   0.797   0.581   7.704  0.4980 -0.3363 -0.1113
   16SAPS   H9R 2049   0.837   0.636   7.792 -0.2210 -0.8633  0.5545
   16SAPS  C210 2050   0.704   0.460   7.724  0.2304 -0.7668 -0.2177
   16SAPS  H10R 2051   0.754   0.366   7.693 -0.4174 -1.1868 -0.0000
   16SAPS  H10S 2052   0.618   0.476   7.656  1.2036  0.8981 -1.1319
   16SAPS  C211 2053   0.657   0.441   7.862 -0.2512  0.2554  0.0745
   16SAPS  H11R 2054   0.701   0.355   7.915 -0.5797  1.4974  2.4899
   16SAPS  C212 2055   0.583   0.520   7.936  0.3053 -0.1906  0.1388
   16SAPS  H12R 2056   0.565   0.498   8.042  0.8022  0.6233  0.4068
   16SAPS  C213 2057   0.518   0.648   7.883  0.1845 -0.6322  0.5092
   16SAPS  H13R 2058   0.524   0.658   7.772 -3.0172 -0.5087  0.2480
   16SAPS  H13S 2059   0.576   0.734   7.921  0.4815 -1.0529  1.0088
   16SAPS  C214 2060   0.371   0.659   7.917  0.5887 -0.7103 -1.0170
   16SAPS  H14R 2061   0.345   0.735   7.991  3.0227 -1.6229  0.9117
   16SAPS  C215 2062   0.269   0.600   7.852 -0.2242  0.1133  0.1472
   16SAPS  H15R 2063   0.168   0.622   7.887 -1.1954  0.3881 -2.5592
   16SAPS  C216 2064   0.287   0.497   7.731  0.2234 -0.1744  0.4792
   16SAPS  H16R 2065   0.247   0.395   7.751 -0.2998 -0.8448 -3.3666
   16SAPS  H16S 2066   0.386   0.477   7.685  0.5199  0.6119  0.7599
   16SAPS  C217 2067   0.196   0.558   7.611  0.8121 -0.2608  0.7518
   16SAPS  H17R 2068   0.094   0.581   7.650  0.6721 -0.2340  0.3746
   16SAPS  H17S 2069   0.193   0.479   7.533 -0.6877 -1.0324  1.5354
   16SAPS  C218 2070   0.260   0.678   7.544 -0.2785 -0.2785  0.3240
   16SAPS  H18R 2071   0.280   0.750   7.626 -0.1938  1.4313 -1.1288
   16SAPS  H18S 2072   0.195   0.738   7.476  1.6343 -2.1694 -3.4515
   16SAPS  C219 2073   0.379   0.653   7.449  0.2020  0.1997  0.0707
   16SAPS  H19R 2074   0.465   0.617   7.509 -0.2149 -2.1113 -0.6067
   16SAPS  H19S 2075   0.413   0.749   7.404 -0.0042  1.1597  1.8741
   16SAPS  C220 2076   0.360   0.545   7.341  0.3479 -0.4104 -0.4780
   16SAPS  H20R 2077   0.326   0.448   7.383  3.1739 -0.8039  1.1231
   16SAPS  H20S 2078   0.456   0.523   7.291  0.6210  2.4498 -1.3450
   16SAPS  H20T 2079   0.287   0.571   7.261  0.6480 -0.1792 -0.6769
   16SAPS   C33 2080   0.779   1.067   7.198  0.2639  0.1160  0.3750
   16SAPS   H3X 2081   0.683   1.012   7.192  1.2654 -1.5925 -1.4076
   16SAPS   H3Y 2082   0.752   1.172   7.177 -0.1672  0.0436  0.5624
   16SAPS   C34 2083   0.828   1.046   7.335  0.3277  0.2794  0.1250
   16SAPS   H4X 2084   0.927   1.096   7.340  0.1046  0.8776 -1.1395
   16SAPS   H4Y 2085   0.852   0.937   7.344  0.5239  0.4510  2.3003
   16SAPS   C35 2086   0.733   1.093   7.452 -0.4896 -1.1160  0.9681
   16SAPS   H5X 2087   0.631   1.066   7.417 -0.0871  0.7004 -1.9568
   16SAPS   H5Y 2088   0.730   1.203   7.463 -0.5157 -1.0123 -0.0254
   16SAPS   C36 2089   0.774   1.008   7.573 -0.5551  0.0034 -0.4068
   16SAPS   H6X 2090   0.882   1.017   7.600 -0.4057  3.5653 -1.6120
   16SAPS   H6Y 2091   0.741   0.904   7.554  1.5090 -0.5083 -1.5405
   16SAPS   C37 2092   0.710   1.061   7.703  0.1156 -0.1943  0.4533
   16SAPS   H7X 2093   0.600   1.069   7.694  0.3195  1.3456 -1.2778
   16SAPS   H7Y 2094   0.752   1.158   7.738  1.5435 -0.6729  0.1354
   16SAPS   C38 2095   0.740   0.962   7.826 -0.0549  0.3715  0.1066
   16SAPS   H8X 2096   0.851   0.954   7.837 -0.1221  0.3487  0.7983
   16SAPS   H8Y 2097   0.702   0.863   7.792  3.0125 -1.0470  0.4669
   16SAPS   C39 2098   0.677   1.004   7.956 -0.3066  0.1228  0.0095
   16SAPS   H9X 2099   0.576   0.959   7.964  0.3350 -1.2740  0.6427
   16SAPS   H9Y 2100   0.655   1.112   7.950 -3.1143 -0.4653 -3.1120
   16SAPS  C310 2101   0.747   0.963   8.083  0.2654  0.0964  0.6976
   16SAPS  H10X 2102   0.851   1.001   8.085  0.8847 -1.5347  1.2714
   16SAPS  H10Y 2103   0.747   0.852   8.080 -0.7859  0.0399 -3.5911
   16SAPS  C311 2104   0.683   1.011   8.216 -0.3224  0.0810 -0.2231
   16SAPS  H11X 2105   0.729   0.946   8.294  0.8679 -1.8140 -2.3973
   16SAPS  H11Y 2106   0.577   0.976   8.209  0.4626 -2.3438 -1.0944
   16SAPS  C312 2107   0.691   1.159   8.235  0.2394  0.2423  0.6075
   16SAPS  H12X 2108   0.657   1.225   8.152  2.6455  1.5792  0.5744
   16SAPS  H12Y 2109   0.798   1.186   8.250 -0.0260  0.5562  2.0141
   16SAPS  C313 2110   0.625   1.205   8.367 -0.2357 -0.5770  0.5619
   16SAPS  H13X 2111   0.636   1.127   8.445 -1.3840  0.3627  1.7025
   16SAPS  H13Y 2112   0.515   1.214   8.350 -1.2316  0.9453  5.8971
   16SAPS  C314 2113   0.666   1.339   8.433 -0.2599 -0.0832  0.7362
   16SAPS  H14X 2114   0.676   1.408   8.346  2.3399 -1.0031  0.2080
   16SAPS  H14Y 2115   0.773   1.334   8.462 -0.0078 -1.1409 -0.2911
   16SAPS  C315 2116   0.581   1.374   8.554 -0.5785  0.2069  0.0043
   16SAPS  H15X 2117   0.604   1.302   8.635 -1.3548 -1.1833 -0.9803
   16SAPS  H15Y 2118   0.476   1.356   8.523 -0.8971 -1.6927  1.9440
   16SAPS  C316 2119   0.600   1.515   8.611  0.2218  0.7387  0.5426
   16SAPS  H16X 2120   0.599   1.592   8.531 -0.4737 -0.1701 -0.3535
   16SAPS  H16Y 2121   0.703   1.541   8.643  0.5928 -0.3270  0.2599
   16SAPS  C317 2122   0.485   1.559   8.708  0.3801 -0.0440 -0.9284
   16SAPS  H17X 2123   0.514   1.652   8.762  1.4039 -0.3673 -0.9013
   16SAPS  H17Y 2124   0.491   1.487   8.793  2.5509 -1.3822 -2.1536
   16SAPS  C318 2125   0.350   1.567   8.648 -0.2538 -0.2093 -0.0203
   16SAPS  H18X 2126   0.273   1.632   8.695 -1.7460  0.1618 -2.7261
   16SAPS  H18Y 2127   0.308   1.464   8.647  1.2868 -0.8882  1.1254
   16SAPS  H18Z 2128   0.359   1.606   8.544 -0.6811  1.2546  0.4709
   17SAPC     N 2129   4.717   5.361  10.369 -0.2075  0.1187 -0.6473
   17SAPC   C12 2130   4.644   5.362  10.235  0.1027 -0.0963 -0.7236
   17SAPC  H12A 2131   4.719   5.385  10.161  0.4319 -1.1561 -0.7346
   17SAPC  H12B 2132   4.567   5.437  10.231 -0.8175 -0.8640  1.2975
   17SAPC   C13 2133   4.826   5.254  10.368 -0.1326  0.5846 -0.1476
   17SAPC  H13A 2134   4.879   5.242  10.461 -1.6600 -0.9530  0.5868
   17SAPC  H13B 2135   4.774   5.160  10.356  0.3858  0.2383  0.2974
   17SAPC  H13C 2136   4.889   5.259  10.281 -0.1334 -1.5796 -0.3175
   17SAPC   C14 2137   4.781   5.503  10.390  0.0151  0.7684 -0.2119
   17SAPC  H14A 2138   4.816   5.509  10.492 -0.5056 -1.9099  0.1891
   17SAPC  H14B 2139   4.859   5.523  10.317  1.4468 -1.9492  0.4374
   17SAPC  H14C 2140   4.701   5.574  10.381 -2.3192 -1.8446 -1.3648
   17SAPC   C15 2141   4.625   5.333  10.483  0.0532  0.6461  0.4206
   17SAPC  H15A 2142   4.564   5.246  10.462  0.0003  0.6188  0.6751
   17SAPC  H15B 2143   4.679   5.325  10.576 -0.3047 -0.7355  0.5210
   17SAPC  H15C 2144   4.562   5.421  10.481  1.1176  1.4333  0.5142
   17SAPC   C11 2145   4.575   5.224  10.201 -0.2647 -0.1557  0.3133
   17SAPC  H11A 2146   4.663   5.156  10.202  0.4834  0.7724 -0.6609
   17SAPC  H11B 2147   4.538   5.218  10.096  1.8098 -0.2387 -0.4611
   17SAPC     P 2148   4.326   5.207  10.274 -0.5611 -0.2844  0.4807
   17SAPC   O13 2149   4.238   5.142  10.370  0.0029 -0.0980  0.0464
   17SAPC   O14 2150   4.313   5.357  10.248 -0.0780 -0.1893 -0.5096
   17SAPC   O12 2151   4.477   5.171  10.292  0.1649  0.2278  0.1819
   17SAPC   O11 2152   4.293   5.151  10.125 -0.3992  0.1019 -0.2283
   17SAPC    C1 2153   4.283   5.005  10.121  0.4726 -0.8084  0.7793
   17SAPC    HA 2154   4.229   4.965  10.210 -5.8550  3.1930 -0.6185
   17SAPC    HB 2155   4.212   4.984  10.038 -0.8908 -0.6090  1.8587
   17SAPC    C2 2156   4.412   4.916  10.084 -0.6831 -0.4931  0.8899
   17SAPC    HS 2157   4.485   4.908  10.168  0.7800  0.4107 -0.2544
   17SAPC   O21 2158   4.482   4.976   9.971 -0.0427  0.3222 -0.2451
   17SAPC   C21 2159   4.614   4.947   9.954 -0.2868  0.2171 -0.0133
   17SAPC   O22 2160   4.677   4.884  10.030  0.4130  0.0759 -0.4781
   17SAPC   C22 2161   4.663   5.000   9.815 -0.2060  0.1058 -0.0338
   17SAPC   H2R 2162   4.660   4.913   9.746  1.6085 -0.3063  0.3737
   17SAPC   H2S 2163   4.587   5.076   9.787 -1.0597 -0.5192  0.5490
   17SAPC    C3 2164   4.377   4.774  10.046  0.3854 -0.4831 -0.2629
   17SAPC    HX 2165   4.332   4.732  10.138  3.2401  0.7558  1.8492
   17SAPC    HY 2166   4.466   4.707  10.047 -0.0965 -1.1200  1.1867
   17SAPC   O31 2167   4.291   4.779   9.930 -0.2956  0.3614  0.2018
   17SAPC   C31 2168   4.348   4.767   9.810 -0.2161  0.6713 -0.4681
   17SAPC   O32 2169   4.463   4.723   9.799  0.3470  0.6409  0.2634
   17SAPC   C32 2170   4.266   4.815   9.693  0.0619 -0.5568 -0.0441
   17SAPC   H2X 2171   4.303   4.916   9.664  1.6372 -1.3106 -0.7997
   17SAPC   H2Y 2172   4.159   4.824   9.722  0.1142 -1.5548  0.5177
   17SAPC   C23 2173   4.807   5.067   9.821 -0.1518 -0.1199  0.0390
   17SAPC   H3R 2174   4.869   5.011   9.893  1.3018  3.3027  1.6687
   17SAPC   H3S 2175   4.797   5.170   9.861  0.3518  0.3710 -1.0551
   17SAPC   C24 2176   4.867   5.064   9.679 -1.3188 -1.0717 -0.2863
   17SAPC   H4R 2177   4.818   5.146   9.623  0.9696  1.3599  1.0539
   17SAPC   H4S 2178   4.850   4.966   9.629  3.5110 -1.5935 -1.4906
   17SAPC   C25 2179   5.021   5.073   9.661 -0.0687 -0.4875 -0.0146
   17SAPC   H5R 2180   5.069   5.160   9.709  0.2338 -1.3561  1.3267
   17SAPC   C26 2181   5.113   4.995   9.604  0.4122 -0.0855 -0.0585
   17SAPC   H6R 2182   5.220   5.019   9.607  0.9615 -2.4253  2.5688
   17SAPC   C27 2183   5.082   4.873   9.525  0.5486  0.1253 -0.4598
   17SAPC   H7R 2184   4.976   4.839   9.531  0.8471 -0.8625 -0.6472
   17SAPC   H7S 2185   5.135   4.782   9.561  0.6028  0.6078  0.7169
   17SAPC   C28 2186   5.105   4.897   9.379  0.4870 -0.2373  0.3723
   17SAPC   H8R 2187   5.208   4.931   9.357  0.8859 -0.9335  1.0823
   17SAPC   C29 2188   5.013   4.879   9.278 -0.2112  0.5961  0.7490
   17SAPC   H9R 2189   5.035   4.903   9.173  1.2386 -0.6030  0.7446
   17SAPC  C210 2190   4.870   4.823   9.300  0.1327  0.1560  1.1622
   17SAPC  H10R 2191   4.876   4.753   9.386 -2.0172 -0.4411  0.8811
   17SAPC  H10S 2192   4.858   4.754   9.213  0.2326  0.8974  0.5545
   17SAPC  C211 2193   4.762   4.926   9.321 -0.0161 -0.1814 -0.5140
   17SAPC  H11R 2194   4.780   4.996   9.405  0.8028 -1.0860  0.0947
   17SAPC  C212 2195   4.655   4.944   9.241 -0.1749  0.4320 -0.4877
   17SAPC  H12R 2196   4.597   5.036   9.259 -2.1046 -1.0044  1.3027
   17SAPC  C213 2197   4.613   4.875   9.112  0.1702  0.2414 -0.6706
   17SAPC  H13R 2198   4.504   4.856   9.114  0.4433 -1.5920 -1.0383
   17SAPC  H13S 2199   4.651   4.770   9.103  0.9062  0.3061  1.2933
   17SAPC  C214 2200   4.657   4.967   8.999  0.6811  0.6248 -0.8210
   17SAPC  H14R 2201   4.721   5.052   9.028 -2.1700  2.1445  1.6584
   17SAPC  C215 2202   4.627   4.949   8.872  0.2592  0.8714  0.2759
   17SAPC  H15R 2203   4.683   5.002   8.794  2.0248  0.6159  1.3351
   17SAPC  C216 2204   4.539   4.839   8.814 -0.0299  0.2167  0.2105
   17SAPC  H16R 2205   4.431   4.844   8.842 -0.8761 -2.2300 -2.2374
   17SAPC  H16S 2206   4.586   4.742   8.843  1.5203  0.7334 -0.4716
   17SAPC  C217 2207   4.544   4.850   8.662  0.2263  1.0744 -0.3959
   17SAPC  H17R 2208   4.475   4.776   8.617 -1.8768  1.3452  2.1377
   17SAPC  H17S 2209   4.648   4.832   8.629  0.6266  1.4520  0.5892
   17SAPC  C218 2210   4.497   4.987   8.605  0.2875  0.3415 -0.1245
   17SAPC  H18R 2211   4.536   5.068   8.671 -0.7095 -0.7706  1.9086
   17SAPC  H18S 2212   4.387   4.996   8.604  0.0942 -1.5426 -2.2665
   17SAPC  C219 2213   4.551   5.017   8.456 -0.1478  0.1007  0.5648
   17SAPC  H19R 2214   4.494   5.101   8.409 -0.1107  0.4381  1.1158
   17SAPC  H19S 2215   4.535   4.927   8.393  0.3157  1.0327 -0.9543
   17SAPC  C220 2216   4.700   5.049   8.447 -0.2708  0.2139 -0.2603
   17SAPC  H20R 2217   4.734   5.048   8.342 -2.5384 -0.1080 -1.0327
   17SAPC  H20S 2218   4.759   4.977   8.508 -0.3361  0.7732  0.4834
   17SAPC  H20T 2219   4.734   5.143   8.496  2.5298 -0.7743 -0.1218
   17SAPC   C33 2220   4.285   4.726   9.574 -0.5804 -0.7976  0.8595
   17SAPC   H3X 2221   4.394   4.705   9.565 -0.5949 -1.1930  1.5468
   17SAPC   H3Y 2222   4.249   4.785   9.488 -2.2434 -2.3157  0.4638
   17SAPC   C34 2223   4.200   4.594   9.569  0.0293  0.2610  0.5149
   17SAPC   H4X 2224   4.098   4.622   9.602  0.4829  0.3787  1.8810
   17SAPC   H4Y 2225   4.234   4.522   9.647 -1.1906 -0.5291  0.3469
   17SAPC   C35 2226   4.197   4.530   9.433  0.4117 -0.0223 -0.0607
   17SAPC   H5X 2227   4.122   4.448   9.426  1.5035 -0.9371 -2.4953
   17SAPC   H5Y 2228   4.294   4.476   9.420  0.7776  0.8392 -1.0910
   17SAPC   C36 2229   4.189   4.619   9.302 -0.1595 -0.2653  0.3490
   17SAPC   H6X 2230   4.272   4.693   9.308 -0.8273  0.4257  1.2452
   17SAPC   H6Y 2231   4.091   4.670   9.312 -0.6474 -1.3348  1.1683
   17SAPC   C37 2232   4.199   4.535   9.168  0.2803 -0.1395  0.2387
   17SAPC   H7X 2233   4.119   4.458   9.164  2.7207 -2.8340 -1.8660
   17SAPC   H7Y 2234   4.300   4.490   9.180  1.7997  2.3417 -2.1134
   17SAPC   C38 2235   4.202   4.614   9.033 -0.1201 -0.5836  0.3083
   17SAPC   H8X 2236   4.282   4.691   9.024 -0.7770  0.0088 -0.6215
   17SAPC   H8Y 2237   4.102   4.662   9.033 -0.3976 -1.1247  1.2505
   17SAPC   C39 2238   4.211   4.521   8.909  0.5575 -0.3274  0.0770
   17SAPC   H9X 2239   4.123   4.453   8.903 -0.1092  0.5925 -1.7167
   17SAPC   H9Y 2240   4.306   4.469   8.932  0.5226  0.7411  3.1108
   17SAPC  C310 2241   4.209   4.610   8.782 -0.1850  1.0234  0.1455
   17SAPC  H10X 2242   4.283   4.692   8.788  0.9218  0.0621 -0.0837
   17SAPC  H10Y 2243   4.107   4.651   8.762  0.5671  3.0165  0.1426
   17SAPC  C311 2244   4.247   4.525   8.661  0.3754  1.0580  0.4522
   17SAPC  H11X 2245   4.237   4.588   8.570  0.1295  1.4785  0.7608
   17SAPC  H11Y 2246   4.169   4.448   8.648  0.1908  1.3036  0.1032
   17SAPC  C312 2247   4.382   4.458   8.666 -0.3266  0.4632 -0.1519
   17SAPC  H12X 2248   4.374   4.370   8.733  1.5048  1.3350  1.2994
   17SAPC  H12Y 2249   4.461   4.522   8.710 -0.6230  1.7375 -1.3937
   17SAPC  C313 2250   4.431   4.427   8.522  0.1677  0.2186 -0.0928
   17SAPC  H13X 2251   4.403   4.513   8.457 -1.9338 -0.8624 -0.7157
   17SAPC  H13Y 2252   4.363   4.353   8.475 -0.6076  0.7799  0.1307
   17SAPC  C314 2253   4.575   4.367   8.523  0.3389 -0.6790  0.3654
   17SAPC  H14X 2254   4.579   4.298   8.610 -0.6798  1.4374  2.1973
   17SAPC  H14Y 2255   4.641   4.455   8.540 -0.4322  0.3348 -1.6041
   17SAPC  C315 2256   4.604   4.299   8.384 -0.2005  0.1263 -0.5604
   17SAPC  H15X 2257   4.532   4.214   8.387  0.7669 -0.8182 -2.4071
   17SAPC  H15Y 2258   4.705   4.253   8.386  0.7478  2.1245 -0.4570
   17SAPC  C316 2259   4.595   4.373   8.255  0.3065  0.5030  0.2505
   17SAPC  H16X 2260   4.663   4.460   8.262  0.7586  0.0028  3.1416
   17SAPC  H16Y 2261   4.500   4.430   8.244  0.7297  1.2028  0.2045
   17SAPC  C317 2262   4.619   4.283   8.131  0.5070 -0.7386 -0.8889
   17SAPC  H17X 2263   4.521   4.235   8.108 -0.6186  1.0717 -0.1700
   17SAPC  H17Y 2264   4.697   4.211   8.162  0.1756  0.1546  2.4680
   17SAPC  C318 2265   4.660   4.352   8.004 -0.6528  0.2489 -0.3510
   17SAPC  H18X 2266   4.757   4.403   8.020 -1.5095  1.4519  1.3098
   17SAPC  H18Y 2267   4.662   4.271   7.928 -0.4290 -1.2554  1.1901
   17SAPC  H18Z 2268   4.598   4.434   7.963  1.2698  0.9636 -1.9810
   18SAPC     N 2269   5.385   5.184  10.408  0.7443 -0.1622  0.1499
   18SAPC   C12 2270   5.294   5.251  10.304  0.3497  0.4425  0.1674
   18SAPC  H12A 2271   5.287   5.185  10.218  0.0193 -0.0700  0.5780
   18SAPC  H12B 2272   5.344   5.341  10.272  0.6707  1.0395  2.2067
   18SAPC   C13 2273   5.517   5.177  10.346 -0.3014  0.4339 -0.1074
   18SAPC  H13A 2274   5.523   5.123  10.252  0.7135 -1.3510  0.9164
   18SAPC  H13B 2275   5.549   5.277  10.321  1.2998 -0.1920 -0.6866
   18SAPC  H13C 2276   5.594   5.133  10.408 -1.8594  2.1012  3.2920
   18SAPC   C14 2277   5.394   5.269  10.534 -0.1007 -0.0050  0.3869
   18SAPC  H14A 2278   5.460   5.213  10.600 -0.0686  0.8727  1.1180
   18SAPC  H14B 2279   5.425   5.372  10.523 -0.9450  0.3138  0.9248
   18SAPC  H14C 2280   5.300   5.262  10.586  0.0222 -0.2960  0.5737
   18SAPC   C15 2281   5.335   5.043  10.444  0.1274  0.6119  0.2797
   18SAPC  H15A 2282   5.245   5.046  10.504  1.2123  0.6428  1.9752
   18SAPC  H15B 2283   5.307   4.997  10.350  0.9612  0.6824 -0.0182
   18SAPC  H15C 2284   5.409   4.988  10.500  0.3367 -1.4471 -1.8931
   18SAPC   C11 2285   5.144   5.263  10.345  0.1290  0.1756  0.5124
   18SAPC  H11A 2286   5.130   5.287  10.453  0.2509 -3.5842  1.5160
   18SAPC  H11B 2287   5.114   5.157  10.334 -0.0179  0.1984  0.6939
   18SAPC     P 2288   5.114   5.498  10.234  0.1420 -0.7563 -0.4631
   18SAPC   O13 2289   5.017   5.552  10.136 -0.7431 -0.0383 -0.3904
   18SAPC   O14 2290   5.126   5.565  10.366 -0.1022 -0.1576  0.2777
   18SAPC   O12 2291   5.080   5.345  10.249  0.2001 -0.1809 -0.2771
   18SAPC   O11 2292   5.255   5.484  10.163 -0.0081  0.0165 -0.3793
   18SAPC    C1 2293   5.298   5.534  10.034  0.3519  0.5572  0.1481
   18SAPC    HA 2294   5.214   5.569   9.970 -0.9122 -0.5644  1.1311
   18SAPC    HB 2295   5.378   5.610  10.042  0.4558  0.5360 -0.5851
   18SAPC    C2 2296   5.358   5.420   9.950  0.0539  0.2151  0.7311
   18SAPC    HS 2297   5.452   5.386   9.999  1.3744 -0.5754 -2.1004
   18SAPC   O21 2298   5.392   5.469   9.819  0.1195  0.0712  0.0668
   18SAPC   C21 2299   5.508   5.428   9.762 -0.4933  0.2570 -0.0709
   18SAPC   O22 2300   5.592   5.357   9.815  0.4624 -0.2359 -0.0213
   18SAPC   C22 2301   5.522   5.495   9.634  1.3906  0.1428 -0.3939
   18SAPC   H2R 2302   5.580   5.590   9.638 -0.2457  1.2262 -1.2244
   18SAPC   H2S 2303   5.592   5.430   9.578  0.2768 -1.5488  0.1043
   18SAPC    C3 2304   5.269   5.288   9.946 -0.6993  0.6322  0.2169
   18SAPC    HX 2305   5.188   5.310   9.874 -0.2401 -0.3828 -0.6232
   18SAPC    HY 2306   5.227   5.262  10.046 -1.2611  3.1182  0.7054
   18SAPC   O31 2307   5.337   5.181   9.885  0.0980 -0.0196  0.1186
   18SAPC   C31 2308   5.429   5.123   9.954  0.1503  0.2569 -0.6805
   18SAPC   O32 2309   5.468   5.153  10.066 -0.5980 -0.0614 -0.1240
   18SAPC   C32 2310   5.473   4.995   9.877  0.1206 -0.0381 -0.1070
   18SAPC   H2X 2311   5.383   4.930   9.866  1.5364 -2.0037 -0.6887
   18SAPC   H2Y 2312   5.557   4.943   9.928  2.1862  0.9154 -2.3754
   18SAPC   C23 2313   5.385   5.498   9.560  0.6285 -0.5102  0.7368
   18SAPC   H3R 2314   5.405   5.552   9.465  2.4963 -0.7857  0.9362
   18SAPC   H3S 2315   5.306   5.552   9.616  0.3640 -1.8699  1.7109
   18SAPC   C24 2316   5.339   5.353   9.522  0.6754  0.0823 -0.3186
   18SAPC   H4R 2317   5.233   5.353   9.489  0.7480 -0.1846 -0.5604
   18SAPC   H4S 2318   5.340   5.292   9.615 -1.1658  3.4280  2.1073
   18SAPC   C25 2319   5.414   5.286   9.408  0.0154 -0.0214  0.3628
   18SAPC   H5R 2320   5.504   5.229   9.433 -0.3626 -1.3602 -1.1250
   18SAPC   C26 2321   5.392   5.298   9.277 -0.3809  0.2428  0.3810
   18SAPC   H6R 2322   5.463   5.248   9.209 -1.6608 -0.5917 -0.3958
   18SAPC   C27 2323   5.286   5.371   9.201 -0.5470  0.1498 -0.3774
   18SAPC   H7R 2324   5.272   5.463   9.260 -1.0867  0.1687 -0.5304
   18SAPC   H7S 2325   5.187   5.320   9.206 -0.0867 -0.7589 -0.3068
   18SAPC   C28 2326   5.324   5.401   9.054  0.2952  0.4333  0.0891
   18SAPC   H8R 2327   5.381   5.493   9.034  0.0198  0.5694 -0.0831
   18SAPC   C29 2328   5.303   5.332   8.938 -0.2576  1.0714 -0.3288
   18SAPC   H9R 2329   5.320   5.369   8.835  0.6848  0.7878 -0.2806
   18SAPC  C210 2330   5.234   5.199   8.930  0.0436  0.8424  0.3298
   18SAPC  H10R 2331   5.245   5.137   9.021  1.2392  0.9525  0.2808
   18SAPC  H10S 2332   5.279   5.133   8.853 -1.1160  0.3857  0.0226
   18SAPC  C211 2333   5.088   5.203   8.892  0.9112 -0.1407 -0.6636
   18SAPC  H11R 2334   5.030   5.260   8.966  1.7591 -0.9360  0.6531
   18SAPC  C212 2335   5.031   5.159   8.774 -0.4722 -0.1035  0.0592
   18SAPC  H12R 2336   4.921   5.155   8.772 -0.5253  0.4410  1.1550
   18SAPC  C213 2337   5.087   5.088   8.650  0.1485 -0.3828 -0.6742
   18SAPC  H13R 2338   4.999   5.049   8.596 -0.7050  2.1747 -1.2731
   18SAPC  H13S 2339   5.143   4.999   8.686  1.5223  0.8671  0.4179
   18SAPC  C214 2340   5.175   5.179   8.561  0.3324  0.6483  0.1876
   18SAPC  H14R 2341   5.281   5.152   8.573  0.0281 -1.7879 -1.8982
   18SAPC  C215 2342   5.141   5.287   8.490  0.0483  0.0210  0.4797
   18SAPC  H15R 2343   5.224   5.330   8.431  1.2798 -2.1937  0.5214
   18SAPC  C216 2344   5.010   5.359   8.482  0.3272 -0.1516  0.3867
   18SAPC  H16R 2345   5.017   5.450   8.545  1.0768  0.0376  0.0461
   18SAPC  H16S 2346   4.933   5.303   8.540 -0.8574 -1.0351 -1.9046
   18SAPC  C217 2347   4.949   5.404   8.351 -0.1588 -0.3222  0.0297
   18SAPC  H17R 2348   4.875   5.327   8.321 -0.9233 -0.1493  1.4025
   18SAPC  H17S 2349   5.031   5.412   8.276  3.2292  1.5305  3.5445
   18SAPC  C218 2350   4.883   5.543   8.364  0.0952 -0.5188 -0.7693
   18SAPC  H18R 2351   4.938   5.615   8.429 -0.4614 -1.3125  0.6439
   18SAPC  H18S 2352   4.784   5.534   8.413  1.0450 -0.0942  1.3561
   18SAPC  C219 2353   4.852   5.608   8.228 -0.1056 -0.0214 -0.4258
   18SAPC  H19R 2354   4.787   5.697   8.241  3.0150  2.5179 -0.9572
   18SAPC  H19S 2355   4.785   5.535   8.177 -2.5124  3.2494 -2.3078
   18SAPC  C220 2356   4.973   5.649   8.146  0.0771 -0.4075 -0.2823
   18SAPC  H20R 2357   5.037   5.724   8.196  1.7865 -2.6327  1.0777
   18SAPC  H20S 2358   4.934   5.681   8.046 -0.9571 -1.3834 -0.2157
   18SAPC  H20T 2359   5.037   5.559   8.132  0.7631 -0.0031  0.2212
   18SAPC   C33 2360   5.521   5.037   9.734  0.5429 -0.7809  0.3095
   18SAPC   H3X 2361   5.619   5.090   9.733  0.0040  0.2366  0.2850
   18SAPC   H3Y 2362   5.450   5.115   9.699  1.2408  1.0384  2.6604
   18SAPC   C34 2363   5.514   4.917   9.637 -0.1505  0.0329 -0.3340
   18SAPC   H4X 2364   5.413   4.890   9.598  0.5663  0.7073 -2.8522
   18SAPC   H4Y 2365   5.528   4.833   9.709 -1.2135  2.1006  2.4637
   18SAPC   C35 2366   5.624   4.939   9.534  0.4526 -0.7575 -0.2907
   18SAPC   H5X 2367   5.717   4.910   9.587 -0.2173  1.4499  2.3522
   18SAPC   H5Y 2368   5.621   5.044   9.498 -1.3644 -1.5673 -2.7465
   18SAPC   C36 2369   5.593   4.853   9.423  0.0040  0.1428  0.0686
   18SAPC   H6X 2370   5.532   4.763   9.448 -0.6600 -0.0747 -2.1242
   18SAPC   H6Y 2371   5.687   4.823   9.372 -0.0891  1.6790 -1.0771
   18SAPC   C37 2372   5.508   4.929   9.311  0.4071 -0.7693 -0.1431
   18SAPC   H7X 2373   5.577   5.011   9.279  0.1713 -0.3992  0.2793
   18SAPC   H7Y 2374   5.416   4.972   9.355  0.7939  0.2245 -0.2742
   18SAPC   C38 2375   5.483   4.829   9.200  0.0436 -0.0092 -0.3281
   18SAPC   H8X 2376   5.423   4.746   9.243 -0.3324  0.0573 -0.7218
   18SAPC   H8Y 2377   5.573   4.774   9.165  0.9806 -0.0024  1.8663
   18SAPC   C39 2378   5.416   4.899   9.085 -0.4244  0.6570 -0.1074
   18SAPC   H9X 2379   5.491   4.947   9.018  0.3530 -2.0937 -1.3731
   18SAPC   H9Y 2380   5.350   4.975   9.131 -0.2173  1.0139 -0.3909
   18SAPC  C310 2381   5.334   4.796   9.001 -0.5663  0.0735 -0.7904
   18SAPC  H10X 2382   5.236   4.792   9.053  0.5138  0.0812  1.3354
   18SAPC  H10Y 2383   5.389   4.700   9.000 -0.3170  0.2172 -0.8909
   18SAPC  C311 2384   5.305   4.843   8.859 -0.6566  0.5798  0.0131
   18SAPC  H11X 2385   5.257   4.941   8.877  0.6151  0.6913  3.6457
   18SAPC  H11Y 2386   5.234   4.771   8.813  0.1361  0.7316 -1.4962
   18SAPC  C312 2387   5.422   4.847   8.758  0.0064 -0.0309 -0.3812
   18SAPC  H12X 2388   5.470   4.746   8.760  2.5147  1.0776 -0.6259
   18SAPC  H12Y 2389   5.490   4.932   8.780 -0.5942  0.4476 -0.3694
   18SAPC  C313 2390   5.372   4.861   8.616  0.7043 -0.3949  0.3605
   18SAPC  H13X 2391   5.347   4.966   8.590 -1.6587 -0.9828  0.0645
   18SAPC  H13Y 2392   5.283   4.795   8.616  0.4214 -0.1172 -2.1505
   18SAPC  C314 2393   5.465   4.804   8.510  0.0369  0.2307 -0.1273
   18SAPC  H14X 2394   5.461   4.693   8.505 -0.6848  0.2961 -1.5912
   18SAPC  H14Y 2395   5.565   4.843   8.538 -0.0742 -0.0440  0.6665
   18SAPC  C315 2396   5.435   4.849   8.362 -0.0604  0.5063 -0.2893
   18SAPC  H15X 2397   5.521   4.809   8.303  1.0555 -1.6351  2.5265
   18SAPC  H15Y 2398   5.432   4.959   8.369  0.3674  0.4427  1.5351
   18SAPC  C316 2399   5.296   4.800   8.309  0.4132 -0.6784 -0.2907
   18SAPC  H16X 2400   5.225   4.837   8.386  0.2705 -1.0573 -0.2348
   18SAPC  H16Y 2401   5.300   4.689   8.301  0.8930 -0.7355  0.6141
   18SAPC  C317 2402   5.257   4.863   8.169  0.3491  0.2762 -0.2827
   18SAPC  H17X 2403   5.259   4.973   8.187 -2.6857  0.0433  2.2187
   18SAPC  H17Y 2404   5.151   4.842   8.143  0.2249  0.7800 -0.1912
   18SAPC  C318 2405   5.345   4.810   8.058  0.6581 -0.0565 -1.0948
   18SAPC  H18X 2406   5.450   4.816   8.094  0.8824  0.2249 -1.7587
   18SAPC  H18Y 2407   5.361   4.876   7.969  0.7051 -0.9163 -1.7387
   18SAPC  H18Z 2408   5.321   4.710   8.015  3.3549 -0.1816 -2.5598
   19SAPC     N 2409   3.489   5.269  10.434  0.3295  0.2424  0.3233
   19SAPC   C12 2410   3.353   5.320  10.472 -0.2676  0.3530 -1.1021
   19SAPC  H12A 2411   3.303   5.240  10.525 -0.0926 -0.0086 -1.4739
   19SAPC  H12B 2412   3.293   5.334  10.384 -1.6923 -2.8660 -0.7845
   19SAPC   C13 2413   3.561   5.223  10.558 -0.1125  0.9162  0.4515
   19SAPC  H13A 2414   3.629   5.144  10.531 -0.4456  1.7467 -3.2726
   19SAPC  H13B 2415   3.610   5.303  10.611  0.5373  1.4059 -0.8447
   19SAPC  H13C 2416   3.491   5.186  10.632 -0.5907  2.1723  0.6416
   19SAPC   C14 2417   3.464   5.151  10.340 -0.5845 -0.8768 -0.4106
   19SAPC  H14A 2418   3.550   5.086  10.348 -1.3142 -1.7901  0.1241
   19SAPC  H14B 2419   3.378   5.093  10.368  0.3829 -0.8868  3.0359
   19SAPC  H14C 2420   3.448   5.178  10.237 -1.4822 -0.6527 -0.2172
   19SAPC   C15 2421   3.563   5.378  10.359  0.4294 -0.2827 -1.0405
   19SAPC  H15A 2422   3.566   5.460  10.429  0.2489 -0.3500 -0.9541
   19SAPC  H15B 2423   3.666   5.351  10.338  1.1691  1.7658 -0.3283
   19SAPC  H15C 2424   3.514   5.419  10.272 -1.9074  1.4726  0.9773
   19SAPC   C11 2425   3.355   5.444  10.568  0.0025  0.1145  0.5932
   19SAPC  H11A 2426   3.418   5.427  10.659 -0.0609  0.8512  0.7809
   19SAPC  H11B 2427   3.253   5.452  10.610 -0.7157  0.9931 -1.2241
   19SAPC     P 2428   3.308   5.634  10.400  0.0801 -0.0347 -0.3078
   19SAPC   O13 2429   3.171   5.587  10.419 -0.0869  0.2150 -0.3227
   19SAPC   O14 2430   3.347   5.779  10.407  0.0351  0.1401 -0.2338
   19SAPC   O12 2431   3.399   5.564  10.504  0.3364  0.6403 -0.0880
   19SAPC   O11 2432   3.352   5.577  10.260 -0.1830  0.0272 -0.2061
   19SAPC    C1 2433   3.291   5.624  10.142  0.3675 -0.5859  0.7119
   19SAPC    HA 2434   3.210   5.699  10.161  1.1194  0.6851 -0.9015
   19SAPC    HB 2435   3.370   5.664  10.076  0.6456 -0.6052  1.0301
   19SAPC    C2 2436   3.215   5.511  10.068  0.1843 -0.1617  0.4443
   19SAPC    HS 2437   3.288   5.431  10.043 -0.2416 -0.8675  1.4284
   19SAPC   O21 2438   3.149   5.558   9.945  0.3798  0.0689 -0.3739
   19SAPC   C21 2439   3.241   5.571   9.846  0.1654 -0.3722 -0.5624
   19SAPC   O22 2440   3.355   5.524   9.856  0.1046  0.2912  0.8330
   19SAPC   C22 2441   3.190   5.638   9.721  0.0469  0.0317  0.6094
   19SAPC   H2R 2442   3.079   5.640   9.725 -0.0127  0.9954 -0.9544
   19SAPC   H2S 2443   3.230   5.741   9.728  2.3204 -0.8647  2.3186
   19SAPC    C3 2444   3.107   5.433  10.146 -0.0180 -0.0295  0.2659
   19SAPC    HX 2445   3.023   5.502  10.165  1.2667  1.3359  1.1459
   19SAPC    HY 2446   3.156   5.400  10.240 -1.8686 -0.3314  1.1590
   19SAPC   O31 2447   3.048   5.327  10.071  0.2003  0.0662  0.4003
   19SAPC   C31 2448   3.104   5.205  10.075  0.1786  0.8376  0.5843
   19SAPC   O32 2449   3.200   5.175  10.142  0.9080 -0.1040 -0.0947
   19SAPC   C32 2450   3.031   5.101   9.970 -0.6123  0.7619 -0.3565
   19SAPC   H2X 2451   2.985   5.028  10.039  1.3720  0.6340  0.9082
   19SAPC   H2Y 2452   3.113   5.051   9.914 -2.1505  0.5354 -2.5405
   19SAPC   C23 2453   3.242   5.557   9.604  0.2838 -0.2678  0.5286
   19SAPC   H3R 2454   3.240   5.447   9.615  0.5382 -0.3258 -0.0167
   19SAPC   H3S 2455   3.346   5.596   9.597  0.4638 -0.9430 -0.7388
   19SAPC   C24 2456   3.155   5.586   9.479  0.5484 -0.3386  0.3174
   19SAPC   H4R 2457   3.150   5.697   9.470  1.0583 -0.3534 -0.2005
   19SAPC   H4S 2458   3.056   5.549   9.512  0.9435 -2.1398 -0.4013
   19SAPC   C25 2459   3.209   5.511   9.362  0.5806  0.0363  0.4946
   19SAPC   H5R 2460   3.265   5.418   9.380  0.9217  0.2751  0.6628
   19SAPC   C26 2461   3.198   5.540   9.232 -0.3126 -0.5424 -0.4948
   19SAPC   H6R 2462   3.260   5.477   9.167  2.2721  0.8710  0.4418
   19SAPC   C27 2463   3.143   5.672   9.185 -0.0091  0.0418 -0.2921
   19SAPC   H7R 2464   3.185   5.756   9.245  0.4202 -1.3651  1.4585
   19SAPC   H7S 2465   3.034   5.680   9.204  0.2487  3.2155  0.4620
   19SAPC   C28 2466   3.197   5.726   9.048 -0.8518 -0.5595 -0.1605
   19SAPC   H8R 2467   3.307   5.725   9.045 -0.8709 -0.8698 -0.8481
   19SAPC   C29 2468   3.130   5.780   8.952  0.3906  0.3600  0.5953
   19SAPC   H9R 2469   3.193   5.811   8.868  0.4174  1.7380  1.0951
   19SAPC  C210 2470   2.984   5.828   8.954  0.3980 -0.3587 -0.5246
   19SAPC  H10R 2471   2.987   5.938   8.974  0.9107 -0.5599  0.5638
   19SAPC  H10S 2472   2.935   5.768   9.033  0.0907 -0.1940 -0.5883
   19SAPC  C211 2473   2.897   5.811   8.840 -0.0759 -0.3900  0.3857
   19SAPC  H11R 2474   2.808   5.748   8.852 -0.3924 -0.0645 -0.2062
   19SAPC  C212 2475   2.921   5.853   8.712 -0.0944  0.4867  0.1405
   19SAPC  H12R 2476   2.848   5.807   8.644  3.1157 -2.3779 -1.7013
   19SAPC  C213 2477   3.027   5.941   8.657  0.6127  0.2118  0.7469
   19SAPC  H13R 2478   3.108   5.878   8.613  1.0782  0.4459  1.2498
   19SAPC  H13S 2479   3.079   6.005   8.731  0.4485  0.5963  0.5351
   19SAPC  C214 2480   2.995   6.038   8.542 -0.1843 -0.2208  0.1263
   19SAPC  H14R 2481   2.998   6.145   8.567 -0.3268 -0.1720 -0.0620
   19SAPC  C215 2482   2.964   6.021   8.409 -0.4882 -0.5490  0.0421
   19SAPC  H15R 2483   2.950   6.107   8.342 -1.5031 -0.6251  0.1395
   19SAPC  C216 2484   2.951   5.886   8.342 -0.8160  0.0468 -0.0110
   19SAPC  H16R 2485   2.842   5.869   8.326 -0.9921  1.5280 -0.5167
   19SAPC  H16S 2486   3.006   5.811   8.403 -0.1207  0.2278 -0.4101
   19SAPC  C217 2487   3.025   5.870   8.199  0.5676 -0.2641 -0.2600
   19SAPC  H17R 2488   3.024   5.761   8.177 -3.6524 -0.2721 -0.7391
   19SAPC  H17S 2489   3.132   5.899   8.212 -0.3669  3.3336  0.4697
   19SAPC  C218 2490   2.959   5.938   8.083 -0.3755  0.2076 -0.0311
   19SAPC  H18R 2491   3.009   5.911   7.987 -0.9946 -1.0926 -0.0013
   19SAPC  H18S 2492   2.973   6.048   8.093  0.2876  0.3250 -1.8508
   19SAPC  C219 2493   2.809   5.910   8.069  0.5103 -0.7017  0.5594
   19SAPC  H19R 2494   2.762   5.973   8.147 -1.5800 -1.5825  0.0823
   19SAPC  H19S 2495   2.783   5.805   8.091 -0.8718 -0.3919  0.4913
   19SAPC  C220 2496   2.762   5.953   7.935  0.6158 -0.4467  0.4667
   19SAPC  H20R 2497   2.654   5.933   7.918  0.2210  1.3966  0.5333
   19SAPC  H20S 2498   2.806   5.880   7.865 -1.4506 -1.8406  0.5152
   19SAPC  H20T 2499   2.774   6.061   7.911  0.1512 -0.3008  0.8722
   19SAPC   C33 2500   2.933   5.164   9.873  0.0165  0.2813  0.0877
   19SAPC   H3X 2501   2.850   5.219   9.922  1.1819  0.2339  2.2437
   19SAPC   H3Y 2502   2.874   5.081   9.829  2.2296 -2.0322  1.2188
   19SAPC   C34 2503   3.001   5.233   9.753 -0.0900  0.4109 -0.0940
   19SAPC   H4X 2504   3.087   5.179   9.708  0.3206 -0.5339  1.7569
   19SAPC   H4Y 2505   3.044   5.331   9.785 -2.2584  1.3895  0.0018
   19SAPC   C35 2506   2.901   5.268   9.633 -0.2142  0.9390  0.3450
   19SAPC   H5X 2507   2.936   5.363   9.586 -0.3427  0.4083 -0.8654
   19SAPC   H5Y 2508   2.803   5.297   9.677 -1.5583  0.5055 -2.1832
   19SAPC   C36 2509   2.873   5.163   9.527 -0.7588  0.4262  0.5971
   19SAPC   H6X 2510   2.787   5.200   9.468 -1.5317 -1.2218  0.6499
   19SAPC   H6Y 2511   2.845   5.072   9.585 -0.0768  0.2400  0.6431
   19SAPC   C37 2512   2.997   5.116   9.446 -0.2251  0.5403 -0.1543
   19SAPC   H7X 2513   3.082   5.111   9.518 -0.6373  0.7842  0.3609
   19SAPC   H7Y 2514   3.011   5.180   9.357 -0.7691  1.0013  0.0813
   19SAPC   C38 2515   2.983   4.975   9.370  0.6922 -0.4912  0.1611
   19SAPC   H8X 2516   2.915   4.906   9.423  0.9191 -3.0454 -2.6108
   19SAPC   H8Y 2517   3.083   4.927   9.360  0.5240 -1.0555  1.0613
   19SAPC   C39 2518   2.916   4.982   9.228 -0.0956 -0.6872 -0.4714
   19SAPC   H9X 2519   2.968   5.046   9.155  1.2368  0.0379  1.0485
   19SAPC   H9Y 2520   2.817   5.032   9.239 -0.9047 -1.9915 -1.5459
   19SAPC  C310 2521   2.909   4.844   9.158 -0.1558 -0.2718  0.0872
   19SAPC  H10X 2522   2.865   4.763   9.220 -2.3179 -1.1856 -2.4426
   19SAPC  H10Y 2523   3.017   4.823   9.142  0.7430  2.0109  2.5107
   19SAPC  C311 2524   2.838   4.842   9.027  0.1761 -0.6182 -0.1567
   19SAPC  H11X 2525   2.874   4.931   8.973 -0.5138  0.0935  0.5271
   19SAPC  H11Y 2526   2.730   4.859   9.049  1.2107  2.8159  3.4318
   19SAPC  C312 2527   2.850   4.717   8.948 -0.0869 -0.9149  0.7614
   19SAPC  H12X 2528   2.796   4.636   9.002  0.2591 -1.0266  0.9418
   19SAPC  H12Y 2529   2.959   4.695   8.959 -0.1200 -0.1963  3.0678
   19SAPC  C313 2530   2.802   4.721   8.796  0.6521  0.0831 -0.5043
   19SAPC  H13X 2531   2.866   4.794   8.743  0.1371  0.0514 -1.1749
   19SAPC  H13Y 2532   2.700   4.759   8.774  0.3490 -0.4540 -0.0606
   19SAPC  C314 2533   2.826   4.582   8.735  0.7500  0.7108 -0.1251
   19SAPC  H14X 2534   2.757   4.511   8.785  1.1346  0.9781  0.8026
   19SAPC  H14Y 2535   2.926   4.550   8.771 -0.5487  0.2574  3.5060
   19SAPC  C315 2536   2.833   4.575   8.582  0.1588 -0.7249 -0.6638
   19SAPC  H15X 2537   2.919   4.636   8.547  1.0099 -1.8029 -0.5199
   19SAPC  H15Y 2538   2.741   4.619   8.538  0.9069  1.0759 -0.4853
   19SAPC  C316 2539   2.864   4.436   8.538 -0.2845  0.0198  0.0771
   19SAPC  H16X 2540   2.768   4.382   8.553 -0.9867  1.5295  1.2473
   19SAPC  H16Y 2541   2.923   4.391   8.620  0.2358  0.1279 -0.2327
   19SAPC  C317 2542   2.913   4.414   8.404  0.4654  0.0383 -0.7886
   19SAPC  H17X 2543   2.882   4.308   8.389 -1.4706 -0.2741  3.7374
   19SAPC  H17Y 2544   3.024   4.412   8.403  0.5369  1.8178 -0.2619
   19SAPC  C318 2545   2.875   4.509   8.289 -0.1056 -0.4925 -0.2926
   19SAPC  H18X 2546   2.767   4.507   8.267 -0.0301 -1.3075 -0.6076
   19SAPC  H18Y 2547   2.929   4.481   8.196  2.4385 -0.6990  1.1439
   19SAPC  H18Z 2548   2.903   4.613   8.318  2.7032 -1.7889  2.2228
   20SAPC     N 2549   4.855   2.772  10.877  0.6557 -0.3501  0.0868
   20SAPC   C12 2550   4.770   2.842  10.758  0.0868  0.3267  0.3276
   20SAPC  H12A 2551   4.821   2.819  10.665 -1.5111  1.7415 -0.9613
   20SAPC  H12B 2552   4.769   2.947  10.784  0.0814  0.6904 -1.0543
   20SAPC   C13 2553   5.000   2.811  10.847 -0.1124  0.6728  0.0145
   20SAPC  H13A 2554   5.038   2.776  10.752 -0.8966 -0.4195  0.0858
   20SAPC  H13B 2555   5.016   2.918  10.844 -1.9106  1.0071  1.1132
   20SAPC  H13C 2556   5.068   2.781  10.926 -0.5649  1.0385  0.5539
   20SAPC   C14 2557   4.804   2.828  11.003  0.1037  0.2365  0.4333
   20SAPC  H14A 2558   4.696   2.837  11.006  0.0573  0.1161 -0.5274
   20SAPC  H14B 2559   4.840   2.767  11.084  0.9042  0.4944  0.2797
   20SAPC  H14C 2560   4.850   2.923  11.026 -1.9672  0.9935  1.8333
   20SAPC   C15 2561   4.843   2.627  10.862  0.3991  0.7755  0.2499
   20SAPC  H15A 2562   4.747   2.594  10.898 -1.6661  2.6226 -2.9996
   20SAPC  H15B 2563   4.847   2.599  10.757  0.7196  0.1650  0.4243
   20SAPC  H15C 2564   4.930   2.579  10.905  1.3319  0.4914 -1.8105
   20SAPC   C11 2565   4.623   2.787  10.744  0.0879  0.0591 -0.5474
   20SAPC  H11A 2566   4.636   2.678  10.726  0.8345  0.3041 -1.5462
   20SAPC  H11B 2567   4.578   2.822  10.648 -1.4865 -1.2290 -0.3174
   20SAPC     P 2568   4.402   2.876  10.856 -0.3319  0.2146 -0.1770
   20SAPC   O13 2569   4.319   2.793  10.952  0.5302 -0.3671 -0.6115
   20SAPC   O14 2570   4.409   3.027  10.875  0.1460 -0.6777 -0.2191
   20SAPC   O12 2571   4.546   2.819  10.859 -0.1283  0.2054  0.6863
   20SAPC   O11 2572   4.360   2.854  10.706  0.4190 -0.2976 -0.1147
   20SAPC    C1 2573   4.316   2.949  10.614  0.1375  0.1908 -0.4657
   20SAPC    HA 2574   4.212   2.979  10.641 -0.3401 -0.3438 -1.6280
   20SAPC    HB 2575   4.380   3.039  10.611 -0.5365  0.6673 -1.0449
   20SAPC    C2 2576   4.308   2.909  10.457  0.1721 -0.3808  0.1124
   20SAPC    HS 2577   4.218   2.845  10.453  0.3664 -0.6289 -0.3286
   20SAPC   O21 2578   4.425   2.827  10.418  0.3119  0.0339 -0.1673
   20SAPC   C21 2579   4.417   2.700  10.460  0.2919 -0.0104 -0.5780
   20SAPC   O22 2580   4.323   2.644  10.510  0.1244  0.5536 -0.6537
   20SAPC   C22 2581   4.543   2.624  10.430 -0.2988  0.0651  0.1074
   20SAPC   H2R 2582   4.636   2.676  10.463 -0.1226 -2.1870  3.7774
   20SAPC   H2S 2583   4.542   2.530  10.490  1.5156  0.3509  0.6745
   20SAPC    C3 2584   4.287   3.030  10.371  0.1354 -0.2034  0.0137
   20SAPC    HX 2585   4.381   3.087  10.389  1.4517 -2.2358 -0.1053
   20SAPC    HY 2586   4.198   3.089  10.401  1.1189  1.4099 -0.1161
   20SAPC   O31 2587   4.273   2.983  10.238 -0.8160 -0.0423 -0.1313
   20SAPC   C31 2588   4.335   3.048  10.150  0.4407 -0.6820  0.7151
   20SAPC   O32 2589   4.397   3.153  10.163 -0.1227  0.0723 -0.1597
   20SAPC   C32 2590   4.286   2.995  10.011 -0.0620  0.1755 -0.1212
   20SAPC   H2X 2591   4.203   3.063   9.981 -0.5432 -0.0784  0.6218
   20SAPC   H2Y 2592   4.252   2.890  10.020  1.2951 -0.2640  0.2157
   20SAPC   C23 2593   4.547   2.585  10.282  0.3480  0.2926  0.1497
   20SAPC   H3R 2594   4.443   2.572  10.245 -0.5830 -0.0528  2.6806
   20SAPC   H3S 2595   4.600   2.487  10.282  0.1242  0.1672  0.4212
   20SAPC   C24 2596   4.633   2.687  10.206 -0.5392 -0.4211  0.0018
   20SAPC   H4R 2597   4.726   2.711  10.260  1.6523 -0.6341 -3.3507
   20SAPC   H4S 2598   4.579   2.784  10.201  0.3765  0.0438 -1.8270
   20SAPC   C25 2599   4.661   2.640  10.064  0.1985 -0.1744  0.2737
   20SAPC   H5R 2600   4.585   2.664   9.988 -0.7229 -2.5392  0.3784
   20SAPC   C26 2601   4.766   2.560  10.027 -0.5155 -0.3525  0.2404
   20SAPC   H6R 2602   4.783   2.546   9.920  0.6684 -2.1496  0.6157
   20SAPC   C27 2603   4.882   2.501  10.103 -0.6179 -0.4585  0.4522
   20SAPC   H7R 2604   4.888   2.545  10.205  0.2837  0.0343  0.1906
   20SAPC   H7S 2605   4.979   2.521  10.054 -0.5187 -1.5509  0.1778
   20SAPC   C28 2606   4.873   2.355  10.125  0.0385  0.2327 -0.1787
   20SAPC   H8R 2607   4.810   2.316  10.206  0.9908 -0.3766  0.2810
   20SAPC   C29 2608   4.935   2.260  10.053  0.2502  0.5960  0.9647
   20SAPC   H9R 2609   4.911   2.155  10.072 -1.4044  1.3477  3.5868
   20SAPC  C210 2610   5.029   2.283   9.941 -0.1098  0.9861  0.3877
   20SAPC  H10R 2611   5.121   2.226   9.965  0.1660  1.1571 -0.2411
   20SAPC  H10S 2612   5.050   2.391   9.928  0.2255  0.7982 -0.6890
   20SAPC  C211 2613   4.979   2.238   9.802 -0.6243  0.0547  0.4114
   20SAPC  H11R 2614   4.894   2.168   9.804 -0.0315 -0.6944  2.6777
   20SAPC  C212 2615   5.029   2.277   9.688  0.2667  0.0196 -0.0730
   20SAPC  H12R 2616   4.974   2.236   9.602  0.1420  1.1531 -0.5562
   20SAPC  C213 2617   5.145   2.366   9.662  0.0429 -0.1502  0.0736
   20SAPC  H13R 2618   5.210   2.327   9.581  1.2215  0.9450  0.4604
   20SAPC  H13S 2619   5.207   2.374   9.754 -0.9249  1.2204  0.6439
   20SAPC  C214 2620   5.100   2.510   9.644  0.6183  0.0062 -0.1746
   20SAPC  H14R 2621   5.001   2.536   9.683 -0.1056 -0.1591 -1.7993
   20SAPC  C215 2622   5.169   2.605   9.583 -0.2808 -0.0712  0.6138
   20SAPC  H15R 2623   5.134   2.709   9.572 -2.9832 -0.4715  3.6955
   20SAPC  C216 2624   5.308   2.591   9.524  0.1023 -0.9652  0.4831
   20SAPC  H16R 2625   5.316   2.647   9.428 -2.0371 -1.0336  0.2217
   20SAPC  H16S 2626   5.331   2.486   9.496  0.4439 -0.6800 -0.3343
   20SAPC  C217 2627   5.414   2.633   9.635  0.0700  0.0373 -0.7073
   20SAPC  H17R 2628   5.411   2.561   9.720 -1.1077  1.3337  0.3982
   20SAPC  H17S 2629   5.390   2.733   9.676 -1.6859  0.6765 -3.0829
   20SAPC  C218 2630   5.562   2.658   9.576  0.3150  0.4216  0.2224
   20SAPC  H18R 2631   5.547   2.731   9.494 -0.2352  0.6181  0.4924
   20SAPC  H18S 2632   5.598   2.565   9.526 -1.7538 -0.2667 -0.1202
   20SAPC  C219 2633   5.660   2.697   9.677  0.7327 -0.6128 -0.1551
   20SAPC  H19R 2634   5.629   2.649   9.772  1.4759 -1.7128 -0.4421
   20SAPC  H19S 2635   5.652   2.807   9.689 -0.8868 -0.8184  0.9719
   20SAPC  C220 2636   5.810   2.658   9.645 -0.1732  0.2552  0.2877
   20SAPC  H20R 2637   5.871   2.682   9.735  1.1761  2.3205 -1.0926
   20SAPC  H20S 2638   5.862   2.724   9.573  0.4235 -0.0505  0.4333
   20SAPC  H20T 2639   5.824   2.551   9.619 -1.4162 -0.4404  2.2051
   20SAPC   C33 2640   4.390   2.999   9.896  0.3897  0.4883  0.0365
   20SAPC   H3X 2641   4.449   3.093   9.892 -1.3431  1.6670  0.7399
   20SAPC   H3Y 2642   4.325   3.000   9.806 -1.5000  0.0009  1.3385
   20SAPC   C34 2643   4.473   2.875   9.909 -0.7774 -0.0534  0.0268
   20SAPC   H4X 2644   4.428   2.798   9.975  0.3681  0.8746  1.9845
   20SAPC   H4Y 2645   4.570   2.899   9.959  1.2840 -4.0180 -1.6617
   20SAPC   C35 2646   4.522   2.804   9.775  0.6510 -0.1108 -0.6972
   20SAPC   H5X 2647   4.612   2.741   9.791  0.3135 -0.5774 -0.6333
   20SAPC   H5Y 2648   4.546   2.895   9.716  1.6918  1.1241  1.4722
   20SAPC   C36 2649   4.411   2.714   9.727 -0.0018  0.1550 -0.1609
   20SAPC   H6X 2650   4.311   2.761   9.740 -0.4774 -0.9033  0.0936
   20SAPC   H6Y 2651   4.408   2.633   9.803  1.3766  1.7674  1.6889
   20SAPC   C37 2652   4.444   2.652   9.589  0.5032 -0.9042 -0.0140
   20SAPC   H7X 2653   4.361   2.579   9.573  0.0631 -0.5073  0.4378
   20SAPC   H7Y 2654   4.537   2.591   9.577 -0.5008 -2.0755 -2.4790
   20SAPC   C38 2655   4.437   2.760   9.482 -0.0811 -0.2629  0.6564
   20SAPC   H8X 2656   4.504   2.846   9.502  0.5833 -0.8103  0.8423
   20SAPC   H8Y 2657   4.334   2.799   9.481 -0.0994 -0.2861 -0.8298
   20SAPC   C39 2658   4.474   2.704   9.342 -0.3106  0.1905 -0.2835
   20SAPC   H9X 2659   4.577   2.661   9.342 -0.0493  0.7991 -1.1609
   20SAPC   H9Y 2660   4.468   2.791   9.274 -0.9976 -2.3489 -3.7541
   20SAPC  C310 2661   4.385   2.604   9.276  0.0333 -0.0805 -0.6726
   20SAPC  H10X 2662   4.285   2.646   9.300 -0.8534 -1.7952 -1.2093
   20SAPC  H10Y 2663   4.400   2.501   9.315  1.8909  0.1671 -0.6547
   20SAPC  C311 2664   4.399   2.589   9.119 -0.2267  0.2053  0.3190
   20SAPC  H11X 2665   4.503   2.561   9.093 -0.4417 -1.9014  1.4895
   20SAPC  H11Y 2666   4.365   2.675   9.058  1.1506 -0.1464 -1.0080
   20SAPC  C312 2667   4.326   2.463   9.073 -0.3163  0.4614  0.4966
   20SAPC  H12X 2668   4.217   2.462   9.097  0.1465 -1.2509  2.9163
   20SAPC  H12Y 2669   4.391   2.381   9.111  0.1318  1.2283  1.4173
   20SAPC  C313 2670   4.328   2.428   8.925  0.3632 -0.3493  0.2889
   20SAPC  H13X 2671   4.288   2.326   8.911  1.4610 -0.4410 -3.2018
   20SAPC  H13Y 2672   4.435   2.420   8.895  0.6214  2.8004 -0.0270
   20SAPC  C314 2673   4.268   2.517   8.826 -0.7990 -1.2725  0.1974
   20SAPC  H14X 2674   4.303   2.620   8.845 -1.8295 -0.7520 -0.6810
   20SAPC  H14Y 2675   4.158   2.525   8.830 -0.8052  4.0503 -2.5247
   20SAPC  C315 2676   4.310   2.476   8.682  0.0091  0.2093  0.1938
   20SAPC  H15X 2677   4.270   2.374   8.664  0.3050 -0.1955  1.7101
   20SAPC  H15Y 2678   4.421   2.464   8.682  0.1967  1.6290  1.7095
   20SAPC  C316 2679   4.254   2.575   8.583 -0.4511 -0.4824 -0.4131
   20SAPC  H16X 2680   4.285   2.679   8.608  0.4104 -0.7854 -0.1916
   20SAPC  H16Y 2681   4.143   2.583   8.590 -0.2764  1.6758  0.7092
   20SAPC  C317 2682   4.293   2.546   8.442  0.1091 -0.0542  0.6795
   20SAPC  H17X 2683   4.258   2.441   8.436 -1.2276  0.4142 -0.2863
   20SAPC  H17Y 2684   4.403   2.555   8.429  0.0177  4.4699  1.2337
   20SAPC  C318 2685   4.235   2.650   8.346 -0.1844  0.7346 -0.1654
   20SAPC  H18X 2686   4.265   2.626   8.242  0.4741 -1.3504  0.4382
   20SAPC  H18Y 2687   4.278   2.745   8.385 -2.6059  1.1057  1.8449
   20SAPC  H18Z 2688   4.124   2.651   8.349 -0.1751  1.4787  0.2854
   21SAPC     N 2689   4.769   1.433  10.922 -0.7255  0.2591  0.2522
   21SAPC   C12 2690   4.843   1.375  10.800  0.0946 -0.0849  0.2400
   21SAPC  H12A 2691   4.894   1.288  10.838 -1.6030 -1.9830 -1.5297
   21SAPC  H12B 2692   4.918   1.434  10.749 -0.4141 -1.9912 -3.0851
   21SAPC   C13 2693   4.712   1.571  10.887 -0.5592  0.2621 -0.4998
   21SAPC  H13A 2694   4.790   1.642  10.863 -0.5581  0.7080  0.7506
   21SAPC  H13B 2695   4.647   1.564  10.801  1.1010 -0.1239 -1.7761
   21SAPC  H13C 2696   4.658   1.616  10.969 -1.1938 -2.8543  0.9213
   21SAPC   C14 2697   4.654   1.346  10.963  1.0353  0.0699 -0.2756
   21SAPC  H14A 2698   4.603   1.387  11.050 -0.5281 -0.2189 -1.0258
   21SAPC  H14B 2699   4.590   1.349  10.876  1.2715 -1.1283 -0.5015
   21SAPC  H14C 2700   4.677   1.241  10.969 -2.0282 -0.6603  0.5834
   21SAPC   C15 2701   4.866   1.445  11.034 -0.0959  0.3260 -0.4916
   21SAPC  H15A 2702   4.943   1.520  11.022  1.5920 -0.7827  2.3418
   21SAPC  H15B 2703   4.808   1.472  11.121 -1.5733  0.0922 -1.3740
   21SAPC  H15C 2704   4.920   1.352  11.045  1.0801  0.5892 -3.2743
   21SAPC   C11 2705   4.758   1.328  10.681  0.3125  0.4143  0.4607
   21SAPC  H11A 2706   4.824   1.312  10.594 -0.6281  0.2354 -0.2301
   21SAPC  H11B 2707   4.696   1.417  10.653  0.6125 -0.1744 -2.3154
   21SAPC     P 2708   4.738   1.071  10.722  0.2682 -0.1771 -0.2087
   21SAPC   O13 2709   4.870   1.053  10.649 -0.3617 -0.4106 -0.6904
   21SAPC   O14 2710   4.732   1.034  10.864 -0.0777 -0.0140  0.3758
   21SAPC   O12 2711   4.681   1.214  10.705  0.2230  0.8824 -0.1652
   21SAPC   O11 2712   4.634   0.984  10.645  0.1458  0.2001 -0.2091
   21SAPC    C1 2713   4.491   1.003  10.662  1.2416 -0.6797  0.5254
   21SAPC    HA 2714   4.444   0.913  10.707 -0.1230 -0.1801  0.1399
   21SAPC    HB 2715   4.470   1.081  10.738  1.3796 -0.5277  0.4096
   21SAPC    C2 2716   4.418   1.035  10.532 -0.5214 -0.2887  0.2709
   21SAPC    HS 2717   4.309   1.030  10.553 -0.8222 -3.0159 -1.4960
   21SAPC   O21 2718   4.452   0.929  10.435 -0.1485 -0.2176  0.4689
   21SAPC   C21 2719   4.372   0.828  10.426 -0.0492  0.1003  0.1259
   21SAPC   O22 2720   4.274   0.806  10.493 -0.0888  0.0977 -0.2356
   21SAPC   C22 2721   4.422   0.745  10.305  0.4275  0.5948  0.3421
   21SAPC   H2R 2722   4.383   0.791  10.212 -1.2808 -0.0930  0.6737
   21SAPC   H2S 2723   4.532   0.730  10.302  0.5896  1.5551  0.9347
   21SAPC    C3 2724   4.451   1.177  10.473  0.0473  0.6740  0.0554
   21SAPC    HX 2725   4.562   1.186  10.477  0.7011 -2.4984 -4.3371
   21SAPC    HY 2726   4.419   1.258  10.543  2.4777  2.0419 -0.2897
   21SAPC   O31 2727   4.398   1.200  10.341 -0.3955 -0.3390 -0.3362
   21SAPC   C31 2728   4.490   1.241  10.251  0.1840  0.1917 -0.5323
   21SAPC   O32 2729   4.603   1.279  10.271 -0.2296  0.3695 -0.3132
   21SAPC   C32 2730   4.425   1.217  10.112  0.1351 -0.3769 -0.0001
   21SAPC   H2X 2731   4.483   1.269  10.034 -0.4379  0.6706  0.2463
   21SAPC   H2Y 2732   4.327   1.269  10.115  0.1775  0.0304 -3.0659
   21SAPC   C23 2733   4.344   0.610  10.296 -0.1983 -0.0389  0.3746
   21SAPC   H3R 2734   4.236   0.627  10.320  0.3425  3.5710  0.7003
   21SAPC   H3S 2735   4.382   0.531  10.365  0.1391 -0.7599 -0.6152
   21SAPC   C24 2736   4.359   0.536  10.158  0.7345 -0.0733  0.9960
   21SAPC   H4R 2737   4.311   0.609  10.090 -0.3682  0.4462  2.2829
   21SAPC   H4S 2738   4.297   0.445  10.174 -0.8087  0.7106 -0.2379
   21SAPC   C25 2739   4.500   0.494  10.124  0.6124 -0.8239 -0.3122
   21SAPC   H5R 2740   4.544   0.430  10.202 -1.6374 -2.0662  0.0206
   21SAPC   C26 2741   4.577   0.546  10.025  0.2836  0.1496 -0.1929
   21SAPC   H6R 2742   4.675   0.500  10.006 -0.6761 -2.7402  1.3488
   21SAPC   C27 2743   4.520   0.645   9.931  0.1330  0.5119  0.0063
   21SAPC   H7R 2744   4.605   0.708   9.896  1.8645 -2.0875 -0.8139
   21SAPC   H7S 2745   4.461   0.727   9.978  0.7197  1.2455 -0.4989
   21SAPC   C28 2746   4.443   0.585   9.806  0.1843  0.1006  0.5696
   21SAPC   H8R 2747   4.351   0.526   9.819 -0.5691  1.3117  0.8072
   21SAPC   C29 2748   4.479   0.614   9.677 -0.3990  0.2843  0.1393
   21SAPC   H9R 2749   4.422   0.574   9.592  0.6410  0.5967 -0.7225
   21SAPC  C210 2750   4.597   0.691   9.630  0.3191 -0.0269 -1.2016
   21SAPC  H10R 2751   4.679   0.618   9.612 -0.5819 -1.6303  0.8705
   21SAPC  H10S 2752   4.634   0.761   9.708  0.0802 -1.9080  0.6666
   21SAPC  C211 2753   4.581   0.784   9.511 -0.1226 -0.2095  0.8415
   21SAPC  H11R 2754   4.499   0.855   9.497  0.6785  0.2484 -2.5485
   21SAPC  C212 2755   4.659   0.777   9.400 -0.2357 -0.0919  0.2527
   21SAPC  H12R 2756   4.630   0.844   9.318 -2.6012 -2.2756 -0.8155
   21SAPC  C213 2757   4.776   0.689   9.369  0.3273 -0.4347  0.1844
   21SAPC  H13R 2758   4.735   0.588   9.346  1.4542 -0.5121 -1.6344
   21SAPC  H13S 2759   4.834   0.689   9.464 -1.2253 -0.6505  1.1684
   21SAPC  C214 2760   4.872   0.742   9.264  0.1571 -0.7205  0.5706
   21SAPC  H14R 2761   4.940   0.825   9.290  1.5121 -1.1214 -1.4644
   21SAPC  C215 2762   4.879   0.705   9.134 -0.8117 -0.1159  0.1329
   21SAPC  H15R 2763   4.945   0.765   9.069 -0.6615 -0.3490  0.0699
   21SAPC  C216 2764   4.779   0.617   9.064  0.0262 -0.3474 -0.5114
   21SAPC  H16R 2765   4.699   0.566   9.123 -1.1457 -0.6860 -2.3154
   21SAPC  H16S 2766   4.833   0.543   9.001 -0.6318  2.2563 -4.4539
   21SAPC  C217 2767   4.704   0.702   8.956  0.1357 -0.3910  0.6577
   21SAPC  H17R 2768   4.617   0.764   8.987 -0.3630 -1.3435  1.2034
   21SAPC  H17S 2769   4.648   0.625   8.898 -0.1455  0.3391 -0.0572
   21SAPC  C218 2770   4.804   0.776   8.859  0.0653 -0.5496 -0.2403
   21SAPC  H18R 2771   4.892   0.713   8.836  1.6107  1.4126 -0.0018
   21SAPC  H18S 2772   4.827   0.868   8.918 -4.0113  1.9358 -2.0651
   21SAPC  C219 2773   4.722   0.799   8.734 -0.2755  0.1858 -0.5205
   21SAPC  H19R 2774   4.629   0.854   8.760  0.0017  0.5467 -0.2797
   21SAPC  H19S 2775   4.699   0.698   8.693 -1.4511  0.3366 -0.2836
   21SAPC  C220 2776   4.798   0.883   8.633 -0.2126 -0.2010 -0.1756
   21SAPC  H20R 2777   4.830   0.983   8.670  0.4719 -0.5598  0.2222
   21SAPC  H20S 2778   4.734   0.902   8.544 -0.0437 -0.7752 -0.4195
   21SAPC  H20T 2779   4.878   0.816   8.597 -3.5215 -4.1401 -0.8753
   21SAPC   C33 2780   4.413   1.068  10.069 -0.2937 -0.4506 -1.0625
   21SAPC   H3X 2781   4.337   1.051   9.989  0.0091 -0.7441 -1.2937
   21SAPC   H3Y 2782   4.372   1.013  10.156  1.4746  1.4917  1.1223
   21SAPC   C34 2783   4.553   1.020  10.030  0.4102 -0.2650 -0.4922
   21SAPC   H4X 2784   4.570   0.910  10.024 -1.5183 -0.8237  2.1866
   21SAPC   H4Y 2785   4.620   1.059  10.111 -0.0256  0.2245 -0.3646
   21SAPC   C35 2786   4.614   1.079   9.899 -0.0592  0.5711 -0.4225
   21SAPC   H5X 2787   4.714   1.040   9.871 -0.5832 -1.2634  0.0919
   21SAPC   H5Y 2788   4.631   1.187   9.914  1.1062  0.4420 -0.7281
   21SAPC   C36 2789   4.529   1.032   9.780 -1.0023  0.4971  0.4435
   21SAPC   H6X 2790   4.424   1.063   9.797 -1.2101  0.0715 -0.0427
   21SAPC   H6Y 2791   4.525   0.921   9.776 -0.1113  0.4738 -0.6163
   21SAPC   C37 2792   4.565   1.090   9.642 -0.4179  0.4864 -0.0177
   21SAPC   H7X 2793   4.495   1.045   9.568 -0.3052 -0.5286  0.4820
   21SAPC   H7Y 2794   4.666   1.057   9.609 -0.3653 -1.9149  2.2403
   21SAPC   C38 2795   4.566   1.246   9.642 -0.2942  0.1888 -0.2668
   21SAPC   H8X 2796   4.618   1.286   9.732  0.3785 -2.9211  0.8537
   21SAPC   H8Y 2797   4.458   1.268   9.652 -0.8821 -0.6151 -3.5978
   21SAPC   C39 2798   4.619   1.297   9.509 -0.4803 -0.3833 -0.3374
   21SAPC   H9X 2799   4.729   1.286   9.510 -0.4643 -0.2276  0.2031
   21SAPC   H9Y 2800   4.606   1.407   9.500  0.1361 -0.4494 -2.6019
   21SAPC  C310 2801   4.561   1.238   9.380 -0.5293 -0.1355  0.0423
   21SAPC  H10X 2802   4.451   1.227   9.392 -0.2632 -3.1745  0.2994
   21SAPC  H10Y 2803   4.599   1.134   9.380  0.5223  0.2072  1.6320
   21SAPC  C311 2804   4.606   1.302   9.253  0.5277  0.5247 -0.1494
   21SAPC  H11X 2805   4.717   1.297   9.252  0.5962  1.7008 -1.2074
   21SAPC  H11Y 2806   4.586   1.411   9.246 -1.9879  0.0353 -1.5801
   21SAPC  C312 2807   4.541   1.239   9.127 -0.1078 -0.0475  0.1866
   21SAPC  H12X 2808   4.544   1.304   9.037 -0.6755 -1.1241 -0.6362
   21SAPC  H12Y 2809   4.436   1.209   9.147 -0.1299 -0.0838  0.0199
   21SAPC  C313 2810   4.621   1.114   9.087  0.4181 -0.0138 -0.4384
   21SAPC  H13X 2811   4.564   1.075   9.000 -1.4770  0.2771  0.6199
   21SAPC  H13Y 2812   4.605   1.023   9.149  0.9297 -0.4684 -0.9628
   21SAPC  C314 2813   4.770   1.137   9.050  0.1970  0.3584  0.2274
   21SAPC  H14X 2814   4.806   1.033   9.032 -1.8953 -0.4637  0.5732
   21SAPC  H14Y 2815   4.842   1.169   9.129  0.7386 -0.2116 -0.0272
   21SAPC  C315 2816   4.796   1.213   8.918  0.2003 -0.2505 -0.1991
   21SAPC  H15X 2817   4.769   1.320   8.931  2.1204  0.1835  0.5100
   21SAPC  H15Y 2818   4.734   1.177   8.833  0.2525  1.7714 -1.1511
   21SAPC  C316 2819   4.941   1.205   8.872 -0.1861 -0.3728 -0.6491
   21SAPC  H16X 2820   4.967   1.102   8.839  1.2360  0.1676 -1.3006
   21SAPC  H16Y 2821   5.010   1.234   8.954 -0.3254 -1.2369 -0.2167
   21SAPC  C317 2822   4.959   1.301   8.755 -1.0287 -0.8625  0.9315
   21SAPC  H17X 2823   5.067   1.322   8.748 -0.9896 -0.1918  2.7605
   21SAPC  H17Y 2824   4.927   1.407   8.770  1.0763  0.2782 -1.9078
   21SAPC  C318 2825   4.922   1.241   8.616  0.1317  0.7862  0.1906
   21SAPC  H18X 2826   4.824   1.189   8.611  1.3283 -1.6411  0.3426
   21SAPC  H18Y 2827   4.993   1.160   8.588 -0.6697 -0.4232  1.4874
   21SAPC  H18Z 2828   4.924   1.327   8.546 -0.5523  1.4025  0.9079
   22SAPC     N 2829   4.333   0.263  10.949 -0.4466  0.0431 -0.1959
   22SAPC   C12 2830   4.395   0.125  10.967 -0.3757  0.2456  0.8551
   22SAPC  H12A 2831   4.338   0.062  10.900  1.3984 -0.0224 -0.5049
   22SAPC  H12B 2832   4.382   0.081  11.065 -0.1925  0.3492  0.9266
   22SAPC   C13 2833   4.350   0.317  10.811  0.4397  0.1438  0.5813
   22SAPC  H13A 2834   4.332   0.249  10.729  0.8788 -0.2608  0.8171
   22SAPC  H13B 2835   4.292   0.407  10.799 -2.4424 -1.6169  0.3796
   22SAPC  H13C 2836   4.453   0.348  10.799 -0.0071  1.4697  0.0268
   22SAPC   C14 2837   4.183   0.250  10.975 -0.8722 -0.0428  0.5008
   22SAPC  H14A 2838   4.167   0.224  11.079  1.9060  0.1418  1.0539
   22SAPC  H14B 2839   4.139   0.348  10.967  2.4975  1.5295 -0.5173
   22SAPC  H14C 2840   4.133   0.176  10.913  0.1867  0.5793 -1.1548
   22SAPC   C15 2841   4.375   0.365  11.049 -0.7956 -0.7319  0.5064
   22SAPC  H15A 2842   4.323   0.459  11.036 -0.0359 -0.3281  0.3278
   22SAPC  H15B 2843   4.370   0.325  11.150  0.8210  1.2919  1.4737
   22SAPC  H15C 2844   4.479   0.384  11.027 -0.6322 -0.7628  1.2174
   22SAPC   C11 2845   4.547   0.096  10.909 -0.0138 -0.1133  1.1804
   22SAPC  H11A 2846   4.571  -0.005  10.948  0.9699 -0.8948 -1.2695
   22SAPC  H11B 2847   4.607   0.176  10.958 -1.1451  0.9967  0.8103
   22SAPC     P 2848   4.553  -0.017  10.674 -0.4123 -0.5464 -0.3180
   22SAPC   O13 2849   4.697  -0.053  10.653  0.4069 -0.4391 -0.2399
   22SAPC   O14 2850   4.468  -0.119  10.740 -0.2571 -0.0497 -0.0017
   22SAPC   O12 2851   4.550   0.110  10.765  0.8679 -0.0801  0.1827
   22SAPC   O11 2852   4.487   0.026  10.533  0.1574  0.1541  0.0726
   22SAPC    C1 2853   4.460   0.165  10.496  0.2070  0.1478  0.7260
   22SAPC    HA 2854   4.361   0.207  10.524  0.4515  2.2858 -1.3306
   22SAPC    HB 2855   4.531   0.239  10.538 -0.0248  1.2118 -0.6675
   22SAPC    C2 2856   4.468   0.169  10.343  0.1258  0.1352  1.2564
   22SAPC    HS 2857   4.440   0.274  10.321 -3.7844 -0.8777  0.6478
   22SAPC   O21 2858   4.369   0.073  10.278  0.1839 -1.1725  0.4213
   22SAPC   C21 2859   4.239   0.107  10.293 -0.0022 -0.1142 -0.3863
   22SAPC   O22 2860   4.201   0.208  10.348  0.1750 -1.0118 -0.3534
   22SAPC   C22 2861   4.151  -0.007  10.238  0.2750 -0.1076  0.1322
   22SAPC   H2R 2862   4.143   0.007  10.129  0.0844  0.7122  0.2393
   22SAPC   H2S 2863   4.203  -0.103  10.260 -0.3160 -0.2544  0.9228
   22SAPC    C3 2864   4.609   0.139  10.295  0.3228 -0.4040  0.2702
   22SAPC    HX 2865   4.625   0.029  10.304 -0.0371 -0.4795  0.0539
   22SAPC    HY 2866   4.679   0.188  10.366  1.7484 -1.0705 -0.6238
   22SAPC   O31 2867   4.628   0.180  10.156  0.2922 -0.1065 -0.1217
   22SAPC   C31 2868   4.753   0.164  10.123  0.3079 -0.1365 -0.1712
   22SAPC   O32 2869   4.842   0.145  10.198  0.3763  0.1097 -0.4064
   22SAPC   C32 2870   4.772   0.192   9.977 -0.9719 -0.5461  0.2798
   22SAPC   H2X 2871   4.687   0.253   9.938 -0.2851  0.1784 -0.1097
   22SAPC   H2Y 2872   4.772   0.090   9.932  1.8137 -1.2656  1.7006
   22SAPC   C23 2873   4.010   0.008  10.289  0.4818 -0.7102  0.1578
   22SAPC   H3R 2874   3.982   0.115  10.296  2.3352  0.0085 -2.0588
   22SAPC   H3S 2875   3.998  -0.026  10.394 -4.0341 -0.5079 -0.1106
   22SAPC   C24 2876   3.915  -0.055  10.190  0.2512  0.5512  0.4407
   22SAPC   H4R 2877   3.923  -0.016  10.087  2.5902  1.3754  0.8870
   22SAPC   H4S 2878   3.813  -0.020  10.220 -0.2337 -0.4670  0.0332
   22SAPC   C25 2879   3.919  -0.201  10.198 -1.2235  0.0947 -0.0786
   22SAPC   H5R 2880   3.917  -0.248  10.297 -0.3695 -4.3530 -1.9534
   22SAPC   C26 2881   3.946  -0.285  10.094 -0.1426  0.7306  0.3411
   22SAPC   H6R 2882   3.936  -0.393  10.111 -1.5242  0.9528  1.0881
   22SAPC   C27 2883   3.972  -0.238   9.949 -0.0537 -0.0025 -0.4701
   22SAPC   H7R 2884   4.080  -0.222   9.933 -0.1337  1.4831  0.2853
   22SAPC   H7S 2885   3.917  -0.143   9.933 -0.9005 -0.7805 -2.5333
   22SAPC   C28 2886   3.921  -0.340   9.845 -0.4095  0.5447 -0.5568
   22SAPC   H8R 2887   3.879  -0.432   9.887  0.0373  0.8609  0.6023
   22SAPC   C29 2888   3.927  -0.318   9.715  0.1124  0.4771  0.4515
   22SAPC   H9R 2889   3.894  -0.396   9.645  0.7356  2.2203 -1.9244
   22SAPC  C210 2890   3.989  -0.199   9.641  0.1299 -0.1629  0.3232
   22SAPC  H10R 2891   4.011  -0.110   9.704 -2.1618  1.5279 -1.1108
   22SAPC  H10S 2892   3.920  -0.164   9.561  1.5316  0.8873 -0.4837
   22SAPC  C211 2893   4.117  -0.236   9.570  0.1177 -0.0458  0.3540
   22SAPC  H11R 2894   4.211  -0.221   9.625  0.1927  1.0110 -0.0468
   22SAPC  C212 2895   4.121  -0.263   9.438 -1.0893 -0.6273 -0.6522
   22SAPC  H12R 2896   4.217  -0.294   9.394  0.3090  1.2458  0.9350
   22SAPC  C213 2897   4.016  -0.276   9.330 -0.3655 -0.6019  0.3866
   22SAPC  H13R 2898   3.923  -0.321   9.371  0.1922 -2.3909 -0.2081
   22SAPC  H13S 2899   4.046  -0.355   9.258  0.5525 -1.2424  1.4317
   22SAPC  C214 2900   3.996  -0.142   9.258  1.0683  0.5486  0.2466
   22SAPC  H14R 2901   4.082  -0.074   9.248 -0.2464  2.0724 -1.2796
   22SAPC  C215 2902   3.875  -0.112   9.209 -1.0442  0.1185  0.0048
   22SAPC  H15R 2903   3.869  -0.028   9.139 -0.1296 -1.2423 -1.7923
   22SAPC  C216 2904   3.743  -0.180   9.215  0.3423 -0.0197 -0.0063
   22SAPC  H16R 2905   3.661  -0.121   9.262 -0.6776 -1.7924  0.5048
   22SAPC  H16S 2906   3.750  -0.263   9.289  1.2638  1.0592  1.1648
   22SAPC  C217 2907   3.684  -0.247   9.089 -0.5428  0.2519 -0.1547
   22SAPC  H17R 2908   3.687  -0.174   9.006 -1.7891 -0.0079 -0.4522
   22SAPC  H17S 2909   3.579  -0.282   9.095 -0.7505  0.4339 -2.0448
   22SAPC  C218 2910   3.776  -0.365   9.030  0.8040  0.5032  0.5539
   22SAPC  H18R 2911   3.801  -0.433   9.115  1.8578  0.2592  0.0616
   22SAPC  H18S 2912   3.878  -0.334   8.999  0.4933  1.3755  0.3798
   22SAPC  C219 2913   3.698  -0.454   8.929 -0.5659 -0.9403 -0.7139
   22SAPC  H19R 2914   3.682  -0.389   8.840 -0.7812 -0.8115 -0.5819
   22SAPC  H19S 2915   3.595  -0.479   8.963  0.0392 -0.6753  1.4173
   22SAPC  C220 2916   3.774  -0.571   8.885 -0.3104 -0.8006  0.4796
   22SAPC  H20R 2917   3.708  -0.648   8.840 -3.2718  1.0197  1.3849
   22SAPC  H20S 2918   3.829  -0.615   8.970  1.5149 -1.4188 -0.9526
   22SAPC  H20T 2919   3.847  -0.548   8.804 -3.1222  0.4363 -1.9082
   22SAPC   C33 2920   4.889   0.279   9.938 -1.0055  0.0794 -0.1624
   22SAPC   H3X 2921   4.982   0.229   9.974  0.0700  0.6203 -2.0060
   22SAPC   H3Y 2922   4.883   0.380   9.983  2.3358  0.7212 -0.8347
   22SAPC   C34 2923   4.895   0.284   9.786  0.0525 -0.0449  0.0670
   22SAPC   H4X 2924   4.812   0.348   9.751 -0.9246 -1.7324 -0.8568
   22SAPC   H4Y 2925   4.892   0.180   9.745 -0.4972 -0.3252  0.7963
   22SAPC   C35 2926   5.032   0.345   9.735 -0.2787 -0.7890 -0.3617
   22SAPC   H5X 2927   5.117   0.295   9.788  0.0951  0.6461  0.4559
   22SAPC   H5Y 2928   5.040   0.455   9.744  1.1715 -1.0119  2.4127
   22SAPC   C36 2929   5.049   0.316   9.581 -0.0743  0.0682 -0.4288
   22SAPC   H6X 2930   5.051   0.206   9.566 -0.1791  0.1231 -0.8599
   22SAPC   H6Y 2931   5.145   0.353   9.539  0.0520 -2.1483 -2.3318
   22SAPC   C37 2932   4.929   0.378   9.496  0.5905 -0.2418 -0.3969
   22SAPC   H7X 2933   4.900   0.479   9.531  1.0301 -0.2546  0.0101
   22SAPC   H7Y 2934   4.836   0.323   9.525  1.1643 -0.4136  1.2517
   22SAPC   C38 2935   4.956   0.373   9.336  0.2303  0.0949 -0.3109
   22SAPC   H8X 2936   5.035   0.448   9.316 -1.4578  2.0223 -0.0056
   22SAPC   H8Y 2937   4.865   0.399   9.279  0.1045  0.2067 -0.0583
   22SAPC   C39 2938   4.994   0.228   9.290 -0.1376 -0.8290  0.3396
   22SAPC   H9X 2939   4.923   0.163   9.345  0.3065  0.2296  2.2719
   22SAPC   H9Y 2940   5.096   0.207   9.327  1.1047 -0.9873 -2.8573
   22SAPC  C310 2941   4.991   0.208   9.139  0.0320  0.4215  0.0982
   22SAPC  H10X 2942   5.012   0.099   9.127 -1.6728  0.0665 -0.0472
   22SAPC  H10Y 2943   5.062   0.271   9.083 -0.2688  1.6528  1.0623
   22SAPC  C311 2944   4.854   0.226   9.076  0.6497  0.3050  0.4158
   22SAPC  H11X 2945   4.829   0.334   9.087 -0.8166  0.1849 -1.3104
   22SAPC  H11Y 2946   4.773   0.166   9.121  0.2818 -0.4543 -1.1881
   22SAPC  C312 2947   4.864   0.213   8.924  0.0196  0.2227 -0.5206
   22SAPC  H12X 2948   4.915   0.116   8.906 -2.1827 -1.4027  1.3261
   22SAPC  H12Y 2949   4.913   0.305   8.888 -2.5715  1.2024 -1.8375
   22SAPC  C313 2950   4.728   0.198   8.848 -0.1975  0.5079 -0.8150
   22SAPC  H13X 2951   4.654   0.271   8.887  0.3439  0.5708  0.1300
   22SAPC  H13Y 2952   4.703   0.094   8.876  0.1399  0.7076  0.2817
   22SAPC  C314 2953   4.754   0.215   8.697  0.4776 -0.3676 -0.4072
   22SAPC  H14X 2954   4.808   0.129   8.652  2.2743 -0.1999  1.2593
   22SAPC  H14Y 2955   4.819   0.303   8.680  1.0238 -0.0787  2.5968
   22SAPC  C315 2956   4.623   0.248   8.631 -0.1362 -0.0098 -0.4818
   22SAPC  H15X 2957   4.559   0.165   8.667 -0.9451  0.2747 -1.2360
   22SAPC  H15Y 2958   4.636   0.237   8.522  0.0280 -1.2114 -0.3475
   22SAPC  C316 2959   4.567   0.388   8.664 -0.5507 -0.6021 -0.2922
   22SAPC  H16X 2960   4.641   0.465   8.632  0.8989 -1.4412  0.9137
   22SAPC  H16Y 2961   4.558   0.409   8.772  0.9191 -1.4410  0.0218
   22SAPC  C317 2962   4.430   0.416   8.609 -0.3418  0.1801 -0.2515
   22SAPC  H17X 2963   4.438   0.389   8.502  1.0388 -1.5510  0.2365
   22SAPC  H17Y 2964   4.389   0.519   8.612 -1.3602 -0.2000  2.9526
   22SAPC  C318 2965   4.311   0.342   8.669 -0.4785 -0.0959  0.5881
   22SAPC  H18X 2966   4.213   0.346   8.617 -0.0257 -1.0327 -0.3800
   22SAPC  H18Y 2967   4.282   0.386   8.767 -1.0362 -1.7192  1.1866
   22SAPC  H18Z 2968   4.343   0.237   8.689 -1.5863 -1.0125 -1.9943
   23SAPC     N 2969   0.595   2.149  11.010  0.3192 -0.0856  0.0800
   23SAPC   C12 2970   0.634   2.198  10.867 -0.0556  0.2437 -0.1625
   23SAPC  H12A 2971   0.741   2.193  10.855  0.2889  2.9113  1.0270
   23SAPC  H12B 2972   0.604   2.302  10.869 -1.3777 -0.1100 -0.2266
   23SAPC   C13 2973   0.449   2.168  11.034  0.2169  0.2915  0.3108
   23SAPC  H13A 2974   0.426   2.150  11.138  0.3045 -2.3673 -0.0656
   23SAPC  H13B 2975   0.410   2.265  11.005  0.4507  0.5758  0.9217
   23SAPC  H13C 2976   0.390   2.105  10.969  0.4072  0.9825 -0.5500
   23SAPC   C14 2977   0.652   2.011  11.030  0.6176  0.0153  0.0471
   23SAPC  H14A 2978   0.640   1.970  11.129 -1.5095 -2.2411 -1.0226
   23SAPC  H14B 2979   0.604   1.942  10.962 -2.2041  2.0973 -0.2186
   23SAPC  H14C 2980   0.757   2.011  11.004  0.6985 -0.2752  0.3701
   23SAPC   C15 2981   0.670   2.235  11.111  0.3757 -0.5396  0.9763
   23SAPC  H15A 2982   0.775   2.210  11.110  0.4960 -0.0579 -0.3019
   23SAPC  H15B 2983   0.660   2.338  11.081 -0.1604 -1.3762 -2.0972
   23SAPC  H15C 2984   0.644   2.215  11.214  0.4301 -1.6956  0.7783
   23SAPC   C11 2985   0.561   2.130  10.743  0.1083 -0.7358  0.1949
   23SAPC  H11A 2986   0.608   2.180  10.655 -0.0129 -0.2299  0.4133
   23SAPC  H11B 2987   0.456   2.166  10.737  0.1648 -0.6890 -0.6300
   23SAPC     P 2988   0.714   1.933  10.702  0.0878  0.3920 -0.1920
   23SAPC   O13 2989   0.825   2.025  10.742  0.5423 -0.0965 -0.2019
   23SAPC   O14 2990   0.729   1.800  10.759  0.2434  0.7701 -0.7258
   23SAPC   O12 2991   0.572   1.994  10.749  0.1269  0.0244 -0.1118
   23SAPC   O11 2992   0.707   1.934  10.546 -0.3843  0.9011  0.3292
   23SAPC    C1 2993   0.602   1.855  10.498 -0.0524 -0.1521 -0.0316
   23SAPC    HA 2994   0.610   1.751  10.537  1.3354 -1.6115 -3.7352
   23SAPC    HB 2995   0.502   1.900  10.511 -1.6132 -2.6912 -2.2221
   23SAPC    C2 2996   0.617   1.807  10.350 -1.1743  0.0956  0.2836
   23SAPC    HS 2997   0.549   1.722  10.329 -0.8867 -0.3098  0.9584
   23SAPC   O21 2998   0.752   1.782  10.320  0.2169  0.4332 -0.5877
   23SAPC   C21 2999   0.784   1.655  10.329  0.5140 -0.5739  0.2749
   23SAPC   O22 3000   0.701   1.569  10.349 -0.1483 -0.1328  0.3098
   23SAPC   C22 3001   0.931   1.641  10.299  0.2250  0.3015  0.0566
   23SAPC   H2R 3002   0.978   1.742  10.301 -0.2151  0.4936  0.6927
   23SAPC   H2S 3003   0.968   1.583  10.386 -1.1058 -0.6160  0.0435
   23SAPC    C3 3004   0.569   1.917  10.253 -0.0039 -0.2645  0.4641
   23SAPC    HX 3005   0.597   1.895  10.148 -0.5074  0.1524  0.2444
   23SAPC    HY 3006   0.619   2.013  10.279 -2.6111  1.4392 -0.4600
   23SAPC   O31 3007   0.423   1.940  10.272 -0.0259 -0.7064 -0.0610
   23SAPC   C31 3008   0.374   2.046  10.210  0.2496  1.0579  0.3619
   23SAPC   O32 3009   0.437   2.125  10.148 -0.0892  0.5266  0.0616
   23SAPC   C32 3010   0.226   2.059  10.244 -0.5732  0.1708  0.3049
   23SAPC   H2X 3011   0.217   2.152  10.304 -2.2856  1.8517 -2.3669
   23SAPC   H2Y 3012   0.198   1.964  10.294  1.8808 -1.5614 -1.3672
   23SAPC   C23 3013   0.947   1.554  10.172  0.1875 -0.6493 -0.6543
   23SAPC   H3R 3014   0.897   1.455  10.166  0.1268 -0.5773 -1.5575
   23SAPC   H3S 3015   1.050   1.511  10.175  0.9355  1.1101  0.9595
   23SAPC   C24 3016   0.930   1.643  10.046  0.5234  0.2262 -0.5315
   23SAPC   H4R 3017   0.820   1.644  10.030  0.3073  0.0164  0.7899
   23SAPC   H4S 3018   0.961   1.585   9.956  0.4059 -0.7278  0.0211
   23SAPC   C25 3019   1.000   1.784  10.040  0.4551  0.4954  1.0739
   23SAPC   H5R 3020   1.101   1.790  10.082  1.0346  0.9038 -0.3381
   23SAPC   C26 3021   0.955   1.883   9.954 -0.1379 -0.4686  0.1688
   23SAPC   H6R 3022   1.010   1.979   9.956  1.6682 -1.4594  1.5767
   23SAPC   C27 3023   0.825   1.885   9.878 -0.6394  0.1422 -0.0608
   23SAPC   H7R 3024   0.767   1.791   9.885  0.2200 -0.3929  0.1088
   23SAPC   H7S 3025   0.854   1.907   9.773 -1.6300  0.1558 -0.3354
   23SAPC   C28 3026   0.741   2.006   9.929 -0.5555 -0.3412 -0.2030
   23SAPC   H8R 3027   0.757   2.044  10.031  1.4976  3.2594 -1.6599
   23SAPC   C29 3028   0.650   2.071   9.857 -0.6501 -0.0558  0.4105
   23SAPC   H9R 3029   0.606   2.160   9.905  1.5433  1.2101  0.2158
   23SAPC  C210 3030   0.607   2.044   9.714  0.4489  0.8004  0.5000
   23SAPC  H10R 3031   0.497   2.036   9.720  0.4925  0.1265  0.4927
   23SAPC  H10S 3032   0.642   1.953   9.660  1.3412  2.1808 -1.3837
   23SAPC  C211 3033   0.649   2.161   9.628  0.6674  0.1367 -0.1114
   23SAPC  H11R 3034   0.684   2.253   9.676  2.1384  0.4091 -1.6211
   23SAPC  C212 3035   0.650   2.158   9.492  0.4620 -0.1565  0.3066
   23SAPC  H12R 3036   0.679   2.249   9.436 -2.9403  1.3451  0.7213
   23SAPC  C213 3037   0.619   2.036   9.405 -0.4185 -0.1729  0.3884
   23SAPC  H13R 3038   0.530   2.063   9.344 -1.0103 -0.1678  1.2345
   23SAPC  H13S 3039   0.585   1.946   9.459 -0.3576 -1.1508 -1.1306
   23SAPC  C214 3040   0.738   2.007   9.314  1.1562  0.0422  0.1115
   23SAPC  H14R 3041   0.759   2.082   9.237 -0.9779  0.8194  0.1993
   23SAPC  C215 3042   0.822   1.904   9.319  0.5957 -0.3603 -0.0429
   23SAPC  H15R 3043   0.904   1.908   9.246  0.6334  4.1452 -0.0664
   23SAPC  C216 3044   0.809   1.793   9.422 -0.2907  0.2107  0.0668
   23SAPC  H16R 3045   0.814   1.692   9.376  1.5497 -0.0401  0.7447
   23SAPC  H16S 3046   0.718   1.791   9.484  0.5002 -1.5152  1.2492
   23SAPC  C217 3047   0.925   1.793   9.532 -0.0085 -0.2449 -0.3591
   23SAPC  H17R 3048   0.909   1.704   9.596  1.2218 -1.0950 -1.1941
   23SAPC  H17S 3049   0.922   1.890   9.587 -0.5863 -0.2320 -0.3998
   23SAPC  C218 3050   1.056   1.781   9.462 -0.4106  0.1457 -0.1656
   23SAPC  H18R 3051   1.066   1.864   9.389 -0.2123  0.3030  0.0372
   23SAPC  H18S 3052   1.040   1.687   9.404  0.5898 -0.1536  0.0167
   23SAPC  C219 3053   1.184   1.785   9.553  0.4209 -0.0449 -0.2132
   23SAPC  H19R 3054   1.211   1.890   9.578 -0.0206 -0.0716  0.4070
   23SAPC  H19S 3055   1.268   1.736   9.499  1.5818 -0.8962  2.2462
   23SAPC  C220 3056   1.180   1.710   9.685 -0.0937 -0.0905 -0.6595
   23SAPC  H20R 3057   1.105   1.754   9.754  3.0904  2.5914  1.4087
   23SAPC  H20S 3058   1.273   1.713   9.745 -1.6593 -0.1261  1.9665
   23SAPC  H20T 3059   1.155   1.603   9.670  0.7249 -0.5201  0.8112
   23SAPC   C33 3060   0.139   2.082  10.118 -0.2868 -0.0726 -0.4514
   23SAPC   H3X 3061   0.179   2.157  10.047  0.1157 -0.0406 -0.1926
   23SAPC   H3Y 3062   0.039   2.124  10.145  0.6217  1.8642  0.0751
   23SAPC   C34 3063   0.114   1.951  10.046  0.0876 -0.4522  0.5267
   23SAPC   H4X 3064   0.056   1.889  10.118 -0.8216 -1.5352 -1.0862
   23SAPC   H4Y 3065   0.207   1.895  10.025  0.0723 -0.4100  0.3443
   23SAPC   C35 3066   0.023   1.964   9.922  0.5812  0.3392  0.3031
   23SAPC   H5X 3067  -0.084   1.989   9.939  0.6376  0.2730  0.7729
   23SAPC   H5Y 3068   0.010   1.859   9.887 -2.9954  0.8068 -0.0920
   23SAPC   C36 3069   0.085   2.042   9.803 -0.2583 -0.2936 -0.1983
   23SAPC   H6X 3070   0.196   2.039   9.811 -0.3450 -2.6109  0.7382
   23SAPC   H6Y 3071   0.058   2.147   9.827 -0.3261 -0.9436  2.9011
   23SAPC   C37 3072   0.043   1.998   9.665  0.2156  0.1661 -0.1265
   23SAPC   H7X 3073  -0.054   2.048   9.645  0.5821  0.8898 -0.1382
   23SAPC   H7Y 3074   0.045   1.887   9.669  0.8735  0.1627 -0.3707
   23SAPC   C38 3075   0.153   2.042   9.557 -0.8316 -0.2359  0.1851
   23SAPC   H8X 3076   0.254   2.008   9.586 -0.3839  0.2505 -0.7716
   23SAPC   H8Y 3077   0.169   2.151   9.548 -1.1171 -0.2580 -0.6930
   23SAPC   C39 3078   0.127   1.984   9.421  0.3755 -0.1744 -0.0861
   23SAPC   H9X 3079   0.029   2.025   9.388 -0.2415 -1.0771  0.5846
   23SAPC   H9Y 3080   0.123   1.876   9.446 -1.1580 -0.2463 -0.5645
   23SAPC  C310 3081   0.242   2.024   9.327 -0.2608 -0.7092 -0.6927
   23SAPC  H10X 3082   0.330   1.983   9.380 -1.3338 -0.6363  1.2312
   23SAPC  H10Y 3083   0.241   2.135   9.322 -2.7179 -0.6451 -0.1399
   23SAPC  C311 3084   0.242   1.967   9.193  0.0961  0.1430 -0.1349
   23SAPC  H11X 3085   0.159   2.008   9.133  0.6015  2.5747  0.6988
   23SAPC  H11Y 3086   0.248   1.856   9.185  0.3189  0.2258 -1.2799
   23SAPC  C312 3087   0.368   2.008   9.110 -0.0852  0.7520 -0.1235
   23SAPC  H12X 3088   0.449   1.954   9.164 -0.5237 -0.9388 -1.0635
   23SAPC  H12Y 3089   0.386   2.117   9.108  2.3332  0.4142  0.1882
   23SAPC  C313 3090   0.363   1.964   8.960 -0.3593 -0.7579  0.3468
   23SAPC  H13X 3091   0.292   2.033   8.910  0.5538  1.1799  1.5913
   23SAPC  H13Y 3092   0.324   1.861   8.945 -0.4159 -0.4916 -1.6982
   23SAPC  C314 3093   0.500   1.955   8.885  0.4059  0.1653 -0.6118
   23SAPC  H14X 3094   0.567   1.879   8.930  0.4779 -0.0867 -1.1356
   23SAPC  H14Y 3095   0.550   2.054   8.895  3.8844 -1.1685 -2.9553
   23SAPC  C315 3096   0.484   1.933   8.737  0.7984 -0.4929  0.3027
   23SAPC  H15X 3097   0.443   1.834   8.711  0.5710 -0.3911  0.2678
   23SAPC  H15Y 3098   0.577   1.958   8.682 -1.1738  0.9293 -2.6790
   23SAPC  C316 3099   0.376   2.025   8.674  0.6510 -0.1567  0.1308
   23SAPC  H16X 3100   0.414   2.127   8.697  0.1123  0.4339 -1.4728
   23SAPC  H16Y 3101   0.275   2.008   8.719  0.5221 -0.4406 -0.2623
   23SAPC  C317 3102   0.358   2.010   8.521  0.1769 -0.5078  0.0610
   23SAPC  H17X 3103   0.280   2.083   8.493  0.0311 -0.9468 -0.6957
   23SAPC  H17Y 3104   0.310   1.911   8.507 -0.4065 -0.2147 -0.0165
   23SAPC  C318 3105   0.474   2.036   8.431  0.2836 -0.0294 -0.1596
   23SAPC  H18X 3106   0.564   1.971   8.442  0.6455  0.4488 -0.2281
   23SAPC  H18Y 3107   0.496   2.142   8.457  1.2030  0.2327 -1.8061
   23SAPC  H18Z 3108   0.447   2.032   8.323 -0.3119 -1.3494  0.0326
   24SAPC     N 3109   2.975   1.596  10.729 -0.2409 -0.0155  0.7289
   24SAPC   C12 3110   2.825   1.576  10.713  0.7159 -0.5183  0.4926
   24SAPC  H12A 3111   2.813   1.484  10.657 -1.8398 -0.8903  1.5034
   24SAPC  H12B 3112   2.785   1.644  10.640 -1.9044 -1.3148  1.0815
   24SAPC   C13 3113   3.035   1.476  10.791 -0.8409 -0.7557 -0.3538
   24SAPC  H13A 3114   2.976   1.455  10.879  1.0037  0.3155  1.2099
   24SAPC  H13B 3115   3.035   1.386  10.731 -0.0232 -0.7118 -0.4392
   24SAPC  H13C 3116   3.134   1.495  10.830 -0.6030 -1.7134 -0.4593
   24SAPC   C14 3117   3.044   1.625  10.605 -0.6331  0.4979  0.9427
   24SAPC  H14A 3118   3.151   1.627  10.621  0.0159 -1.5027 -2.2987
   24SAPC  H14B 3119   3.037   1.542  10.536  1.8170 -1.0598  2.4133
   24SAPC  H14C 3120   3.005   1.712  10.555 -0.0720  1.1654  1.6462
   24SAPC   C15 3121   3.009   1.712  10.825  0.2502 -0.3579 -0.1333
   24SAPC  H15A 3122   2.958   1.804  10.799  1.6456  0.5479  0.2329
   24SAPC  H15B 3123   2.978   1.680  10.923 -0.8371 -0.4671 -0.4987
   24SAPC  H15C 3124   3.114   1.739  10.824  0.5221 -1.3924 -1.3697
   24SAPC   C11 3125   2.726   1.561  10.830 -0.1860 -0.5122 -0.1085
   24SAPC  H11A 3126   2.618   1.583  10.816 -0.6112 -1.6496  1.1169
   24SAPC  H11B 3127   2.756   1.638  10.904 -0.2107  1.9582 -2.5077
   24SAPC     P 3128   2.672   1.310  10.825  0.3839  0.0791 -0.3989
   24SAPC   O13 3129   2.764   1.197  10.835 -0.5432  0.1864  0.0401
   24SAPC   O14 3130   2.545   1.289  10.899  0.3685  0.6379  0.1002
   24SAPC   O12 3131   2.742   1.436  10.888  0.8863  0.0506 -0.0523
   24SAPC   O11 3132   2.638   1.342  10.672  0.1878 -0.9189 -0.2968
   24SAPC    C1 3133   2.505   1.356  10.625 -0.0228 -0.8080  0.0272
   24SAPC    HA 3134   2.433   1.417  10.684 -1.6747 -0.8106 -1.8995
   24SAPC    HB 3135   2.505   1.404  10.525 -0.5172  2.4749  1.4811
   24SAPC    C2 3136   2.431   1.221  10.609 -0.9972 -0.1201 -0.4291
   24SAPC    HS 3137   2.453   1.168  10.704 -1.2436  0.6971  0.0849
   24SAPC   O21 3138   2.497   1.161  10.496  0.5227  0.1364  0.6714
   24SAPC   C21 3139   2.501   1.026  10.503  0.0714  0.3023 -0.0012
   24SAPC   O22 3140   2.453   0.963  10.598  0.7179  0.4103 -0.3704
   24SAPC   C22 3141   2.564   0.962  10.377  0.2586 -0.2058  0.0898
   24SAPC   H2R 3142   2.495   0.952  10.290  1.7496 -1.2344 -1.0346
   24SAPC   H2S 3143   2.649   1.026  10.347  1.0865 -0.5257  1.6508
   24SAPC    C3 3144   2.277   1.231  10.589  0.1394  0.0154 -0.2265
   24SAPC    HX 3145   2.222   1.271  10.677 -0.8020  0.1212 -0.8521
   24SAPC    HY 3146   2.245   1.127  10.566  0.7790  0.3399 -2.8916
   24SAPC   O31 3147   2.258   1.325  10.481 -0.4492 -0.4291 -0.5928
   24SAPC   C31 3148   2.242   1.268  10.363  0.5704 -0.4499  0.4751
   24SAPC   O32 3149   2.208   1.152  10.341 -0.2736  0.5727  0.3963
   24SAPC   C32 3150   2.258   1.370  10.247  0.7194  0.0550  0.2683
   24SAPC   H2X 3151   2.190   1.458  10.246  1.8492  0.9510 -0.2876
   24SAPC   H2Y 3152   2.243   1.320  10.149 -0.0084  0.4544  0.1653
   24SAPC   C23 3153   2.597   0.820  10.418 -0.1448  0.7970  0.4615
   24SAPC   H3R 3154   2.510   0.751  10.428  0.6048 -0.4525 -1.1001
   24SAPC   H3S 3155   2.648   0.822  10.517  0.3760  1.3445  0.1896
   24SAPC   C24 3156   2.675   0.752  10.302 -0.0549 -0.6743  0.0832
   24SAPC   H4R 3157   2.628   0.759  10.202  0.7048 -3.3795 -0.5673
   24SAPC   H4S 3158   2.680   0.642  10.319  0.0356 -0.9348 -1.4406
   24SAPC   C25 3159   2.809   0.811  10.298 -0.4209 -0.0524  0.3864
   24SAPC   H5R 3160   2.877   0.795  10.384  1.2681  0.5989 -0.7692
   24SAPC   C26 3161   2.878   0.847  10.188 -0.0136 -0.5681 -0.4589
   24SAPC   H6R 3162   2.979   0.884  10.207 -0.7634  1.6078 -0.4056
   24SAPC   C27 3163   2.817   0.854  10.051 -0.2900 -0.2881  0.1443
   24SAPC   H7R 3164   2.715   0.898  10.057 -0.0885  0.1544  0.3412
   24SAPC   H7S 3165   2.799   0.762   9.991  1.0798  0.4451 -1.4778
   24SAPC   C28 3166   2.905   0.945   9.961  0.2708  0.3225 -0.1809
   24SAPC   H8R 3167   2.941   1.037  10.010 -1.3470  0.5159  0.6979
   24SAPC   C29 3168   2.937   0.926   9.833  0.2629  0.4585  1.3285
   24SAPC   H9R 3169   3.001   0.999   9.781 -0.1325  0.5651  0.9878
   24SAPC  C210 3170   2.889   0.820   9.739  0.2721  0.4822  0.3985
   24SAPC  H10R 3171   2.860   0.729   9.796 -0.4731 -0.4439 -1.3767
   24SAPC  H10S 3172   2.974   0.776   9.684 -0.0428 -0.6360  0.7865
   24SAPC  C211 3173   2.772   0.858   9.648  0.4413 -0.0258  0.6168
   24SAPC  H11R 3174   2.674   0.881   9.693  0.8793 -0.2320  1.7201
   24SAPC  C212 3175   2.773   0.869   9.516  0.0705  0.6662  0.6343
   24SAPC  H12R 3176   2.676   0.886   9.467 -1.6236 -1.9686  2.8111
   24SAPC  C213 3177   2.890   0.847   9.431 -0.2120  0.7192 -0.2827
   24SAPC  H13R 3178   2.871   0.755   9.372  2.3389 -0.6468  0.8536
   24SAPC  H13S 3179   2.978   0.822   9.494 -1.3720 -0.5783  0.8906
   24SAPC  C214 3180   2.935   0.953   9.338 -0.8319 -0.5380 -0.0583
   24SAPC  H14R 3181   2.984   1.041   9.381 -2.4204  0.7496 -0.7806
   24SAPC  C215 3182   2.910   0.958   9.207  0.1222 -0.8588 -0.7050
   24SAPC  H15R 3183   2.949   1.053   9.166 -0.6488  0.2606  1.0692
   24SAPC  C216 3184   2.848   0.859   9.114 -0.7761 -0.0556  0.1193
   24SAPC  H16R 3185   2.840   0.757   9.158  0.2162 -0.3092 -0.2837
   24SAPC  H16S 3186   2.908   0.856   9.021  0.2979 -1.5813  0.8265
   24SAPC  C217 3187   2.699   0.893   9.082  0.5429  0.0923 -0.0187
   24SAPC  H17R 3188   2.673   1.001   9.087 -1.3155 -0.2890 -0.4707
   24SAPC  H17S 3189   2.639   0.842   9.161  1.9131  0.8605  1.5918
   24SAPC  C218 3190   2.659   0.834   8.944  0.2892  0.3788  0.3734
   24SAPC  H18R 3191   2.697   0.730   8.931 -0.3232 -0.0358  1.6701
   24SAPC  H18S 3192   2.713   0.895   8.869  1.7181 -0.8345  0.3675
   24SAPC  C219 3193   2.506   0.836   8.913  0.0988  0.2750  0.0355
   24SAPC  H19R 3194   2.477   0.934   8.870 -2.6900  0.9700  3.0932
   24SAPC  H19S 3195   2.453   0.833   9.011  1.2921 -0.8714  0.6728
   24SAPC  C220 3196   2.478   0.719   8.818 -0.3274  0.0340 -0.7707
   24SAPC  H20R 3197   2.368   0.708   8.817 -0.1458 -2.1362 -1.6140
   24SAPC  H20S 3198   2.519   0.622   8.854 -0.1624  1.1662  2.3842
   24SAPC  H20T 3199   2.498   0.743   8.711  0.1629  0.8058 -0.5198
   24SAPC   C33 3200   2.408   1.412  10.224  0.3065 -0.4540  0.0072
   24SAPC   H3X 3201   2.456   1.439  10.321 -2.6672 -1.3739  1.8528
   24SAPC   H3Y 3202   2.403   1.507  10.166  2.6009 -0.5047 -0.3667
   24SAPC   C34 3203   2.470   1.310  10.136 -0.8604 -0.0891  0.5495
   24SAPC   H4X 3204   2.408   1.293  10.046 -0.1246  0.0987  0.0019
   24SAPC   H4Y 3205   2.492   1.218  10.194  1.4518  0.5480  0.7925
   24SAPC   C35 3206   2.611   1.350  10.104 -0.3004 -0.6383  0.1045
   24SAPC   H5X 3207   2.679   1.344  10.192 -0.3382  0.1328  0.1918
   24SAPC   H5Y 3208   2.616   1.458  10.077  2.1476 -0.2866  1.6707
   24SAPC   C36 3209   2.675   1.279   9.985  0.3243  0.0771 -0.4745
   24SAPC   H6X 3210   2.682   1.173  10.019 -0.8815 -0.0108 -0.4584
   24SAPC   H6Y 3211   2.779   1.312   9.965  0.0369  0.0049 -2.2200
   24SAPC   C37 3212   2.582   1.291   9.862  0.3676 -0.6768  0.2598
   24SAPC   H7X 3213   2.541   1.394   9.865  0.4709 -0.6502  0.9893
   24SAPC   H7Y 3214   2.499   1.219   9.875  0.2112 -0.9060 -1.7104
   24SAPC   C38 3215   2.663   1.258   9.734  0.1994  0.1333 -1.2622
   24SAPC   H8X 3216   2.691   1.154   9.761 -1.7966 -0.4404 -1.2469
   24SAPC   H8Y 3217   2.757   1.317   9.727 -1.4658  3.0122 -0.9972
   24SAPC   C39 3218   2.597   1.268   9.594  0.4526  0.5605  0.0795
   24SAPC   H9X 3219   2.542   1.364   9.594 -0.2490  0.1801  1.1327
   24SAPC   H9Y 3220   2.524   1.185   9.583 -0.4685  1.2028  1.1841
   24SAPC  C310 3221   2.699   1.268   9.481 -1.1644  0.3446 -0.2034
   24SAPC  H10X 3222   2.741   1.166   9.486 -0.6061  0.5982  0.4931
   24SAPC  H10Y 3223   2.773   1.350   9.493 -1.9144  0.9120  0.7456
   24SAPC  C311 3224   2.642   1.265   9.334  0.1288  0.1702 -0.1186
   24SAPC  H11X 3225   2.554   1.334   9.334 -0.5088 -0.6111  0.9054
   24SAPC  H11Y 3226   2.608   1.163   9.306 -2.3505  1.1784 -1.0974
   24SAPC  C312 3227   2.747   1.303   9.230  0.0410  0.0344 -0.2120
   24SAPC  H12X 3228   2.824   1.225   9.213 -0.7838 -0.4170 -2.1321
   24SAPC  H12Y 3229   2.794   1.401   9.254  1.9186 -1.1604  1.2878
   24SAPC  C313 3230   2.674   1.341   9.100 -0.4804  0.2792  0.2106
   24SAPC  H13X 3231   2.611   1.432   9.100  1.5683  1.8027 -1.6112
   24SAPC  H13Y 3232   2.596   1.264   9.080 -3.0340  2.9983 -1.0613
   24SAPC  C314 3233   2.770   1.372   8.988 -0.4561 -0.8204  0.1348
   24SAPC  H14X 3234   2.861   1.418   9.032 -1.7002 -1.0455  3.1725
   24SAPC  H14Y 3235   2.730   1.454   8.924  0.0075 -1.9445 -1.6497
   24SAPC  C315 3236   2.810   1.263   8.889  0.1405  0.0349  0.2483
   24SAPC  H15X 3237   2.738   1.245   8.807  0.2475  2.3632 -0.4168
   24SAPC  H15Y 3238   2.807   1.169   8.949  0.6231 -0.5427 -0.6137
   24SAPC  C316 3239   2.947   1.284   8.823 -0.4139 -0.8494  0.2692
   24SAPC  H16X 3240   3.026   1.271   8.900 -0.4078  1.4355  0.7284
   24SAPC  H16Y 3241   2.947   1.384   8.773 -1.3596 -1.9951 -2.1726
   24SAPC  C317 3242   2.975   1.178   8.714 -0.4350 -0.0611  0.3539
   24SAPC  H17X 3243   3.074   1.203   8.670 -0.1081 -0.0215  1.0914
   24SAPC  H17Y 3244   2.903   1.189   8.629  0.0868 -0.2252 -0.1119
   24SAPC  C318 3245   2.987   1.029   8.761  0.2869  0.2647  0.0109
   24SAPC  H18X 3246   3.014   0.959   8.679 -1.5296 -0.7591  0.2390
   24SAPC  H18Y 3247   2.896   1.002   8.818  1.0744  0.9866  1.6923
   24SAPC  H18Z 3248   3.071   1.019   8.833  1.0044 -2.1255 -1.0439
   25SAPC     N 3249   5.897   5.573   5.623 -0.7774 -0.2729  0.0277
   25SAPC   C12 3250   5.997   5.670   5.679  0.3606  0.1728  0.1915
   25SAPC  H12A 3251   5.974   5.765   5.633 -2.2262 -1.6253 -2.6367
   25SAPC  H12B 3252   6.098   5.642   5.652 -0.0518 -0.7485 -0.4288
   25SAPC   C13 3253   5.954   5.437   5.648 -0.0702 -0.0275  0.4808
   25SAPC  H13A 3254   5.958   5.420   5.755  3.0491 -1.1642  0.2760
   25SAPC  H13B 3255   5.890   5.359   5.609  0.4352  0.3897 -1.2741
   25SAPC  H13C 3256   6.056   5.425   5.616  0.5607  1.7845  1.6180
   25SAPC   C14 3257   5.767   5.584   5.689 -0.6006 -0.3644 -0.3235
   25SAPC  H14A 3258   5.723   5.682   5.701 -1.0338 -0.2714 -2.2366
   25SAPC  H14B 3259   5.707   5.524   5.622  0.1715 -2.1876  0.5507
   25SAPC  H14C 3260   5.765   5.536   5.785 -3.7146  3.2731  1.7241
   25SAPC   C15 3261   5.871   5.585   5.475  0.3673 -0.6193  0.0316
   25SAPC  H15A 3262   5.807   5.502   5.446 -0.3525  0.1798 -0.7011
   25SAPC  H15B 3263   5.810   5.669   5.444 -1.7113 -2.0781 -0.0698
   25SAPC  H15C 3264   5.959   5.591   5.413  1.1311 -3.1293  0.7302
   25SAPC   C11 3265   6.005   5.684   5.838  0.4825 -0.0560  0.6872
   25SAPC  H11A 3266   5.904   5.718   5.870 -0.3035 -1.8995  0.2854
   25SAPC  H11B 3267   6.071   5.765   5.876  1.1728 -0.4872  0.4286
   25SAPC     P 3268   6.191   5.535   5.937 -0.1112  0.0811  0.4368
   25SAPC   O13 3269   6.218   5.393   5.928 -0.3475  0.3971 -0.2769
   25SAPC   O14 3270   6.276   5.619   5.845  0.1577 -0.0138 -0.4625
   25SAPC   O12 3271   6.037   5.555   5.897  0.2059 -0.0171  0.6617
   25SAPC   O11 3272   6.215   5.578   6.091 -0.0307  0.7914  0.0801
   25SAPC    C1 3273   6.151   5.690   6.153 -0.3172 -0.6589 -0.3375
   25SAPC    HA 3274   6.223   5.768   6.186 -2.9091  1.4935  0.6295
   25SAPC    HB 3275   6.080   5.745   6.087 -1.3658 -1.4036  0.1304
   25SAPC    C2 3276   6.074   5.653   6.284  0.5886 -0.0910  0.5362
   25SAPC    HS 3277   5.994   5.728   6.301  0.7200  0.0988  0.3282
   25SAPC   O21 3278   6.168   5.648   6.385  0.7254 -0.1678  0.4030
   25SAPC   C21 3279   6.127   5.676   6.508 -0.0964  0.3672 -1.0409
   25SAPC   O22 3280   6.019   5.720   6.537 -0.1805  0.3646  0.0286
   25SAPC   C22 3281   6.234   5.638   6.611 -0.4712  0.3565 -0.6174
   25SAPC   H2R 3282   6.304   5.560   6.572 -0.0279  1.5930 -2.4231
   25SAPC   H2S 3283   6.294   5.730   6.627 -1.0372  0.5873  0.2749
   25SAPC    C3 3284   5.986   5.518   6.262 -0.3491  0.1321 -0.7257
   25SAPC    HX 3285   6.060   5.436   6.259  2.1252  2.1485  0.8396
   25SAPC    HY 3286   5.936   5.521   6.163  1.3694  0.8551 -1.6221
   25SAPC   O31 3287   5.892   5.500   6.372 -0.5616 -0.5789  0.0639
   25SAPC   C31 3288   5.849   5.377   6.388  0.2940  0.1293 -0.3317
   25SAPC   O32 3289   5.890   5.281   6.328 -0.4061  0.3788  0.4087
   25SAPC   C32 3290   5.755   5.363   6.500 -0.5498  0.6254 -0.7473
   25SAPC   H2X 3291   5.690   5.275   6.479  0.6238 -0.5446  0.3108
   25SAPC   H2Y 3292   5.688   5.451   6.490 -0.1469  0.7008 -3.4057
   25SAPC   C23 3293   6.173   5.592   6.747 -0.7649  0.1933 -0.2958
   25SAPC   H3R 3294   6.090   5.518   6.738  0.0891 -0.6964 -1.1397
   25SAPC   H3S 3295   6.135   5.674   6.811 -1.0251  1.3992 -1.9695
   25SAPC   C24 3296   6.288   5.514   6.815  0.1984 -0.5390  0.3027
   25SAPC   H4R 3297   6.315   5.429   6.749 -2.8362 -0.9120 -0.6093
   25SAPC   H4S 3298   6.258   5.469   6.912  1.3328 -3.0941 -0.4382
   25SAPC   C25 3299   6.395   5.619   6.852  0.2717 -0.1481 -0.5380
   25SAPC   H5R 3300   6.462   5.639   6.767  3.0412 -3.1745  0.7232
   25SAPC   C26 3301   6.420   5.677   6.977 -0.2325  0.1517  0.5637
   25SAPC   H6R 3302   6.497   5.756   6.980 -1.4098  1.3797 -0.1346
   25SAPC   C27 3303   6.356   5.649   7.104  0.9415  0.0314 -1.0184
   25SAPC   H7R 3304   6.249   5.678   7.096  1.5069  2.4204 -0.5359
   25SAPC   H7S 3305   6.405   5.714   7.179 -1.3476 -1.7129  2.2227
   25SAPC   C28 3306   6.379   5.509   7.156  0.1713  0.0470  0.3722
   25SAPC   H8R 3307   6.400   5.433   7.080  0.8789  0.8851 -0.2906
   25SAPC   C29 3308   6.375   5.467   7.284 -0.2610  0.9226  0.6913
   25SAPC   H9R 3309   6.391   5.362   7.313 -3.6868  0.2845  0.6618
   25SAPC  C210 3310   6.343   5.548   7.400  0.3266  0.7119 -0.2668
   25SAPC  H10R 3311   6.307   5.479   7.479  2.6583  1.7676  1.8538
   25SAPC  H10S 3312   6.254   5.614   7.395  0.7604  1.3623  0.2772
   25SAPC  C211 3313   6.447   5.629   7.461 -0.0594 -0.0004  0.0505
   25SAPC  H11R 3314   6.513   5.685   7.394  0.1784  0.7079  0.8520
   25SAPC  C212 3315   6.469   5.648   7.589  0.2271 -0.7747  0.1880
   25SAPC  H12R 3316   6.548   5.723   7.608 -1.8412  1.8267 -0.7449
   25SAPC  C213 3317   6.390   5.599   7.711  0.0609  0.1829 -0.2174
   25SAPC  H13R 3318   6.423   5.495   7.734  0.6301  0.4632  0.2521
   25SAPC  H13S 3319   6.280   5.594   7.698 -0.0810  1.7163  0.1881
   25SAPC  C214 3320   6.433   5.688   7.830  0.8875 -0.5357  0.4149
   25SAPC  H14R 3321   6.522   5.751   7.820 -1.0237  2.0518 -1.4992
   25SAPC  C215 3322   6.351   5.710   7.932  0.1032  0.2309  0.7276
   25SAPC  H15R 3323   6.387   5.768   8.017  0.6722  1.8218 -0.5520
   25SAPC  C216 3324   6.219   5.645   7.953  0.5390 -0.5914 -0.3450
   25SAPC  H16R 3325   6.214   5.543   7.910 -2.7904 -1.5492  1.9582
   25SAPC  H16S 3326   6.152   5.698   7.881  1.1970  0.3172 -0.3061
   25SAPC  C217 3327   6.165   5.653   8.098 -0.0294 -0.3260 -0.1673
   25SAPC  H17R 3328   6.248   5.609   8.157 -1.3139  1.4157  3.2008
   25SAPC  H17S 3329   6.083   5.579   8.102  1.1960 -1.6719  0.9362
   25SAPC  C218 3330   6.119   5.788   8.156  0.0034  0.5584 -0.2031
   25SAPC  H18R 3331   6.018   5.817   8.120 -0.4275 -1.6496 -0.8931
   25SAPC  H18S 3332   6.186   5.869   8.118  0.4409  0.3151  0.0380
   25SAPC  C219 3333   6.118   5.776   8.309  0.2330 -0.6175 -0.0182
   25SAPC  H19R 3334   6.061   5.689   8.348  0.0696 -0.0207  1.1361
   25SAPC  H19S 3335   6.054   5.858   8.351 -0.0651 -1.1421  0.5649
   25SAPC  C220 3336   6.265   5.778   8.365 -0.1285 -0.2674 -0.2397
   25SAPC  H20R 3337   6.277   5.782   8.475  1.5519 -1.2711 -0.3519
   25SAPC  H20S 3338   6.318   5.870   8.330 -2.1888  1.2763  0.4999
   25SAPC  H20T 3339   6.316   5.687   8.329  1.0862  0.7844 -1.2902
   25SAPC   C33 3340   5.822   5.351   6.647  0.1899  0.3120  0.5545
   25SAPC   H3X 3341   5.757   5.392   6.728  0.9797  0.0887  1.3094
   25SAPC   H3Y 3342   5.915   5.411   6.654  1.7800 -1.8720 -0.7521
   25SAPC   C34 3343   5.868   5.208   6.689 -0.2703 -0.2406  0.7003
   25SAPC   H4X 3344   5.927   5.166   6.605 -0.2112 -1.0416  1.1361
   25SAPC   H4Y 3345   5.783   5.136   6.689 -0.6419  0.1133 -1.3971
   25SAPC   C35 3346   5.948   5.193   6.821 -0.0494 -0.1483  0.0066
   25SAPC   H5X 3347   6.018   5.280   6.828 -0.4715  0.2492 -0.6410
   25SAPC   H5Y 3348   6.014   5.105   6.806  1.2144  0.6155  0.8799
   25SAPC   C36 3349   5.868   5.164   6.954 -0.1317  0.3085 -0.4738
   25SAPC   H6X 3350   5.803   5.076   6.935  0.5210 -0.3648  0.3494
   25SAPC   H6Y 3351   5.806   5.253   6.980 -0.8529  0.1865 -1.6813
   25SAPC   C37 3352   5.957   5.131   7.068 -0.3770  0.3713 -0.3968
   25SAPC   H7X 3353   6.050   5.084   7.030 -1.1724 -1.0154 -0.6904
   25SAPC   H7Y 3354   5.901   5.061   7.134 -0.4353  0.7551 -0.0289
   25SAPC   C38 3355   5.991   5.244   7.164 -0.5286  0.2072 -0.0512
   25SAPC   H8X 3356   5.901   5.288   7.211  1.3933  1.7719  2.4904
   25SAPC   H8Y 3357   6.038   5.328   7.107 -0.1868 -0.9255 -1.5015
   25SAPC   C39 3358   6.088   5.208   7.277  0.7794  0.4825 -0.0118
   25SAPC   H9X 3359   6.106   5.302   7.333 -2.7787  0.8533  0.7435
   25SAPC   H9Y 3360   6.180   5.170   7.227 -0.0421  0.7525 -1.8399
   25SAPC  C310 3361   6.023   5.103   7.371 -0.3723  0.4380  0.1861
   25SAPC  H10X 3362   6.041   5.004   7.323 -0.3847 -0.9861  2.8673
   25SAPC  H10Y 3363   5.914   5.120   7.371 -0.9288 -2.4889  1.1838
   25SAPC  C311 3364   6.090   5.094   7.511  0.0364 -0.0147  0.2884
   25SAPC  H11X 3365   6.040   5.171   7.572  0.1249 -0.0132  0.3595
   25SAPC  H11Y 3366   6.198   5.120   7.499  0.7883 -2.7578  0.3037
   25SAPC  C312 3367   6.079   4.964   7.577 -0.1815  0.2339 -0.1341
   25SAPC  H12X 3368   6.142   4.887   7.527 -0.8263 -0.7134  0.4838
   25SAPC  H12Y 3369   5.975   4.928   7.592  0.3126 -1.5484 -0.7352
   25SAPC  C313 3370   6.144   4.970   7.720 -0.7167  0.4813  0.1377
   25SAPC  H13X 3371   6.083   5.049   7.769 -1.0881  2.1514 -2.8212
   25SAPC  H13Y 3372   6.250   5.003   7.726  0.0528 -1.9813  2.4845
   25SAPC  C314 3373   6.111   4.834   7.785  0.1431 -0.4609 -0.2929
   25SAPC  H14X 3374   6.163   4.749   7.736  0.2653  0.6339 -2.1877
   25SAPC  H14Y 3375   6.004   4.806   7.773  0.7014 -2.6349 -0.7681
   25SAPC  C315 3376   6.145   4.823   7.937  0.1227 -0.4414 -0.2529
   25SAPC  H15X 3377   6.109   4.905   8.002 -1.5079 -2.2669  1.2988
   25SAPC  H15Y 3378   6.256   4.836   7.942 -0.0089  1.5081 -1.4393
   25SAPC  C316 3379   6.106   4.690   8.001 -0.3088  0.0746 -0.8301
   25SAPC  H16X 3380   6.120   4.613   7.921 -0.8160 -0.4365 -0.4316
   25SAPC  H16Y 3381   5.998   4.681   8.026 -0.2700 -0.6319 -0.8765
   25SAPC  C317 3382   6.170   4.652   8.134  0.2559  0.0775  0.3940
   25SAPC  H17X 3383   6.280   4.663   8.122  0.0037  1.3315 -1.0592
   25SAPC  H17Y 3384   6.133   4.551   8.161 -1.5272  1.4693  3.8099
   25SAPC  C318 3385   6.141   4.753   8.248  0.3918 -0.2197  0.3057
   25SAPC  H18X 3386   6.147   4.702   8.346 -1.3725 -0.6512  0.2335
   25SAPC  H18Y 3387   6.034   4.785   8.240  0.9918  1.8831  0.1320
   25SAPC  H18Z 3388   6.206   4.842   8.241  0.2989 -0.1422  0.4270
   26SAPC     N 3389   4.122   6.134   6.046  0.6143 -0.0792  0.3122
   26SAPC   C12 3390   4.154   6.183   6.188 -0.2942 -0.5294 -0.2064
   26SAPC  H12A 3391   4.261   6.184   6.207 -0.3973  0.2561  0.3860
   26SAPC  H12B 3392   4.129   6.110   6.264 -0.4950 -0.5939 -0.3343
   26SAPC   C13 3393   4.161   6.222   5.933 -0.6830 -0.2661  0.3727
   26SAPC  H13A 3394   4.108   6.316   5.937 -4.0053 -1.9645 -0.0166
   26SAPC  H13B 3395   4.268   6.232   5.930 -0.6385 -0.8811 -0.2463
   26SAPC  H13C 3396   4.123   6.170   5.846 -0.9252 -3.0507  2.0070
   26SAPC   C14 3397   4.198   6.001   6.030 -0.5441  0.2680 -0.3088
   26SAPC  H14A 3398   4.212   5.964   5.929 -0.8497  0.1155 -0.2958
   26SAPC  H14B 3399   4.292   6.005   6.083 -0.7515 -0.9667  0.1873
   26SAPC  H14C 3400   4.150   5.915   6.074 -0.0660 -0.1409 -0.5721
   26SAPC   C15 3401   3.974   6.125   6.031  0.6483  0.2311  0.1478
   26SAPC  H15A 3402   3.943   6.047   6.100 -1.1299  0.5198 -0.2897
   26SAPC  H15B 3403   3.913   6.212   6.044 -1.6336 -1.0560 -1.3064
   26SAPC  H15C 3404   3.962   6.098   5.927 -0.3455  2.0870 -0.2495
   26SAPC   C11 3405   4.097   6.324   6.232  0.0483  0.0703  0.0847
   26SAPC  H11A 3406   4.145   6.403   6.171 -3.3659  2.0593 -0.2516
   26SAPC  H11B 3407   4.132   6.345   6.336  1.4012 -0.5721 -0.2228
   26SAPC     P 3408   3.888   6.466   6.181  0.3401  0.1943  0.1391
   26SAPC   O13 3409   3.944   6.500   6.047 -0.3524  0.2976  0.6863
   26SAPC   O14 3410   3.737   6.456   6.175 -0.3225 -0.0573 -0.3339
   26SAPC   O12 3411   3.957   6.333   6.231  0.5591 -0.5088 -0.0293
   26SAPC   O11 3412   3.925   6.572   6.285  0.1109  0.2695 -0.4255
   26SAPC    C1 3413   3.874   6.595   6.417 -0.4574 -0.4922 -0.2559
   26SAPC    HA 3414   3.824   6.694   6.425  0.8421  0.2278 -0.7946
   26SAPC    HB 3415   3.794   6.522   6.445 -1.8529  0.6217 -1.2042
   26SAPC    C2 3416   3.997   6.596   6.526 -0.1346 -0.4178  0.0429
   26SAPC    HS 3417   4.043   6.496   6.518  0.4212 -0.1716  0.1412
   26SAPC   O21 3418   3.955   6.625   6.657  0.0843 -0.0849  0.1753
   26SAPC   C21 3419   3.853   6.562   6.701  0.1545 -0.2418 -0.3022
   26SAPC   O22 3420   3.805   6.459   6.658  0.3897  0.4945 -0.0339
   26SAPC   C22 3421   3.783   6.646   6.807  0.2516  1.0185 -1.3194
   26SAPC   H2R 3422   3.860   6.669   6.884 -0.6446 -2.6435  0.9153
   26SAPC   H2S 3423   3.732   6.733   6.762 -0.6140  0.5733 -1.2107
   26SAPC    C3 3424   4.103   6.701   6.488  0.1201  0.8980 -0.4134
   26SAPC    HX 3425   4.052   6.798   6.471 -0.2625  0.9130  0.7183
   26SAPC    HY 3426   4.143   6.669   6.390  0.1707  0.5183 -0.2695
   26SAPC   O31 3427   4.215   6.717   6.589 -0.2944  0.1250  0.0401
   26SAPC   C31 3428   4.300   6.620   6.585 -0.4429 -0.6274  0.1591
   26SAPC   O32 3429   4.302   6.528   6.510 -0.1482 -0.7849  0.0954
   26SAPC   C32 3430   4.398   6.646   6.708 -0.5079  0.3332  0.2308
   26SAPC   H2X 3431   4.325   6.643   6.791  0.2138 -0.9172  0.8483
   26SAPC   H2Y 3432   4.453   6.742   6.701 -2.3039  1.5278  1.6101
   26SAPC   C23 3433   3.675   6.559   6.881 -0.4823 -0.0288 -0.3776
   26SAPC   H3R 3434   3.730   6.490   6.949  0.3036  0.2784 -0.6904
   26SAPC   H3S 3435   3.613   6.501   6.809 -3.6771  2.7541 -0.1492
   26SAPC   C24 3436   3.580   6.648   6.962 -0.9000 -0.0436 -0.4557
   26SAPC   H4R 3437   3.516   6.712   6.897 -0.1119  1.7099  0.4293
   26SAPC   H4S 3438   3.643   6.719   7.019  0.9397 -0.9889 -1.2278
   26SAPC   C25 3439   3.502   6.565   7.061  0.6840  0.4526  0.0036
   26SAPC   H5R 3440   3.429   6.501   7.009 -0.1572  1.2802  0.1245
   26SAPC   C26 3441   3.499   6.550   7.195  0.7154 -0.0448 -0.2622
   26SAPC   H6R 3442   3.436   6.471   7.239 -0.4425  1.2193  0.4257
   26SAPC   C27 3443   3.585   6.621   7.287 -0.0789 -0.3582 -0.4410
   26SAPC   H7R 3444   3.691   6.617   7.254 -0.4288 -1.9790 -1.4697
   26SAPC   H7S 3445   3.580   6.556   7.377 -3.4710 -2.3289 -1.8495
   26SAPC   C28 3446   3.536   6.757   7.317  0.0862  0.0774 -0.5526
   26SAPC   H8R 3447   3.500   6.820   7.233 -0.0595  1.0444  0.2216
   26SAPC   C29 3448   3.550   6.814   7.439 -0.0579  0.5274 -0.1509
   26SAPC   H9R 3449   3.517   6.917   7.459  1.9183  1.0124  0.8099
   26SAPC  C210 3450   3.600   6.744   7.563 -1.2223 -0.5868 -0.0686
   26SAPC  H10R 3451   3.679   6.812   7.601 -0.9434 -1.0487  0.1835
   26SAPC  H10S 3452   3.638   6.643   7.539  1.0717  0.7404 -2.4396
   26SAPC  C211 3453   3.483   6.726   7.661 -0.8923  0.1915 -0.4430
   26SAPC  H11R 3454   3.401   6.662   7.625 -1.7850  2.2530 -2.3272
   26SAPC  C212 3455   3.475   6.775   7.786  0.0211  1.0402  1.1058
   26SAPC  H12R 3456   3.378   6.763   7.836 -0.3863  1.1586  0.3703
   26SAPC  C213 3457   3.581   6.851   7.855  0.3961  0.0556  0.4470
   26SAPC  H13R 3458   3.551   6.958   7.849 -1.2228 -0.3243  1.1711
   26SAPC  H13S 3459   3.680   6.835   7.806  1.6800 -0.1033  2.9314
   26SAPC  C214 3460   3.593   6.805   7.998  0.6153  0.4952 -0.4897
   26SAPC  H14R 3461   3.540   6.713   8.027 -1.0898  1.8083  0.8162
   26SAPC  C215 3462   3.658   6.870   8.098  0.0218 -0.0921  0.2548
   26SAPC  H15R 3463   3.671   6.820   8.195  1.2596 -1.4993 -0.6073
   26SAPC  C216 3464   3.740   6.997   8.091  0.1593  0.1531 -0.6935
   26SAPC  H16R 3465   3.702   7.073   8.162  0.6283 -1.3288  1.2528
   26SAPC  H16S 3466   3.737   7.035   7.987  0.0354 -2.4276 -1.7122
   26SAPC  C217 3467   3.888   6.970   8.136 -0.7943  0.8288  0.0189
   26SAPC  H17R 3468   3.945   7.046   8.079 -1.1634 -0.2652 -1.8798
   26SAPC  H17S 3469   3.932   6.872   8.111  0.2994  1.3036  0.0130
   26SAPC  C218 3470   3.905   6.983   8.291 -0.3937 -0.6906 -1.0903
   26SAPC  H18R 3471   3.852   6.899   8.342 -1.4907 -0.3632 -1.6475
   26SAPC  H18S 3472   3.848   7.076   8.314 -1.2359 -1.2738 -0.7463
   26SAPC  C219 3473   4.048   7.001   8.334 -0.2049 -0.2015 -0.0397
   26SAPC  H19R 3474   4.094   7.078   8.269  1.0182 -2.4857 -2.0185
   26SAPC  H19S 3475   4.093   6.907   8.297  2.0548 -0.8326  3.7431
   26SAPC  C220 3476   4.073   7.018   8.484  0.2129  0.0338 -0.0796
   26SAPC  H20R 3477   4.033   7.116   8.520  2.1759  1.1189 -0.6808
   26SAPC  H20S 3478   4.183   7.022   8.499  0.2130  1.1035 -0.2567
   26SAPC  H20T 3479   4.018   6.940   8.540 -0.1198  1.4379  1.6289
   26SAPC   C33 3480   4.504   6.531   6.711 -0.1488  0.1895  0.3215
   26SAPC   H3X 3481   4.572   6.549   6.626 -0.1619  1.8553  0.6356
   26SAPC   H3Y 3482   4.459   6.429   6.709  0.6747 -0.3304  3.1326
   26SAPC   C34 3483   4.586   6.545   6.839 -0.0129  0.0367 -0.1994
   26SAPC   H4X 3484   4.649   6.636   6.839 -1.9963  1.5626  2.2199
   26SAPC   H4Y 3485   4.663   6.464   6.838 -0.4359 -0.3948  0.5084
   26SAPC   C35 3486   4.510   6.520   6.966 -0.7313 -0.4177  0.4712
   26SAPC   H5X 3487   4.464   6.419   6.961 -1.7434  0.0640 -0.2749
   26SAPC   H5Y 3488   4.426   6.591   6.983  0.9311  2.4641 -2.3914
   26SAPC   C36 3489   4.596   6.528   7.089  0.2965  0.3345  0.4783
   26SAPC   H6X 3490   4.649   6.626   7.096  1.1798 -0.0992  0.0664
   26SAPC   H6Y 3491   4.680   6.455   7.095  0.4178  0.4883  0.6912
   26SAPC   C37 3492   4.510   6.505   7.216 -0.0311  0.2774 -0.3679
   26SAPC   H7X 3493   4.468   6.403   7.199  1.4592 -0.1845 -1.4204
   26SAPC   H7Y 3494   4.434   6.585   7.219 -0.5930 -0.2379 -0.6658
   26SAPC   C38 3495   4.603   6.507   7.340 -0.3622 -0.0655 -0.4532
   26SAPC   H8X 3496   4.656   6.604   7.342 -1.3512  0.5238 -1.2050
   26SAPC   H8Y 3497   4.672   6.420   7.334 -1.2819 -0.7631 -1.5688
   26SAPC   C39 3498   4.516   6.498   7.466  0.7555 -0.1403 -0.7939
   26SAPC   H9X 3499   4.445   6.413   7.449  0.8215  0.0908 -2.3581
   26SAPC   H9Y 3500   4.456   6.590   7.481  1.0698 -0.1090  0.3364
   26SAPC  C310 3501   4.596   6.479   7.597  0.1377 -0.2397 -0.6555
   26SAPC  H10X 3502   4.661   6.569   7.597  2.8032 -2.0448 -0.4552
   26SAPC  H10Y 3503   4.658   6.386   7.597  0.2104 -0.2003  0.4314
   26SAPC  C311 3504   4.495   6.466   7.712 -0.1937 -0.3722 -0.2727
   26SAPC  H11X 3505   4.442   6.368   7.714  2.4387 -1.8792  0.8191
   26SAPC  H11Y 3506   4.417   6.544   7.703  0.6343  0.7836  1.7948
   26SAPC  C312 3507   4.565   6.497   7.845 -0.5009 -0.0002 -0.1344
   26SAPC  H12X 3508   4.618   6.595   7.842  1.2725 -0.9468 -1.1304
   26SAPC  H12Y 3509   4.639   6.416   7.862 -0.6106 -0.3828 -1.4149
   26SAPC  C313 3510   4.478   6.514   7.971 -0.3263  0.5379  0.6897
   26SAPC  H13X 3511   4.412   6.424   7.964  2.7088 -1.7427 -0.9529
   26SAPC  H13Y 3512   4.408   6.600   7.963 -0.8025  0.4980  3.4426
   26SAPC  C314 3513   4.551   6.513   8.101 -0.2578  0.2341  0.0014
   26SAPC  H14X 3514   4.659   6.532   8.087 -0.1656 -0.0725  0.2914
   26SAPC  H14Y 3515   4.555   6.409   8.141  1.6685 -1.0229 -3.1148
   26SAPC  C315 3516   4.503   6.616   8.197 -0.1940  0.2224 -0.8891
   26SAPC  H15X 3517   4.392   6.607   8.203 -0.3426  1.3255 -1.6657
   26SAPC  H15Y 3518   4.524   6.721   8.167  2.7344  0.4775  1.6481
   26SAPC  C316 3519   4.578   6.607   8.325 -0.0699  0.0836 -0.1126
   26SAPC  H16X 3520   4.681   6.643   8.302 -0.2932  1.8013  1.3285
   26SAPC  H16Y 3521   4.583   6.503   8.364 -0.5080 -1.1522 -3.1066
   26SAPC  C317 3522   4.515   6.704   8.429 -0.3772  0.5551  0.5102
   26SAPC  H17X 3523   4.407   6.679   8.439 -0.4707  1.3919  1.9563
   26SAPC  H17Y 3524   4.525   6.809   8.395  3.6516  0.1293 -0.0802
   26SAPC  C318 3525   4.582   6.697   8.562  0.1324 -0.0749  0.0053
   26SAPC  H18X 3526   4.613   6.596   8.596 -0.7380 -0.1678  0.5660
   26SAPC  H18Y 3527   4.512   6.726   8.644  0.5040 -3.3417  1.6382
   26SAPC  H18Z 3528   4.663   6.774   8.568 -0.6437  0.7522  0.1182
   27SAPC     N 3529   2.256   6.723   6.220 -0.3541  0.9447  1.1154
   27SAPC   C12 3530   2.103   6.720   6.222 -0.6073  0.2972  0.5393
   27SAPC  H12A 3531   2.078   6.616   6.212  1.6480 -0.6219  3.1034
   27SAPC  H12B 3532   2.057   6.777   6.143 -0.6818 -0.4529  0.0289
   27SAPC   C13 3533   2.309   6.857   6.268 -0.5751  0.1283  0.1211
   27SAPC  H13A 3534   2.251   6.933   6.218 -0.9961 -0.0634  0.3190
   27SAPC  H13B 3535   2.296   6.871   6.374 -0.9333  0.3218  0.0516
   27SAPC  H13C 3536   2.414   6.869   6.247 -0.2911  0.8815  1.8636
   27SAPC   C14 3537   2.294   6.609   6.315 -0.5453 -0.1293 -0.9025
   27SAPC  H14A 3538   2.396   6.629   6.345 -0.2392  2.1513 -3.1638
   27SAPC  H14B 3539   2.230   6.594   6.401 -1.4088  0.3557 -1.4513
   27SAPC  H14C 3540   2.306   6.517   6.259 -1.2705 -1.1356  0.5298
   27SAPC   C15 3541   2.300   6.695   6.084 -0.0255  0.7698  0.0612
   27SAPC  H15A 3542   2.285   6.781   6.021  2.5732  1.3056  0.0903
   27SAPC  H15B 3543   2.406   6.690   6.068 -0.0459  2.1557 -0.6597
   27SAPC  H15C 3544   2.262   6.602   6.043  0.3638 -0.1548  1.6722
   27SAPC   C11 3545   2.021   6.749   6.351  0.4870  0.2356 -0.7103
   27SAPC  H11A 3546   1.915   6.742   6.318  1.0436 -2.1858 -2.2800
   27SAPC  H11B 3547   2.049   6.848   6.392  1.2464 -0.0952 -0.4044
   27SAPC     P 3548   1.929   6.579   6.526 -0.2526 -0.4631 -0.2501
   27SAPC   O13 3549   1.801   6.655   6.497  0.3613  0.6387 -0.8787
   27SAPC   O14 3550   1.924   6.437   6.498  0.6949  0.0538 -0.1805
   27SAPC   O12 3551   2.051   6.646   6.450 -0.1937 -0.3494 -0.0511
   27SAPC   O11 3552   1.974   6.604   6.668  0.4805 -0.0898 -0.6401
   27SAPC    C1 3553   2.036   6.727   6.726 -0.1605 -0.2513  0.0952
   27SAPC    HA 3554   2.141   6.705   6.753 -1.0851 -4.1404  1.0662
   27SAPC    HB 3555   2.039   6.807   6.649 -0.4115 -1.3838 -1.1392
   27SAPC    C2 3556   1.950   6.777   6.845  0.0420 -0.0243  0.3683
   27SAPC    HS 3557   1.980   6.879   6.878  1.5431  0.2631 -1.6808
   27SAPC   O21 3558   1.965   6.697   6.951 -0.3860 -0.0435  0.1935
   27SAPC   C21 3559   2.084   6.680   7.011  0.4211  0.4784  1.0120
   27SAPC   O22 3560   2.192   6.732   6.980 -0.1979 -0.4117 -0.6043
   27SAPC   C22 3561   2.062   6.591   7.142 -0.2429  0.6217  0.2777
   27SAPC   H2R 3562   1.958   6.609   7.179  0.4955  2.4233  1.6229
   27SAPC   H2S 3563   2.073   6.484   7.114  1.9014  0.5619  1.2293
   27SAPC    C3 3564   1.802   6.781   6.811 -0.0276 -0.4850 -0.1233
   27SAPC    HX 3565   1.775   6.675   6.788  1.3120 -1.5281  2.5904
   27SAPC    HY 3566   1.779   6.845   6.723  1.4746 -0.9422 -0.8685
   27SAPC   O31 3567   1.723   6.836   6.921 -0.4760  0.2222  0.1331
   27SAPC   C31 3568   1.595   6.808   6.906  0.0626  0.3272  0.1571
   27SAPC   O32 3569   1.546   6.762   6.802 -0.7033 -0.4512 -0.1458
   27SAPC   C32 3570   1.513   6.864   7.027 -0.2279  0.0668 -0.1108
   27SAPC   H2X 3571   1.411   6.897   6.997 -0.5411 -0.0850  0.7540
   27SAPC   H2Y 3572   1.567   6.953   7.066 -0.6867  0.7527 -1.0175
   27SAPC   C23 3573   2.158   6.627   7.253  0.4927 -0.6025 -0.3440
   27SAPC   H3R 3574   2.117   6.721   7.295 -3.1069 -1.4735 -1.5924
   27SAPC   H3S 3575   2.259   6.645   7.209  0.7128  0.1796  0.4646
   27SAPC   C24 3576   2.170   6.514   7.355  0.0013 -0.1708 -0.0007
   27SAPC   H4R 3577   2.218   6.422   7.314 -0.1523 -0.2481 -0.0041
   27SAPC   H4S 3578   2.066   6.483   7.377  0.4629 -0.4513  1.9120
   27SAPC   C25 3579   2.257   6.556   7.475 -0.1890 -0.2226  0.3592
   27SAPC   H5R 3580   2.365   6.559   7.459 -0.5365  2.2804 -2.3781
   27SAPC   C26 3581   2.211   6.585   7.602  0.8290 -0.0766  0.0571
   27SAPC   H6R 3582   2.289   6.598   7.679  0.8836 -0.1959  0.0214
   27SAPC   C27 3583   2.061   6.585   7.643 -0.0328 -0.4308 -0.5334
   27SAPC   H7R 3584   2.068   6.563   7.752 -1.1460  0.9411 -0.1490
   27SAPC   H7S 3585   2.007   6.505   7.588 -0.7943 -1.3626  1.4625
   27SAPC   C28 3586   1.983   6.708   7.623 -0.7641  0.0223 -0.6018
   27SAPC   H8R 3587   1.910   6.707   7.541 -0.1279  1.3132 -1.2177
   27SAPC   C29 3588   1.984   6.812   7.710  0.0253  0.7096 -0.2522
   27SAPC   H9R 3589   1.900   6.883   7.702 -1.4689 -0.3075  3.8592
   27SAPC  C210 3590   2.065   6.822   7.842  0.8192  0.8991  0.1446
   27SAPC  H10R 3591   2.114   6.921   7.855  2.0552 -0.0271  3.8763
   27SAPC  H10S 3592   2.148   6.748   7.843  0.3777  0.3865  1.5503
   27SAPC  C211 3593   1.980   6.798   7.972  0.1384 -0.2185  0.4259
   27SAPC  H11R 3594   1.884   6.850   7.976  0.3273  0.0819  1.4524
   27SAPC  C212 3595   2.012   6.720   8.073 -1.2575 -0.1321  0.5582
   27SAPC  H12R 3596   1.945   6.723   8.160  0.0297  2.0618  1.5439
   27SAPC  C213 3597   2.140   6.640   8.093 -0.6712 -0.5368 -0.6160
   27SAPC  H13R 3598   2.199   6.668   8.182 -1.1989 -1.1057 -0.0725
   27SAPC  H13S 3599   2.218   6.666   8.019  0.3191  3.5216  1.5956
   27SAPC  C214 3600   2.137   6.489   8.077 -0.0554  0.4187 -0.1321
   27SAPC  H14R 3601   2.166   6.452   7.978  0.2951  0.4094 -0.0279
   27SAPC  C215 3602   2.128   6.400   8.179 -0.1673  0.1506  0.7448
   27SAPC  H15R 3603   2.131   6.294   8.152  0.3838  0.7079 -1.5799
   27SAPC  C216 3604   2.111   6.420   8.327 -0.2247  0.1907 -0.2661
   27SAPC  H16R 3605   2.007   6.394   8.357 -0.1842 -0.1359 -0.3980
   27SAPC  H16S 3606   2.118   6.528   8.350  0.7425  0.4666 -1.6680
   27SAPC  C217 3607   2.220   6.333   8.391  0.3568  0.7520  0.4711
   27SAPC  H17R 3608   2.313   6.393   8.376 -0.5522  1.9731 -0.5279
   27SAPC  H17S 3609   2.229   6.237   8.336 -0.6410 -0.8874  2.9950
   27SAPC  C218 3610   2.195   6.298   8.536  0.2693 -0.5112 -0.1746
   27SAPC  H18R 3611   2.284   6.243   8.574 -0.1615 -0.6262  0.6701
   27SAPC  H18S 3612   2.098   6.247   8.554  0.0571  0.7416  2.7286
   27SAPC  C219 3613   2.187   6.433   8.616  0.2740 -0.1461  0.1372
   27SAPC  H19R 3614   2.120   6.512   8.577  1.3611  0.6932 -0.0762
   27SAPC  H19S 3615   2.287   6.482   8.610  0.9677 -1.1809  2.2367
   27SAPC  C220 3616   2.139   6.435   8.766  0.2557 -0.7740  0.9530
   27SAPC  H20R 3617   2.034   6.398   8.762 -0.1131  0.3497 -2.0687
   27SAPC  H20S 3618   2.157   6.538   8.803  1.2834 -1.1334  1.4922
   27SAPC  H20T 3619   2.202   6.365   8.825  1.9632  0.7869  1.0434
   27SAPC   C33 3620   1.499   6.770   7.142  0.3536  0.4449  0.4005
   27SAPC   H3X 3621   1.452   6.674   7.115 -0.4492  0.5742  1.3090
   27SAPC   H3Y 3622   1.422   6.809   7.212 -0.6528 -0.1561 -0.3455
   27SAPC   C34 3623   1.625   6.747   7.221 -0.3508 -1.1073 -0.3434
   27SAPC   H4X 3624   1.699   6.830   7.228  0.9862 -2.3939  3.1336
   27SAPC   H4Y 3625   1.688   6.676   7.163  0.2213 -0.1195 -0.9681
   27SAPC   C35 3626   1.615   6.695   7.366  0.2870 -0.2666  0.6863
   27SAPC   H5X 3627   1.717   6.683   7.409  0.0500  0.9005  1.6139
   27SAPC   H5Y 3628   1.568   6.595   7.368 -1.9099  0.6846 -0.4996
   27SAPC   C36 3629   1.535   6.778   7.472 -0.4803 -0.2682 -0.2782
   27SAPC   H6X 3630   1.429   6.749   7.457 -0.3629 -1.2321  0.6482
   27SAPC   H6Y 3631   1.545   6.889   7.468 -2.8199  0.0058 -0.0778
   27SAPC   C37 3632   1.559   6.713   7.613  0.2997  0.0260  0.6788
   27SAPC   H7X 3633   1.658   6.744   7.653 -1.0009  1.6182  2.9069
   27SAPC   H7Y 3634   1.553   6.603   7.598  0.8626  0.0955 -0.1194
   27SAPC   C38 3635   1.461   6.760   7.717 -0.8428  0.1013 -0.6160
   27SAPC   H8X 3636   1.360   6.752   7.671 -0.4917 -0.2742 -1.3337
   27SAPC   H8Y 3637   1.479   6.867   7.742  0.6087 -0.4619  0.9357
   27SAPC   C39 3638   1.489   6.686   7.853 -0.2780  0.4876 -0.0896
   27SAPC   H9X 3639   1.598   6.700   7.875 -0.7328  2.9130  0.9945
   27SAPC   H9Y 3640   1.475   6.578   7.835  1.3666  0.2312  0.0113
   27SAPC  C310 3641   1.396   6.731   7.966  0.6828 -0.4296  0.1227
   27SAPC  H10X 3642   1.295   6.762   7.929  0.0645 -1.8338  0.5692
   27SAPC  H10Y 3643   1.434   6.828   8.004  0.3248  0.1473 -0.9520
   27SAPC  C311 3644   1.384   6.637   8.080  0.4892 -0.7264  0.0273
   27SAPC  H11X 3645   1.488   6.609   8.106  0.3048 -0.2126  1.4185
   27SAPC  H11Y 3646   1.318   6.553   8.049 -1.1411  0.8036 -0.9086
   27SAPC  C312 3647   1.324   6.705   8.211  0.1886 -0.2665 -0.3692
   27SAPC  H12X 3648   1.214   6.716   8.197  0.0013  0.9991  1.7043
   27SAPC  H12Y 3649   1.372   6.805   8.207  2.1299 -1.1287  0.1671
   27SAPC  C313 3650   1.361   6.642   8.343 -0.1596 -0.2800 -0.5599
   27SAPC  H13X 3651   1.470   6.640   8.361 -0.4400 -0.4362  1.2993
   27SAPC  H13Y 3652   1.332   6.535   8.347  0.2480 -0.3530  2.1477
   27SAPC  C314 3653   1.295   6.709   8.472 -0.2321 -0.8693  0.3334
   27SAPC  H14X 3654   1.328   6.650   8.560  0.4827 -0.5644  0.2845
   27SAPC  H14Y 3655   1.185   6.707   8.482 -0.4681 -0.7960 -1.6945
   27SAPC  C315 3656   1.340   6.856   8.482 -0.3268 -0.3040  0.2724
   27SAPC  H15X 3657   1.287   6.921   8.409 -1.0630  0.3198  1.3369
   27SAPC  H15Y 3658   1.446   6.874   8.456 -0.5968  4.2277  1.4899
   27SAPC  C316 3659   1.303   6.915   8.616  0.1606 -0.8430  0.7916
   27SAPC  H16X 3660   1.348   6.857   8.699  2.6495  0.5189  0.5009
   27SAPC  H16Y 3661   1.197   6.929   8.646  0.7947 -1.0428  3.3546
   27SAPC  C317 3662   1.366   7.052   8.624  0.2581 -0.7678  0.4585
   27SAPC  H17X 3663   1.477   7.058   8.626  0.3300 -1.4487 -0.7324
   27SAPC  H17Y 3664   1.335   7.086   8.725 -1.9868  0.8518 -0.6880
   27SAPC  C318 3665   1.317   7.153   8.518 -0.5415  0.4283  0.3424
   27SAPC  H18X 3666   1.311   7.255   8.561 -0.5053 -0.4051  2.4389
   27SAPC  H18Y 3667   1.218   7.130   8.473 -0.5764  2.6140 -0.8368
   27SAPC  H18Z 3668   1.392   7.153   8.437 -1.5934 -0.0381 -0.6677
   28SAPC     N 3669   0.310   4.707   6.127 -0.0088  0.0891  0.3418
   28SAPC   C12 3670   0.207   4.620   6.194  0.0838 -0.0553 -0.3767
   28SAPC  H12A 3671   0.137   4.574   6.125 -2.4206  3.0962 -0.1743
   28SAPC  H12B 3672   0.136   4.685   6.244 -1.6900 -1.7912 -0.5072
   28SAPC   C13 3673   0.234   4.794   6.035  0.6386 -0.8439 -0.0395
   28SAPC  H13A 3674   0.284   4.830   5.947 -1.0173  2.4270  0.2026
   28SAPC  H13B 3675   0.150   4.736   6.001  0.1921 -0.5942  0.6132
   28SAPC  H13C 3676   0.192   4.883   6.079 -0.5625 -1.0680 -0.6801
   28SAPC   C14 3677   0.392   4.790   6.219 -0.0914 -0.1750  0.4054
   28SAPC  H14A 3678   0.329   4.856   6.278 -0.7307 -0.1505 -0.2797
   28SAPC  H14B 3679   0.457   4.731   6.281 -3.5096 -3.3346  1.3565
   28SAPC  H14C 3680   0.454   4.846   6.151 -1.7199 -1.3688 -2.2112
   28SAPC   C15 3681   0.395   4.615   6.043  0.3038  0.0635 -0.1379
   28SAPC  H15A 3682   0.324   4.557   5.986  0.7814 -2.5693  1.7505
   28SAPC  H15B 3683   0.460   4.676   5.982  1.0014  0.0413  0.5724
   28SAPC  H15C 3684   0.463   4.548   6.094 -0.3931  0.4707  1.3712
   28SAPC   C11 3685   0.261   4.511   6.293 -0.8615 -0.2399 -0.2910
   28SAPC  H11A 3686   0.166   4.468   6.332 -1.4880  1.5216  0.2328
   28SAPC  H11B 3687   0.318   4.562   6.375 -0.2095  0.2440 -1.0285
   28SAPC     P 3688   0.476   4.364   6.282  0.2545 -0.1095  0.9008
   28SAPC   O13 3689   0.512   4.232   6.236 -0.9933  0.0622  0.3414
   28SAPC   O14 3690   0.578   4.470   6.264 -0.1044  0.3129  0.0685
   28SAPC   O12 3691   0.334   4.404   6.223 -0.1287 -0.0488 -0.1411
   28SAPC   O11 3692   0.449   4.353   6.429 -0.0736  0.0620 -0.1167
   28SAPC    C1 3693   0.539   4.407   6.527 -0.0090  0.0150 -0.0545
   28SAPC    HA 3694   0.643   4.370   6.512  0.0913  0.4626 -0.4659
   28SAPC    HB 3695   0.543   4.516   6.510  3.0457 -0.1954 -1.4613
   28SAPC    C2 3696   0.498   4.370   6.667 -0.0401 -0.5503 -0.2910
   28SAPC    HS 3697   0.584   4.374   6.737 -1.0653  2.7885  0.9650
   28SAPC   O21 3698   0.448   4.236   6.674  0.1276  0.3501  0.2400
   28SAPC   C21 3699   0.529   4.142   6.621  0.5570  0.0031 -1.0131
   28SAPC   O22 3700   0.649   4.146   6.606  0.1989 -0.1988 -0.4417
   28SAPC   C22 3701   0.452   4.007   6.612  0.1982 -0.4726 -0.3775
   28SAPC   H2R 3702   0.362   4.022   6.549  1.3787  0.1873 -1.9779
   28SAPC   H2S 3703   0.519   3.937   6.557 -1.2023 -1.0844 -1.3434
   28SAPC    C3 3704   0.388   4.473   6.719 -0.2232 -0.2640  0.2255
   28SAPC    HX 3705   0.289   4.437   6.682  0.1455 -1.2513  0.1685
   28SAPC    HY 3706   0.410   4.576   6.684  2.1873 -0.8520 -0.1529
   28SAPC   O31 3707   0.379   4.474   6.866 -0.2711 -0.1347  0.0277
   28SAPC   C31 3708   0.486   4.521   6.929  0.2389  0.0789 -0.6305
   28SAPC   O32 3709   0.585   4.572   6.880  0.0544  0.2513  0.2534
   28SAPC   C32 3710   0.444   4.528   7.081  0.1141  0.8288 -0.2068
   28SAPC   H2X 3711   0.500   4.447   7.132 -1.4691  1.4356  2.7258
   28SAPC   H2Y 3712   0.336   4.504   7.085  0.3063 -0.4686 -1.6754
   28SAPC   C23 3713   0.394   3.941   6.742 -0.1954 -0.4004 -1.1328
   28SAPC   H3R 3714   0.352   3.844   6.709 -0.8439 -0.2075 -0.9001
   28SAPC   H3S 3715   0.316   4.004   6.791 -0.4727 -1.9129  0.4890
   28SAPC   C24 3716   0.505   3.916   6.852  0.3503 -0.1366 -0.1645
   28SAPC   H4R 3717   0.578   3.851   6.799 -0.3715 -0.0482 -1.3075
   28SAPC   H4S 3718   0.556   4.013   6.871  2.1725 -0.9495 -0.6943
   28SAPC   C25 3719   0.447   3.859   6.981 -0.0232 -0.1982 -0.2837
   28SAPC   H5R 3720   0.475   3.755   7.001  1.1509  0.4988  2.0795
   28SAPC   C26 3721   0.399   3.936   7.081  0.5630  0.3916  0.4120
   28SAPC   H6R 3722   0.368   3.878   7.169  0.0647 -1.4967 -0.9421
   28SAPC   C27 3723   0.382   4.086   7.072  0.1213 -0.5614  0.5132
   28SAPC   H7R 3724   0.276   4.109   7.095  0.0191  1.0811 -1.2817
   28SAPC   H7S 3725   0.404   4.130   6.972  0.8952 -1.4162  0.2891
   28SAPC   C28 3726   0.465   4.157   7.177  0.0269 -0.2560 -0.5303
   28SAPC   H8R 3727   0.558   4.204   7.142 -0.1753  0.5781  0.0285
   28SAPC   C29 3728   0.423   4.179   7.306  0.2154 -0.1417 -0.6422
   28SAPC   H9R 3729   0.488   4.234   7.375  2.9820  0.8541 -3.7576
   28SAPC  C210 3730   0.294   4.128   7.368 -0.8282 -0.2773  0.9016
   28SAPC  H10R 3731   0.213   4.149   7.295 -0.3338  3.1540  1.1426
   28SAPC  H10S 3732   0.268   4.203   7.446  1.7809 -0.7270  2.3305
   28SAPC  C211 3733   0.305   3.992   7.425 -0.2820  0.6603 -0.3449
   28SAPC  H11R 3734   0.365   3.915   7.373 -0.4134  0.8845 -0.8419
   28SAPC  C212 3735   0.263   3.962   7.549 -0.6185 -0.2883  0.1308
   28SAPC  H12R 3736   0.289   3.860   7.580  1.0440  0.2355  0.5294
   28SAPC  C213 3737   0.203   4.047   7.662  0.0188 -0.2037  0.0930
   28SAPC  H13R 3738   0.104   4.007   7.694 -0.5921  2.1411  1.4275
   28SAPC  H13S 3739   0.186   4.148   7.619 -1.5589  0.2231  1.5670
   28SAPC  C214 3740   0.306   4.063   7.769 -0.3814 -0.2276  0.3525
   28SAPC  H14R 3741   0.379   4.140   7.742 -1.3551  0.3554 -0.7067
   28SAPC  C215 3742   0.328   3.986   7.874  0.4302  0.0899  0.1919
   28SAPC  H15R 3743   0.409   4.010   7.944  0.6900 -0.9468  0.2632
   28SAPC  C216 3744   0.252   3.870   7.917 -0.0823  0.4137 -0.3541
   28SAPC  H16R 3745   0.314   3.787   7.957  0.4760 -0.4171 -2.7396
   28SAPC  H16S 3746   0.205   3.821   7.829 -1.0381 -1.2198  1.0016
   28SAPC  C217 3747   0.148   3.914   8.014  0.8094 -0.9431 -0.6837
   28SAPC  H17R 3748   0.070   3.835   8.013 -0.1516 -0.0103 -0.2845
   28SAPC  H17S 3749   0.098   4.007   7.981  1.2296  0.4330  2.2795
   28SAPC  C218 3750   0.203   3.932   8.164  0.2548 -0.2252  0.4220
   28SAPC  H18R 3751   0.124   3.993   8.213  0.8215  0.3315  0.6529
   28SAPC  H18S 3752   0.308   3.968   8.167  0.0932  0.3294 -0.2417
   28SAPC  C219 3753   0.207   3.802   8.244  0.1878 -0.6614 -0.4211
   28SAPC  H19R 3754   0.284   3.742   8.191  1.4148  1.2758 -0.9583
   28SAPC  H19S 3755   0.105   3.758   8.244  1.1485 -3.0748 -0.4621
   28SAPC  C220 3756   0.256   3.832   8.384 -0.4334  0.5345 -0.2927
   28SAPC  H20R 3757   0.357   3.878   8.379 -0.1977  0.0892  0.1863
   28SAPC  H20S 3758   0.254   3.747   8.456 -1.9973 -0.1941 -1.1464
   28SAPC  H20T 3759   0.198   3.913   8.432 -0.5264 -0.7966  1.9963
   28SAPC   C33 3760   0.464   4.662   7.153  0.3567 -0.5987 -0.7717
   28SAPC   H3X 3761   0.442   4.664   7.261 -0.3925  1.3803 -0.9232
   28SAPC   H3Y 3762   0.396   4.741   7.114  1.9314  2.3323  1.8859
   28SAPC   C34 3763   0.610   4.700   7.143 -0.0388 -0.6011 -0.4960
   28SAPC   H4X 3764   0.631   4.769   7.059  1.4216  0.5570  0.7623
   28SAPC   H4Y 3765   0.665   4.603   7.145 -0.4454 -0.8738  3.0894
   28SAPC   C35 3766   0.666   4.770   7.264 -0.1558  0.1685 -0.7159
   28SAPC   H5X 3767   0.597   4.854   7.288 -0.0018 -0.5870  3.0952
   28SAPC   H5Y 3768   0.759   4.818   7.228  0.1004 -1.6774 -2.7492
   28SAPC   C36 3769   0.693   4.688   7.392 -0.5872  0.6274 -0.8215
   28SAPC   H6X 3770   0.764   4.607   7.364  0.5373  2.2929 -3.1567
   28SAPC   H6Y 3771   0.596   4.656   7.436 -0.4876 -0.4491 -1.3774
   28SAPC   C37 3772   0.772   4.779   7.490 -0.0831 -0.3686 -0.2182
   28SAPC   H7X 3773   0.720   4.877   7.502  1.8081  0.6256  0.2166
   28SAPC   H7Y 3774   0.869   4.798   7.440 -0.3123 -1.3561 -1.0907
   28SAPC   C38 3775   0.782   4.722   7.624 -0.3832 -0.8738 -0.0966
   28SAPC   H8X 3776   0.838   4.626   7.623 -0.7248 -1.0938  0.6040
   28SAPC   H8Y 3777   0.681   4.694   7.663 -0.8986  3.6077  2.5378
   28SAPC   C39 3778   0.838   4.820   7.731 -0.5029  0.4770  0.7049
   28SAPC   H9X 3779   0.777   4.908   7.760 -0.6964  0.0955  1.4622
   28SAPC   H9Y 3780   0.935   4.852   7.686 -0.6171  0.8746  0.7429
   28SAPC  C310 3781   0.889   4.737   7.858  0.4001 -0.6944  0.0478
   28SAPC  H10X 3782   0.943   4.809   7.924 -1.4237  0.6016  0.2251
   28SAPC  H10Y 3783   0.954   4.654   7.826  1.2662 -0.5299  1.2934
   28SAPC  C311 3784   0.770   4.673   7.941 -0.3906 -0.8171  0.0199
   28SAPC  H11X 3785   0.709   4.603   7.880 -0.7117  1.2692 -2.1791
   28SAPC  H11Y 3786   0.697   4.753   7.966  0.9482 -0.0258  1.6160
   28SAPC  C312 3787   0.810   4.620   8.078  0.0650  0.3417 -0.4021
   28SAPC  H12X 3788   0.821   4.706   8.147  1.6354  0.8055 -1.1696
   28SAPC  H12Y 3789   0.914   4.580   8.072 -0.1303 -0.1635 -0.4916
   28SAPC  C313 3790   0.717   4.501   8.135 -0.8987 -0.2377 -0.2819
   28SAPC  H13X 3791   0.772   4.470   8.227 -2.0068  0.2300  0.5572
   28SAPC  H13Y 3792   0.718   4.412   8.070 -0.4882  0.9898 -2.0411
   28SAPC  C314 3793   0.578   4.539   8.161 -0.0038  0.5412 -0.1721
   28SAPC  H14X 3794   0.524   4.453   8.206  1.9030 -0.2919  0.6242
   28SAPC  H14Y 3795   0.530   4.556   8.063 -1.5803 -2.1256  0.0297
   28SAPC  C315 3796   0.567   4.661   8.251 -0.3119  0.2494  0.3396
   28SAPC  H15X 3797   0.621   4.752   8.218  0.4296 -0.1891  0.3150
   28SAPC  H15Y 3798   0.605   4.628   8.350 -0.5517  0.8165  0.6255
   28SAPC  C316 3799   0.417   4.693   8.267  0.0511 -0.4703 -0.0757
   28SAPC  H16X 3800   0.363   4.597   8.281  0.2677 -0.3768  1.6233
   28SAPC  H16Y 3801   0.396   4.738   8.168  1.2456 -0.0350 -0.1514
   28SAPC  C317 3802   0.380   4.788   8.387 -0.4115  0.2033 -0.0634
   28SAPC  H17X 3803   0.421   4.755   8.485 -0.3996  1.1022  0.2426
   28SAPC  H17Y 3804   0.270   4.783   8.381 -0.4868 -1.5811  1.8455
   28SAPC  C318 3805   0.424   4.930   8.361  0.0082  0.3930  0.4269
   28SAPC  H18X 3806   0.532   4.925   8.336  0.7626 -3.0567  3.4904
   28SAPC  H18Y 3807   0.404   4.988   8.453 -2.0927 -0.1208  0.3672
   28SAPC  H18Z 3808   0.357   4.968   8.280  0.8485 -1.2716 -1.1300
   29SAPC     N 3809   2.708   0.502   5.944 -0.3242  0.3120  0.6832
   29SAPC   C12 3810   2.679   0.642   6.006 -0.0818  0.1590  0.6418
   29SAPC  H12A 3811   2.638   0.711   5.934 -0.2169  1.0582  1.5545
   29SAPC  H12B 3812   2.773   0.686   6.035 -0.0905  1.2167 -0.8053
   29SAPC   C13 3813   2.781   0.406   6.038  0.2471 -0.2114  0.6886
   29SAPC  H13A 3814   2.704   0.351   6.090 -0.2590  0.7170  0.9434
   29SAPC  H13B 3815   2.838   0.330   5.987  0.6012 -1.2430  2.5470
   29SAPC  H13C 3816   2.841   0.463   6.107 -1.2551  0.2215  1.6999
   29SAPC   C14 3817   2.582   0.445   5.889 -0.2628  0.3355 -0.5062
   29SAPC  H14A 3818   2.503   0.451   5.962 -0.6026  1.2113 -0.9304
   29SAPC  H14B 3819   2.534   0.506   5.814 -1.9188 -1.5629 -1.0890
   29SAPC  H14C 3820   2.593   0.341   5.863  1.2646 -0.1816  1.9534
   29SAPC   C15 3821   2.795   0.513   5.820 -0.4241  0.3393  0.0213
   29SAPC  H15A 3822   2.747   0.569   5.741  1.5159  0.7745 -0.9225
   29SAPC  H15B 3823   2.894   0.557   5.832 -0.2053 -0.2548  0.4083
   29SAPC  H15C 3824   2.810   0.418   5.772 -2.4708  0.2396 -0.5035
   29SAPC   C11 3825   2.579   0.637   6.121 -0.5136  0.2066  0.0093
   29SAPC  H11A 3826   2.486   0.579   6.104  2.2108 -4.7606  0.2467
   29SAPC  H11B 3827   2.557   0.744   6.143  2.3857  0.6673  1.1807
   29SAPC     P 3828   2.740   0.645   6.338  0.4341  0.2762  0.6142
   29SAPC   O13 3829   2.792   0.542   6.428 -0.0435 -0.2746 -0.0282
   29SAPC   O14 3830   2.841   0.717   6.259  0.4724 -0.8104  0.3036
   29SAPC   O12 3831   2.639   0.576   6.229 -0.4542 -0.4415  0.7196
   29SAPC   O11 3832   2.641   0.742   6.413  0.4479  0.1470 -0.3048
   29SAPC    C1 3833   2.512   0.696   6.459  0.5336  0.8635  0.6094
   29SAPC    HA 3834   2.430   0.732   6.393 -0.8701  1.0549  2.3699
   29SAPC    HB 3835   2.501   0.589   6.433 -1.9179  1.3384 -0.6758
   29SAPC    C2 3836   2.483   0.714   6.601 -0.5620  0.1071 -0.5274
   29SAPC    HS 3837   2.484   0.825   6.612 -1.5926  0.3597 -2.5272
   29SAPC   O21 3838   2.589   0.656   6.678 -0.1926 -0.0468 -0.0773
   29SAPC   C21 3839   2.596   0.523   6.698  0.0715  0.2826  0.8094
   29SAPC   O22 3840   2.522   0.441   6.647 -0.0718  0.4800  0.0609
   29SAPC   C22 3841   2.717   0.500   6.788 -0.2655  0.5429 -0.1959
   29SAPC   H2R 3842   2.805   0.552   6.745 -1.6359  2.5838 -0.6893
   29SAPC   H2S 3843   2.699   0.555   6.882 -0.9492 -0.8030  0.4953
   29SAPC    C3 3844   2.340   0.678   6.646 -0.4588 -0.7245 -0.2648
   29SAPC    HX 3845   2.325   0.578   6.601  0.6041 -0.9912 -0.0541
   29SAPC    HY 3846   2.288   0.755   6.584  0.4593 -0.0137 -0.1625
   29SAPC   O31 3847   2.312   0.692   6.788 -0.0303 -0.0108 -0.3217
   29SAPC   C31 3848   2.258   0.815   6.823 -0.0876 -0.1191 -1.8578
   29SAPC   O32 3849   2.248   0.911   6.750  0.3664  0.0324  0.1061
   29SAPC   C32 3850   2.199   0.813   6.962 -0.3692 -0.0319  1.1500
   29SAPC   H2X 3851   2.272   0.765   7.030 -1.3260 -2.8230  0.3276
   29SAPC   H2Y 3852   2.107   0.752   6.978 -0.6197 -0.2344 -0.7899
   29SAPC   C23 3853   2.758   0.354   6.842 -0.5721 -0.0239 -0.0388
   29SAPC   H3R 3854   2.839   0.323   6.773 -0.4654 -0.3242  0.2212
   29SAPC   H3S 3855   2.674   0.282   6.836 -1.4833  0.9152  0.9680
   29SAPC   C24 3856   2.810   0.358   6.982  0.3629 -0.2847  0.6796
   29SAPC   H4R 3857   2.740   0.409   7.052  0.0999 -0.0476  0.2479
   29SAPC   H4S 3858   2.904   0.416   6.979  2.5071 -3.4743  0.9903
   29SAPC   C25 3859   2.840   0.225   7.044  0.0812  0.0352 -1.1020
   29SAPC   H5R 3860   2.943   0.191   7.024  1.1378  0.6011  2.5821
   29SAPC   C26 3861   2.750   0.141   7.092 -0.1771  1.1079 -0.1515
   29SAPC   H6R 3862   2.788   0.044   7.129  0.8075  0.4875 -2.5780
   29SAPC   C27 3863   2.598   0.165   7.110 -0.1961 -0.0215  0.2437
   29SAPC   H7R 3864   2.547   0.067   7.094 -0.2882  0.2307 -1.1112
   29SAPC   H7S 3865   2.560   0.233   7.031 -2.0203 -2.4052 -1.1034
   29SAPC   C28 3866   2.569   0.241   7.236  0.0447  0.0283  0.5122
   29SAPC   H8R 3867   2.517   0.334   7.210 -0.5840 -0.2396  0.7867
   29SAPC   C29 3868   2.583   0.213   7.366 -0.3277  0.1727  0.4125
   29SAPC   H9R 3869   2.568   0.289   7.444 -0.4753  2.0110 -1.3216
   29SAPC  C210 3870   2.629   0.086   7.425  0.5655 -0.1075  0.0407
   29SAPC  H10R 3871   2.622   0.001   7.354  0.3234 -0.6341  0.6863
   29SAPC  H10S 3872   2.545   0.058   7.491  0.8590 -0.6094  0.2006
   29SAPC  C211 3873   2.761   0.095   7.488  0.4825  1.1878  0.4275
   29SAPC  H11R 3874   2.847   0.088   7.419 -2.2507  0.8753 -3.2106
   29SAPC  C212 3875   2.764   0.091   7.623  0.0880  0.5398  0.3249
   29SAPC  H12R 3876   2.864   0.078   7.667 -0.1480  2.8917  1.7571
   29SAPC  C213 3877   2.661   0.097   7.726  0.6054  0.5903 -0.6527
   29SAPC  H13R 3878   2.612  -0.003   7.735  1.4200  0.2887  0.8735
   29SAPC  H13S 3879   2.592   0.179   7.700  1.8491  1.8438 -0.1339
   29SAPC  C214 3880   2.714   0.138   7.861 -0.5177  0.5114 -0.3978
   29SAPC  H14R 3881   2.810   0.191   7.860  0.1189 -0.6273 -0.2475
   29SAPC  C215 3882   2.658   0.110   7.978  0.1849 -0.3035  0.1125
   29SAPC  H15R 3883   2.717   0.123   8.070  2.8450  0.2688 -1.5767
   29SAPC  C216 3884   2.527   0.037   7.999  0.2451 -0.5022  0.2037
   29SAPC  H16R 3885   2.463   0.028   7.909  1.5590  0.2922 -0.8478
   29SAPC  H16S 3886   2.468   0.089   8.077  0.1226 -0.5047  0.1131
   29SAPC  C217 3887   2.533  -0.112   8.042  0.6903  0.2231  0.2040
   29SAPC  H17R 3888   2.579  -0.172   7.960 -1.0062 -0.3147 -0.3906
   29SAPC  H17S 3889   2.426  -0.140   8.051  0.8039  0.3761  2.6199
   29SAPC  C218 3890   2.594  -0.131   8.175  0.4611  0.0927 -0.1447
   29SAPC  H18R 3891   2.561  -0.049   8.243 -0.7282 -0.9750  0.6073
   29SAPC  H18S 3892   2.704  -0.126   8.162  0.4174  0.5702 -0.3798
   29SAPC  C219 3893   2.550  -0.258   8.244  0.2824 -0.1621 -0.1518
   29SAPC  H19R 3894   2.455  -0.239   8.299 -0.0987 -1.2052 -0.4270
   29SAPC  H19S 3895   2.622  -0.283   8.324  0.2155 -0.5736 -0.2173
   29SAPC  C220 3896   2.524  -0.384   8.162 -0.2569  0.0279 -0.4777
   29SAPC  H20R 3897   2.612  -0.414   8.101  0.9762  2.5204 -0.0434
   29SAPC  H20S 3898   2.425  -0.394   8.112 -0.0976  0.3197 -0.8470
   29SAPC  H20T 3899   2.519  -0.465   8.238  0.7789  0.1872 -0.2237
   29SAPC   C33 3900   2.144   0.955   7.017 -0.4259  0.5053  0.3980
   29SAPC   H3X 3901   2.069   0.981   6.940  0.0809 -0.7604 -0.5598
   29SAPC   H3Y 3902   2.230   1.025   7.001 -0.1969 -0.2064 -1.9673
   29SAPC   C34 3903   2.102   0.955   7.162  0.3250 -0.1503  0.3598
   29SAPC   H4X 3904   2.038   0.867   7.183 -2.8938  1.2999 -2.4286
   29SAPC   H4Y 3905   2.049   1.053   7.168  2.7097  1.5908 -3.1569
   29SAPC   C35 3906   2.234   0.964   7.247 -0.7062  0.3079  0.5854
   29SAPC   H5X 3907   2.296   1.054   7.225 -2.2072  1.4784  0.9158
   29SAPC   H5Y 3908   2.292   0.877   7.211 -0.7354  0.5309 -0.0067
   29SAPC   C36 3909   2.197   0.942   7.399  0.2897  0.2257  0.0091
   29SAPC   H6X 3910   2.121   1.014   7.436  0.2350  1.5670 -2.4704
   29SAPC   H6Y 3911   2.290   0.958   7.457 -0.9385 -0.6087  2.3161
   29SAPC   C37 3912   2.145   0.801   7.435 -0.0391 -0.1132  0.2800
   29SAPC   H7X 3913   2.229   0.737   7.399  0.8938 -0.0513  2.2124
   29SAPC   H7Y 3914   2.055   0.779   7.373  1.4625 -2.2884 -1.3457
   29SAPC   C38 3915   2.109   0.786   7.581 -0.8441  0.3286  0.2766
   29SAPC   H8X 3916   2.055   0.689   7.586  0.1440 -0.3878 -1.7371
   29SAPC   H8Y 3917   2.037   0.862   7.619 -0.8206 -0.3868  1.8065
   29SAPC   C39 3918   2.238   0.768   7.661  0.6396  0.1047 -0.1801
   29SAPC   H9X 3919   2.290   0.866   7.659 -0.4389  0.6887 -0.3784
   29SAPC   H9Y 3920   2.297   0.687   7.614  1.8329  0.8307  0.0424
   29SAPC  C310 3921   2.208   0.726   7.813 -0.0034 -0.1505  0.4212
   29SAPC  H10X 3922   2.296   0.671   7.854  0.3697 -0.1990 -0.4325
   29SAPC  H10Y 3923   2.123   0.655   7.802  1.6658 -1.9666 -1.5549
   29SAPC  C311 3924   2.186   0.849   7.895 -0.7362 -0.6227  0.0610
   29SAPC  H11X 3925   2.091   0.901   7.870  0.4568  0.7281 -1.9670
   29SAPC  H11Y 3926   2.262   0.930   7.885 -0.1406 -0.9724  1.4832
   29SAPC  C312 3927   2.184   0.795   8.036 -0.1316  0.5184 -0.6358
   29SAPC  H12X 3928   2.279   0.739   8.046 -0.1949  0.5387  0.1953
   29SAPC  H12Y 3929   2.104   0.718   8.039 -0.6645  1.0719 -0.3706
   29SAPC  C313 3930   2.166   0.898   8.148 -0.4600 -0.3045  0.3039
   29SAPC  H13X 3931   2.074   0.954   8.121  1.3223  1.7122 -2.0007
   29SAPC  H13Y 3932   2.253   0.966   8.133  0.2078 -1.1131  0.4404
   29SAPC  C314 3933   2.159   0.830   8.290 -0.0076 -0.0812  0.0512
   29SAPC  H14X 3934   2.250   0.770   8.310  0.6725  1.1815  0.8888
   29SAPC  H14Y 3935   2.071   0.763   8.292  0.4372 -0.6822 -0.2264
   29SAPC  C315 3936   2.135   0.918   8.412 -0.8750  0.3825 -0.0710
   29SAPC  H15X 3937   2.033   0.959   8.395 -2.0028 -1.0212  2.5866
   29SAPC  H15Y 3938   2.213   0.997   8.410 -2.2760  1.8965  1.4777
   29SAPC  C316 3939   2.147   0.845   8.545  0.3460 -0.1627 -0.0174
   29SAPC  H16X 3940   2.247   0.796   8.545  0.1812 -0.5640  1.6025
   29SAPC  H16Y 3941   2.064   0.771   8.557 -0.7116  1.2101  1.4973
   29SAPC  C317 3942   2.146   0.942   8.669 -0.0325  0.2440  1.1145
   29SAPC  H17X 3943   2.201   1.036   8.644  2.1389 -0.2446  3.5714
   29SAPC  H17Y 3944   2.210   0.896   8.748  0.5137 -1.7689 -0.4224
   29SAPC  C318 3945   2.008   0.975   8.726  0.2661  0.0063  0.1588
   29SAPC  H18X 3946   1.976   0.885   8.782 -0.5423  0.6868  0.8160
   29SAPC  H18Y 3947   1.941   0.997   8.640  0.9098 -0.3181 -0.4408
   29SAPC  H18Z 3948   2.007   1.059   8.799  1.8095 -1.1983  1.6660
   30SAPC     N 3949   4.543   6.871   6.138  0.0458 -0.0172  0.8079
   30SAPC   C12 3950   4.550   7.004   6.219  0.0978 -0.2053  0.5934
   30SAPC  H12A 3951   4.464   7.007   6.283 -0.8021  1.5068 -0.6067
   30SAPC  H12B 3952   4.537   7.082   6.146 -0.3393 -1.9587 -1.3238
   30SAPC   C13 3953   4.656   6.858   6.040 -0.7437 -0.2112  0.4497
   30SAPC  H13A 3954   4.660   6.939   5.969 -0.8825 -1.6833 -1.3355
   30SAPC  H13B 3955   4.750   6.847   6.091 -0.7393 -2.3439  0.0942
   30SAPC  H13C 3956   4.636   6.772   5.977 -2.8045  0.6618 -0.2011
   30SAPC   C14 3957   4.548   6.744   6.220  0.4453  0.2557  0.5002
   30SAPC  H14A 3958   4.462   6.732   6.285 -1.0061  1.2987 -1.1395
   30SAPC  H14B 3959   4.558   6.655   6.160  1.0083 -0.2464  1.3100
   30SAPC  H14C 3960   4.638   6.741   6.279  0.1970 -0.5769  0.8566
   30SAPC   C15 3961   4.412   6.875   6.060  0.4036 -0.0394  0.0080
   30SAPC  H15A 3962   4.318   6.879   6.114 -1.2557  3.0423 -2.7159
   30SAPC  H15B 3963   4.407   6.951   5.984 -0.9706 -2.1121 -2.0915
   30SAPC  H15C 3964   4.409   6.791   5.993  1.0756  0.2352 -0.3801
   30SAPC   C11 3965   4.675   7.024   6.304 -0.0520 -0.1061 -0.2342
   30SAPC  H11A 3966   4.688   6.927   6.357  1.2623  0.9931  1.6021
   30SAPC  H11B 3967   4.656   7.100   6.383  2.0696 -0.7231  0.9550
   30SAPC     P 3968   4.808   7.191   6.148 -0.0492  0.6019 -0.1958
   30SAPC   O13 3969   4.951   7.211   6.143  0.8584 -0.0617  0.6280
   30SAPC   O14 3970   4.733   7.200   6.019 -0.9926 -0.1481 -0.2490
   30SAPC   O12 3971   4.783   7.056   6.225  0.7609  0.4692 -0.0674
   30SAPC   O11 3972   4.743   7.294   6.249 -0.2293 -0.3062 -0.4801
   30SAPC    C1 3973   4.816   7.402   6.314  0.6221  0.3373  0.5191
   30SAPC    HA 3974   4.888   7.451   6.245  1.2644 -1.2580  0.0034
   30SAPC    HB 3975   4.738   7.480   6.330 -0.3072 -0.4893  0.1349
   30SAPC    C2 3976   4.876   7.366   6.451  0.5821  0.0163 -0.2388
   30SAPC    HS 3977   4.944   7.281   6.430  0.7454 -0.2010  1.0743
   30SAPC   O21 3978   4.768   7.328   6.548  0.0010  0.3392  0.6451
   30SAPC   C21 3979   4.796   7.221   6.616 -0.0044 -0.2390 -0.0173
   30SAPC   O22 3980   4.905   7.167   6.629 -0.1957  0.5048  0.1240
   30SAPC   C22 3981   4.671   7.173   6.691 -0.0727 -0.1551 -0.4708
   30SAPC   H2R 3982   4.654   7.262   6.756  0.8889  1.8996 -2.8550
   30SAPC   H2S 3983   4.590   7.174   6.615 -0.7432 -2.9529  0.1051
   30SAPC    C3 3984   4.954   7.481   6.516 -0.5770  0.6298 -0.8039
   30SAPC    HX 3985   4.898   7.575   6.535 -1.2717 -0.2416  1.7643
   30SAPC    HY 3986   5.042   7.497   6.449  0.2781 -0.1168  0.1152
   30SAPC   O31 3987   5.023   7.448   6.641 -0.3901 -0.4010  0.2538
   30SAPC   C31 3988   4.959   7.486   6.750  0.3767 -0.9714 -0.0243
   30SAPC   O32 3989   4.860   7.558   6.762 -0.3660 -0.5380 -0.0513
   30SAPC   C32 3990   5.026   7.419   6.872  0.8694  0.3594 -0.7711
   30SAPC   H2X 3991   5.133   7.447   6.875  1.2597 -1.0366  2.4621
   30SAPC   H2Y 3992   5.029   7.308   6.860 -0.3828  0.1107  0.8131
   30SAPC   C23 3993   4.685   7.038   6.765 -0.2220  0.2523  0.4501
   30SAPC   H3R 3994   4.750   6.978   6.699 -0.6202  0.2836  0.0252
   30SAPC   H3S 3995   4.584   6.993   6.776  0.2306 -1.0929 -0.6404
   30SAPC   C24 3996   4.760   7.038   6.896 -0.3196  0.3364  0.7025
   30SAPC   H4R 3997   4.870   7.042   6.878 -0.4548 -0.0493 -0.2880
   30SAPC   H4S 3998   4.737   6.939   6.942 -0.6547  0.7549  1.4562
   30SAPC   C25 3999   4.725   7.136   7.006 -0.3781 -0.8250  0.5113
   30SAPC   H5R 4000   4.752   7.240   6.982  2.6364 -1.3505  1.2292
   30SAPC   C26 4001   4.682   7.109   7.129  0.2539  0.1132  0.5634
   30SAPC   H6R 4002   4.662   7.199   7.189  0.2819 -0.1526  0.9736
   30SAPC   C27 4003   4.657   6.972   7.196 -0.5694 -0.7112  0.8539
   30SAPC   H7R 4004   4.619   6.899   7.121  0.0541 -1.3219  1.1312
   30SAPC   H7S 4005   4.587   6.977   7.282 -0.4947 -3.9255  1.1918
   30SAPC   C28 4006   4.792   6.913   7.239 -0.1528  0.4233  0.2140
   30SAPC   H8R 4007   4.838   6.854   7.159 -1.3350  0.0806 -0.2451
   30SAPC   C29 4008   4.851   6.924   7.361  0.0769 -0.3396  0.2148
   30SAPC   H9R 4009   4.941   6.864   7.379 -0.0302 -1.0251 -1.3809
   30SAPC  C210 4010   4.796   7.007   7.470  0.5942  0.4791 -0.2993
   30SAPC  H10R 4011   4.743   7.098   7.436  0.8226  0.5755 -0.3931
   30SAPC  H10S 4012   4.880   7.053   7.526 -0.4276 -0.3577  2.0896
   30SAPC  C211 4013   4.702   6.926   7.561 -0.7245  0.0899  0.3807
   30SAPC  H11R 4014   4.599   6.942   7.525 -0.0384 -1.3984 -2.5042
   30SAPC  C212 4015   4.723   6.862   7.678  0.1212  0.1413 -0.1902
   30SAPC  H12R 4016   4.638   6.811   7.726 -1.5106  2.3871 -0.5323
   30SAPC  C213 4017   4.861   6.840   7.744 -0.3513  0.2933  1.0218
   30SAPC  H13R 4018   4.941   6.907   7.706 -1.4868  0.5838 -0.9695
   30SAPC  H13S 4019   4.897   6.744   7.702 -0.0076  0.5255  0.7796
   30SAPC  C214 4020   4.846   6.860   7.892 -0.0706  0.2905  0.4507
   30SAPC  H14R 4021   4.819   6.965   7.914  0.0830  1.3597 -3.6046
   30SAPC  C215 4022   4.869   6.773   7.993 -0.3698  0.1931  0.7428
   30SAPC  H15R 4023   4.844   6.805   8.095  0.5281  2.3431  0.3420
   30SAPC  C216 4024   4.922   6.636   7.970  0.2454 -0.0454  0.3308
   30SAPC  H16R 4025   4.894   6.594   7.872 -0.7257  0.5402  0.3429
   30SAPC  H16S 4026   4.865   6.565   8.034 -1.1225 -0.0651 -0.8668
   30SAPC  C217 4027   5.065   6.628   8.015 -0.2125 -0.4815  0.5782
   30SAPC  H17R 4028   5.127   6.690   7.947 -1.9997 -1.2201 -1.8691
   30SAPC  H17S 4029   5.089   6.522   7.993 -0.5488 -0.1315 -1.7168
   30SAPC  C218 4030   5.092   6.641   8.165  0.0787 -0.4351 -0.4835
   30SAPC  H18R 4031   5.024   6.590   8.236 -0.7744 -0.3893 -1.2488
   30SAPC  H18S 4032   5.090   6.747   8.197  0.4360  0.1842 -2.3451
   30SAPC  C219 4033   5.242   6.611   8.193 -0.0773  0.4142 -0.3095
   30SAPC  H19R 4034   5.279   6.520   8.141  1.8915  1.2826 -0.5186
   30SAPC  H19S 4035   5.253   6.595   8.303  0.9822  0.5852 -0.3849
   30SAPC  C220 4036   5.326   6.724   8.147 -0.7196 -0.9690  0.3928
   30SAPC  H20R 4037   5.336   6.730   8.036 -2.9411  3.0024  0.2101
   30SAPC  H20S 4038   5.429   6.709   8.187  0.4242  0.1632 -1.9208
   30SAPC  H20T 4039   5.282   6.821   8.177 -2.1622 -1.3599 -0.3656
   30SAPC   C33 4040   4.960   7.451   7.007 -0.3358 -0.2426 -0.0247
   30SAPC   H3X 4041   4.854   7.420   6.994  0.0185 -1.5564  0.0125
   30SAPC   H3Y 4042   4.949   7.560   7.027  3.6900 -0.1055  2.4633
   30SAPC   C34 4043   5.029   7.381   7.128  0.0397  0.2893  0.1593
   30SAPC   H4X 4044   5.138   7.402   7.131 -0.2842  1.9822  1.2562
   30SAPC   H4Y 4045   5.007   7.273   7.112 -1.3392  0.2365  2.1509
   30SAPC   C35 4046   4.971   7.423   7.265 -0.6229 -0.0343 -0.2428
   30SAPC   H5X 4047   4.861   7.417   7.258 -0.6013 -0.8803  0.0803
   30SAPC   H5Y 4048   4.980   7.532   7.285 -1.3346 -0.0718  0.3134
   30SAPC   C36 4049   5.019   7.337   7.386 -0.8122  0.2392  0.2211
   30SAPC   H6X 4050   5.114   7.383   7.420  0.1414 -0.3985 -1.4351
   30SAPC   H6Y 4051   5.032   7.232   7.351 -2.1210  0.5045 -1.2162
   30SAPC   C37 4052   4.916   7.350   7.501  0.1495  0.5206  0.1288
   30SAPC   H7X 4053   4.815   7.310   7.477  1.1584 -2.2354  0.0516
   30SAPC   H7Y 4054   4.901   7.460   7.506  0.1022  0.4836  1.0520
   30SAPC   C38 4055   4.965   7.301   7.637  0.7134  0.4834  0.0360
   30SAPC   H8X 4056   5.047   7.368   7.671  0.4002  1.3899 -0.9214
   30SAPC   H8Y 4057   5.005   7.198   7.637 -0.8490 -0.1396  0.2089
   30SAPC   C39 4058   4.854   7.299   7.743 -0.0181  0.5890 -0.3452
   30SAPC   H9X 4059   4.767   7.236   7.714 -0.8207  1.6019 -0.2083
   30SAPC   H9Y 4060   4.809   7.401   7.751 -0.9684  0.2385 -0.9922
   30SAPC  C310 4061   4.904   7.260   7.881  0.1582  0.2737  0.0978
   30SAPC  H10X 4062   4.997   7.319   7.895  0.9436 -0.1718 -2.7719
   30SAPC  H10Y 4063   4.944   7.156   7.872  0.2929  0.3178  0.1788
   30SAPC  C311 4064   4.806   7.267   7.997  0.1584 -0.5163  0.9456
   30SAPC  H11X 4065   4.753   7.171   8.015 -2.9466  1.2254  1.9497
   30SAPC  H11Y 4066   4.729   7.344   7.973 -1.2047 -1.8046  1.0585
   30SAPC  C312 4067   4.874   7.311   8.128  0.0857  0.1780  0.1971
   30SAPC  H12X 4068   4.917   7.409   8.097 -1.7048  1.0651  0.3651
   30SAPC  H12Y 4069   4.952   7.237   8.155 -1.0776 -0.3840  2.1900
   30SAPC  C313 4070   4.773   7.339   8.245 -0.5459 -0.0551  0.2141
   30SAPC  H13X 4071   4.726   7.239   8.259  1.1555 -1.1078 -1.0987
   30SAPC  H13Y 4072   4.688   7.404   8.215 -0.3202  1.4191  2.5075
   30SAPC  C314 4073   4.839   7.407   8.366 -0.1334  0.7060  0.0914
   30SAPC  H14X 4074   4.763   7.429   8.443 -1.3831 -0.9186 -0.6279
   30SAPC  H14Y 4075   4.872   7.504   8.322  2.1717  0.4538  1.0896
   30SAPC  C315 4076   4.960   7.334   8.428  0.4874  0.0911 -0.1863
   30SAPC  H15X 4077   5.046   7.303   8.364  0.7824 -0.9716  0.6959
   30SAPC  H15Y 4078   4.926   7.232   8.457  0.8101 -0.3042 -1.1697
   30SAPC  C316 4079   5.008   7.418   8.548  0.1191 -0.1410 -0.5771
   30SAPC  H16X 4080   4.927   7.457   8.613  0.8239 -1.3828  1.1004
   30SAPC  H16Y 4081   5.066   7.504   8.509 -0.3268  0.6963  0.5676
   30SAPC  C317 4082   5.111   7.348   8.638 -1.1835 -0.2327 -0.1185
   30SAPC  H17X 4083   5.073   7.248   8.672 -1.1883 -0.8010 -1.7325
   30SAPC  H17Y 4084   5.130   7.412   8.727  2.2509 -0.6401 -0.4400
   30SAPC  C318 4085   5.248   7.316   8.568  0.6110  0.2530 -0.5142
   30SAPC  H18X 4086   5.226   7.235   8.494  0.5221 -0.4871  0.3069
   30SAPC  H18Y 4087   5.315   7.276   8.647 -1.3830 -1.1233  0.5634
   30SAPC  H18Z 4088   5.291   7.405   8.518  2.3818 -0.6358 -0.6548
   31SAPC     N 4089   6.260   1.243   5.754  0.6208 -0.4470 -0.6158
   31SAPC   C12 4090   6.241   1.385   5.811  0.1965  0.0479  0.1206
   31SAPC  H12A 4091   6.146   1.421   5.774  0.3866 -0.2408 -0.6580
   31SAPC  H12B 4092   6.309   1.456   5.767 -1.1206  0.4794 -1.3174
   31SAPC   C13 4093   6.184   1.139   5.830 -0.5986 -0.1672 -0.0816
   31SAPC  H13A 4094   6.089   1.181   5.860 -0.3018 -1.5245  3.1571
   31SAPC  H13B 4095   6.184   1.046   5.775 -0.6361  0.3855 -1.0359
   31SAPC  H13C 4096   6.240   1.136   5.922  0.3571  0.7407 -0.6106
   31SAPC   C14 4097   6.209   1.235   5.614 -0.1820  0.2206  0.0040
   31SAPC  H14A 4098   6.105   1.265   5.613 -0.7398 -1.5590 -1.9340
   31SAPC  H14B 4099   6.271   1.297   5.550  1.9087 -2.4119 -0.6774
   31SAPC  H14C 4100   6.213   1.136   5.571 -3.0767 -0.2992  0.6769
   31SAPC   C15 4101   6.407   1.206   5.759  0.4683  0.1209 -0.8045
   31SAPC  H15A 4102   6.460   1.249   5.676 -0.8155  1.1574 -1.1199
   31SAPC  H15B 4103   6.463   1.217   5.851 -1.4435 -2.5114  0.8500
   31SAPC  H15C 4104   6.413   1.098   5.757  1.0746  0.0145  2.1786
   31SAPC   C11 4105   6.254   1.416   5.958  0.1925 -0.6492 -0.5023
   31SAPC  H11A 4106   6.255   1.526   5.975  0.7968 -0.4853 -1.4766
   31SAPC  H11B 4107   6.360   1.388   5.978 -0.3620 -0.9978  2.2897
   31SAPC     P 4108   6.215   1.344   6.208 -0.4427 -0.1232 -0.3472
   31SAPC   O13 4109   6.091   1.344   6.287  0.1052 -0.0792 -0.8011
   31SAPC   O14 4110   6.314   1.242   6.233 -0.2186 -0.9023 -0.6177
   31SAPC   O12 4111   6.175   1.345   6.050  0.6697  0.2393  0.3309
   31SAPC   O11 4112   6.299   1.481   6.214 -0.0583  0.0023 -0.2278
   31SAPC    C1 4113   6.235   1.608   6.258  0.0243  0.1055 -0.2533
   31SAPC    HA 4114   6.225   1.669   6.166  1.7321  0.7085 -0.0708
   31SAPC    HB 4115   6.132   1.591   6.296  0.0632 -0.4985 -0.4066
   31SAPC    C2 4116   6.305   1.689   6.368 -0.1746 -0.1857  0.2809
   31SAPC    HS 4117   6.406   1.720   6.333  0.1974 -1.3290  0.2848
   31SAPC   O21 4118   6.318   1.605   6.489  0.3373 -0.4991 -0.1929
   31SAPC   C21 4119   6.419   1.516   6.478 -0.4006  0.2024  0.1679
   31SAPC   O22 4120   6.497   1.519   6.386 -0.0625  0.1282 -0.3624
   31SAPC   C22 4121   6.417   1.434   6.607  0.8102  0.0222  0.1503
   31SAPC   H2R 4122   6.313   1.395   6.615  0.7067  0.2058 -0.3281
   31SAPC   H2S 4123   6.478   1.343   6.591 -0.4540 -0.9157  0.4805
   31SAPC    C3 4124   6.222   1.816   6.400 -0.8115 -0.2354 -0.2326
   31SAPC    HX 4125   6.114   1.788   6.396 -0.6178 -0.8652 -2.3084
   31SAPC    HY 4126   6.231   1.896   6.324  2.3272  1.1797  1.4301
   31SAPC   O31 4127   6.262   1.865   6.530  0.3542  0.0143  0.1567
   31SAPC   C31 4128   6.168   1.922   6.608 -0.3576  0.1444  1.2252
   31SAPC   O32 4129   6.051   1.947   6.573  0.1013  0.8210  0.1162
   31SAPC   C32 4130   6.231   1.959   6.745 -0.1047 -0.2422 -0.3250
   31SAPC   H2X 4131   6.299   2.038   6.706 -0.3786 -1.3204 -3.2487
   31SAPC   H2Y 4132   6.301   1.881   6.781  0.2350  0.9239  1.7035
   31SAPC   C23 4133   6.478   1.499   6.735  0.2692  0.1277  0.4513
   31SAPC   H3R 4134   6.578   1.536   6.705  2.0654 -3.1228  1.8160
   31SAPC   H3S 4135   6.502   1.414   6.804 -1.0736 -0.6248  0.0367
   31SAPC   C24 4136   6.408   1.620   6.803  0.5424  0.2611  0.9658
   31SAPC   H4R 4137   6.301   1.596   6.816  0.2879  0.2721 -0.7998
   31SAPC   H4S 4138   6.405   1.697   6.723  1.7780 -0.5944  0.0511
   31SAPC   C25 4139   6.471   1.676   6.924 -0.3387 -0.2969  0.4425
   31SAPC   H5R 4140   6.574   1.714   6.912 -0.0538 -1.2802 -0.5147
   31SAPC   C26 4141   6.427   1.676   7.050 -0.1029  0.4624  0.3202
   31SAPC   H6R 4142   6.470   1.743   7.126 -0.8487 -0.4047  1.5689
   31SAPC   C27 4143   6.295   1.611   7.086 -0.5133  0.2138 -0.1495
   31SAPC   H7R 4144   6.269   1.545   7.000 -1.4674  1.2562 -0.6907
   31SAPC   H7S 4145   6.218   1.689   7.102 -0.2577  0.4434 -0.0379
   31SAPC   C28 4146   6.309   1.522   7.207  0.2252 -0.2057  0.8136
   31SAPC   H8R 4147   6.328   1.419   7.174  1.3938  0.8772 -2.2908
   31SAPC   C29 4148   6.319   1.560   7.332 -0.6134 -0.2215  0.0894
   31SAPC   H9R 4149   6.320   1.490   7.417 -0.2504 -0.3840 -0.0483
   31SAPC  C210 4150   6.315   1.709   7.380  0.3264 -0.3835  0.2837
   31SAPC  H10R 4151   6.218   1.723   7.432 -0.6235 -2.5164 -0.8102
   31SAPC  H10S 4152   6.315   1.791   7.305 -0.1160 -1.4063 -0.8650
   31SAPC  C211 4153   6.426   1.725   7.471  1.1929 -0.2482  0.1588
   31SAPC  H11R 4154   6.524   1.721   7.422  1.4670  0.0273  0.6700
   31SAPC  C212 4155   6.423   1.717   7.603  0.0752  0.3260 -0.5514
   31SAPC  H12R 4156   6.522   1.728   7.651 -0.2755 -2.1692  0.9097
   31SAPC  C213 4157   6.307   1.697   7.696  0.0272 -0.2961  0.3965
   31SAPC  H13R 4158   6.229   1.685   7.617  3.4589 -0.0874 -3.3805
   31SAPC  H13S 4159   6.293   1.795   7.747  1.3596  0.2799 -0.2815
   31SAPC  C214 4160   6.316   1.581   7.797  0.1434 -0.6420 -0.1284
   31SAPC  H14R 4161   6.248   1.498   7.774 -0.3578  0.0731 -1.3430
   31SAPC  C215 4162   6.363   1.590   7.924  0.7235 -0.3030  0.1007
   31SAPC  H15R 4163   6.363   1.490   7.971 -0.9577 -0.6136 -0.4995
   31SAPC  C216 4164   6.430   1.711   7.987 -0.2821  0.3502 -0.4829
   31SAPC  H16R 4165   6.405   1.802   7.929  1.0175  0.9585 -0.1114
   31SAPC  H16S 4166   6.540   1.703   8.001 -0.3294  1.1016  0.4284
   31SAPC  C217 4167   6.361   1.736   8.124 -0.3169 -0.1421  0.1449
   31SAPC  H17R 4168   6.274   1.804   8.123  0.6564  1.1615  0.9620
   31SAPC  H17S 4169   6.434   1.797   8.181 -0.1179  1.6104 -1.8903
   31SAPC  C218 4170   6.332   1.615   8.211  0.0886  0.4290  0.5037
   31SAPC  H18R 4171   6.420   1.553   8.236 -1.2999 -1.4959  0.9123
   31SAPC  H18S 4172   6.262   1.542   8.164 -0.7766  0.5801  1.4992
   31SAPC  C219 4173   6.266   1.646   8.341  0.0943 -0.2754  0.0941
   31SAPC  H19R 4174   6.175   1.709   8.331  2.0514  2.7087  0.0411
   31SAPC  H19S 4175   6.329   1.713   8.403 -0.8181  1.2793 -0.6063
   31SAPC  C220 4176   6.238   1.517   8.428 -0.5102 -0.6450  0.4768
   31SAPC  H20R 4177   6.228   1.430   8.359  0.8996 -0.8728  0.5438
   31SAPC  H20S 4178   6.152   1.542   8.493  0.3465  3.1393  0.3748
   31SAPC  H20T 4179   6.328   1.494   8.488 -2.1314 -1.7524  2.6010
   31SAPC   C33 4180   6.152   2.019   6.865  1.3709 -0.8846 -0.1472
   31SAPC   H3X 4181   6.088   1.934   6.898  1.3919 -1.4184 -1.4067
   31SAPC   H3Y 4182   6.088   2.104   6.832  0.5587 -1.7677 -0.9218
   31SAPC   C34 4183   6.236   2.053   6.985  0.5017 -0.6583  0.4971
   31SAPC   H4X 4184   6.277   2.157   6.988 -0.5888 -0.2216  2.5959
   31SAPC   H4Y 4185   6.321   1.985   6.963  0.5156 -0.2631 -0.7140
   31SAPC   C35 4186   6.160   2.027   7.108  0.0856 -0.1514  0.0848
   31SAPC   H5X 4187   6.157   1.917   7.125  0.8908 -0.1601  0.2191
   31SAPC   H5Y 4188   6.063   2.080   7.106  0.6609  0.9800  0.7129
   31SAPC   C36 4189   6.256   2.069   7.227  0.0312 -0.4884  0.3300
   31SAPC   H6X 4190   6.305   2.168   7.218  2.5587 -1.1425  4.2794
   31SAPC   H6Y 4191   6.334   1.990   7.226 -1.0817 -1.6236  0.6361
   31SAPC   C37 4192   6.196   2.071   7.365  0.7673 -0.3820  0.3208
   31SAPC   H7X 4193   6.147   1.973   7.384  0.7778 -0.8029 -1.5933
   31SAPC   H7Y 4194   6.115   2.148   7.369  0.1956 -0.9652  0.2550
   31SAPC   C38 4195   6.303   2.090   7.460  0.0242  0.8045  0.2208
   31SAPC   H8X 4196   6.370   2.173   7.430  1.4541  0.3316  1.9251
   31SAPC   H8Y 4197   6.374   2.004   7.464 -0.4797  0.2433 -1.7745
   31SAPC   C39 4198   6.254   2.120   7.600  0.5125  0.5194 -0.3208
   31SAPC   H9X 4199   6.225   2.024   7.649  0.8606  1.2593  1.4062
   31SAPC   H9Y 4200   6.166   2.188   7.601 -1.2140 -1.5787 -0.6027
   31SAPC  C310 4201   6.363   2.158   7.694 -0.0923  0.0312  0.7549
   31SAPC  H10X 4202   6.422   2.252   7.691  2.6465 -1.4489  3.0878
   31SAPC  H10Y 4203   6.436   2.077   7.675 -2.2731 -1.8208 -0.1529
   31SAPC  C311 4204   6.303   2.145   7.833 -0.4713 -0.1797 -0.1718
   31SAPC  H11X 4205   6.254   2.046   7.847 -0.8510 -0.3197 -2.2453
   31SAPC  H11Y 4206   6.222   2.220   7.835 -0.2039  0.0941  0.9217
   31SAPC  C312 4207   6.411   2.187   7.937  0.4656 -0.7873  0.3007
   31SAPC  H12X 4208   6.476   2.269   7.901  1.4728  0.3391  4.1871
   31SAPC  H12Y 4209   6.478   2.104   7.970 -0.9021 -1.4789  1.4474
   31SAPC  C313 4210   6.337   2.224   8.070  0.1346  0.1709  0.1106
   31SAPC  H13X 4211   6.236   2.260   8.040  0.3233  0.2174 -0.4925
   31SAPC  H13Y 4212   6.395   2.300   8.126 -1.0769  0.8888  0.4140
   31SAPC  C314 4213   6.329   2.101   8.158 -0.0590 -0.2905  0.1928
   31SAPC  H14X 4214   6.430   2.083   8.201  0.6528 -2.2865 -2.0934
   31SAPC  H14Y 4215   6.286   2.014   8.106  0.1597 -0.8828  0.9890
   31SAPC  C315 4216   6.234   2.125   8.282 -0.1370  0.7042 -0.0030
   31SAPC  H15X 4217   6.262   2.222   8.329  0.3105  0.0371  1.1563
   31SAPC  H15Y 4218   6.251   2.049   8.361 -4.2022 -0.1535  0.2515
   31SAPC  C316 4219   6.086   2.121   8.243  0.4026 -0.2944 -0.1049
   31SAPC  H16X 4220   6.081   2.025   8.187  1.8268 -1.5746  1.8311
   31SAPC  H16Y 4221   6.069   2.211   8.180 -1.0434  0.1652  0.9004
   31SAPC  C317 4222   5.985   2.118   8.358  0.5815  0.1234 -0.2525
   31SAPC  H17X 4223   5.942   2.218   8.381 -0.4933 -0.4259  0.2655
   31SAPC  H17Y 4224   6.032   2.074   8.449  2.0480 -1.5338 -1.7245
   31SAPC  C318 4225   5.868   2.031   8.314 -0.0708  0.3330 -0.5110
   31SAPC  H18X 4226   5.889   1.925   8.286 -1.6641 -0.1432  0.0021
   31SAPC  H18Y 4227   5.815   2.076   8.228 -0.2226  1.3960  0.1272
   31SAPC  H18Z 4228   5.794   2.014   8.395  0.5681  0.0436  0.0286
   32SAPC     N 4229   1.211   2.625   6.245  0.3962  0.0079  0.5617
   32SAPC   C12 4230   1.347   2.688   6.280  0.7785  0.2449 -0.3028
   32SAPC  H12A 4231   1.397   2.608   6.333 -3.3511 -1.4871  1.3834
   32SAPC  H12B 4232   1.331   2.764   6.355 -2.6492 -2.6043  2.1345
   32SAPC   C13 4233   1.156   2.581   6.375  0.3979  0.4946  0.2785
   32SAPC  H13A 4234   1.060   2.532   6.370  0.5739 -0.2256  2.6330
   32SAPC  H13B 4235   1.221   2.512   6.427 -1.0045 -0.6080  0.6429
   32SAPC  H13C 4236   1.132   2.662   6.443 -1.0340  2.1876 -2.0999
   32SAPC   C14 4237   1.119   2.727   6.183  0.3199  0.3748 -0.6821
   32SAPC  H14A 4238   1.167   2.768   6.095 -1.7901  1.5975 -1.3327
   32SAPC  H14B 4239   1.020   2.689   6.162  1.1463 -2.5343  0.2225
   32SAPC  H14C 4240   1.102   2.813   6.247 -0.9352  1.5230 -2.4449
   32SAPC   C15 4241   1.219   2.511   6.144 -0.2729 -0.8305  0.3457
   32SAPC  H15A 4242   1.124   2.480   6.106  0.2580  0.3090 -2.0799
   32SAPC  H15B 4243   1.269   2.547   6.055  1.4826  0.9378  1.9351
   32SAPC  H15C 4244   1.274   2.429   6.188 -3.4164 -2.1796  2.0504
   32SAPC   C11 4245   1.432   2.748   6.168 -0.1551  0.6816 -0.4658
   32SAPC  H11A 4246   1.420   2.683   6.079  0.1460 -0.8398  0.5762
   32SAPC  H11B 4247   1.534   2.745   6.212 -0.8536  0.7929  1.2372
   32SAPC     P 4248   1.463   2.994   6.084  0.2946  0.1188 -0.1333
   32SAPC   O13 4249   1.567   2.957   5.982  0.0352  0.5140  0.0486
   32SAPC   O14 4250   1.369   3.101   6.044 -0.0913  0.3078  0.0926
   32SAPC   O12 4251   1.378   2.872   6.138  0.0616  0.4488  0.5204
   32SAPC   O11 4252   1.550   3.031   6.209  0.3046  0.2057  0.1621
   32SAPC    C1 4253   1.472   3.052   6.331 -0.1230 -0.1648  0.2631
   32SAPC    HA 4254   1.385   3.119   6.312 -1.7571 -1.6190  2.1847
   32SAPC    HB 4255   1.426   2.961   6.375  1.1790 -0.2530  1.5459
   32SAPC    C2 4256   1.544   3.129   6.439 -0.1223 -0.1609 -1.0720
   32SAPC    HS 4257   1.609   3.198   6.381 -0.9222 -0.3051 -2.1807
   32SAPC   O21 4258   1.620   3.034   6.519  0.0018 -0.1302 -0.3458
   32SAPC   C21 4259   1.697   3.096   6.607 -0.2998 -0.3255  0.5284
   32SAPC   O22 4260   1.716   3.219   6.617  0.4148  0.0106 -0.0312
   32SAPC   C22 4261   1.748   2.995   6.710 -0.0410 -0.1553  0.1323
   32SAPC   H2R 4262   1.695   2.898   6.696  0.1908 -0.0915 -1.2465
   32SAPC   H2S 4263   1.851   2.977   6.673 -0.3877  0.0260 -0.9445
   32SAPC    C3 4264   1.438   3.205   6.524  0.8284 -0.8605  0.3867
   32SAPC    HX 4265   1.383   3.274   6.456  2.3602 -1.2132 -1.2808
   32SAPC    HY 4266   1.494   3.277   6.587  1.5428 -1.1724  0.1279
   32SAPC   O31 4267   1.359   3.117   6.597  1.0482 -0.1435  0.0086
   32SAPC   C31 4268   1.262   3.180   6.669 -0.1620 -0.1085 -0.0450
   32SAPC   O32 4269   1.253   3.299   6.678 -0.3328 -0.1253 -0.4186
   32SAPC   C32 4270   1.164   3.091   6.738 -0.7234 -0.3314 -0.3100
   32SAPC   H2X 4271   1.228   3.006   6.769 -0.7785  0.0110  0.7820
   32SAPC   H2Y 4272   1.081   3.064   6.670 -0.2826 -1.5941 -0.3803
   32SAPC   C23 4273   1.748   3.044   6.860  0.5238  0.1457  0.0183
   32SAPC   H3R 4274   1.807   3.137   6.875 -0.3667  0.6451  0.5480
   32SAPC   H3S 4275   1.797   2.961   6.914  0.5564 -0.9522 -1.6397
   32SAPC   C24 4276   1.613   3.060   6.930  0.1134 -0.4058  0.0730
   32SAPC   H4R 4277   1.570   3.161   6.911 -0.7478 -0.8033 -0.1684
   32SAPC   H4S 4278   1.621   3.060   7.041 -1.0866 -0.9859  0.1829
   32SAPC   C25 4279   1.515   2.958   6.889 -0.3562 -0.0546  0.2817
   32SAPC   H5R 4280   1.503   2.962   6.779  2.4366  0.4636 -0.0889
   32SAPC   C26 4281   1.451   2.862   6.965 -1.0178  0.4691  0.7272
   32SAPC   H6R 4282   1.373   2.800   6.920 -1.8912  1.1219  1.2863
   32SAPC   C27 4283   1.466   2.854   7.113  0.0954  0.1186 -0.2134
   32SAPC   H7R 4284   1.570   2.862   7.149  0.3894 -0.5561 -0.8879
   32SAPC   H7S 4285   1.440   2.748   7.135 -0.4596  0.2055 -0.4272
   32SAPC   C28 4286   1.377   2.945   7.192 -0.1544  0.5169 -0.0884
   32SAPC   H8R 4287   1.356   3.038   7.137  0.7181  1.3494  0.9411
   32SAPC   C29 4288   1.343   2.936   7.327 -0.3825 -0.6117  0.1882
   32SAPC   H9R 4289   1.261   2.996   7.369 -1.1472 -0.2433 -1.6953
   32SAPC  C210 4290   1.386   2.820   7.412  0.1057  0.2596 -1.1752
   32SAPC  H10R 4291   1.441   2.867   7.496 -0.9818 -0.5334  0.0310
   32SAPC  H10S 4292   1.463   2.749   7.375 -0.3355 -2.5628  2.7501
   32SAPC  C211 4293   1.265   2.750   7.470 -0.4647 -0.5171  0.1349
   32SAPC  H11R 4294   1.245   2.646   7.441 -2.2756 -0.7392  1.9553
   32SAPC  C212 4295   1.184   2.792   7.577 -0.6325 -0.3342  0.3000
   32SAPC  H12R 4296   1.108   2.722   7.613  0.0633 -1.3941 -0.2272
   32SAPC  C213 4297   1.207   2.914   7.659  0.6793 -0.6819  0.0280
   32SAPC  H13R 4298   1.185   3.003   7.595 -1.5267  0.2956  2.0131
   32SAPC  H13S 4299   1.316   2.924   7.680  0.7174 -0.7811 -0.1193
   32SAPC  C214 4300   1.114   2.932   7.778 -0.3205  0.3420 -0.8004
   32SAPC  H14R 4301   1.018   2.881   7.768 -0.8944  0.9394  1.2000
   32SAPC  C215 4302   1.132   3.013   7.883 -0.7285  0.1798  0.8942
   32SAPC  H15R 4303   1.055   3.007   7.962 -2.0792  1.9766 -0.2256
   32SAPC  C216 4304   1.246   3.106   7.923 -0.3556  0.7468 -0.3144
   32SAPC  H16R 4305   1.216   3.213   7.933 -1.8435  0.2288  1.1259
   32SAPC  H16S 4306   1.307   3.116   7.831 -0.6054  2.3612 -0.3312
   32SAPC  C217 4307   1.331   3.057   8.039 -0.9908  0.4728 -0.8123
   32SAPC  H17R 4308   1.414   3.129   8.059 -0.1070 -0.3243 -1.5282
   32SAPC  H17S 4309   1.373   2.957   8.018 -1.2565 -0.2965  1.9254
   32SAPC  C218 4310   1.255   3.040   8.177 -0.1223 -0.3908 -0.4795
   32SAPC  H18R 4311   1.336   3.018   8.250  0.3708  0.6755 -0.6771
   32SAPC  H18S 4312   1.195   2.947   8.166 -1.1471 -0.3394  3.3141
   32SAPC  C219 4313   1.158   3.148   8.220 -0.2534  0.0675  0.7178
   32SAPC  H19R 4314   1.090   3.179   8.138 -0.1292 -2.2920 -0.3383
   32SAPC  H19S 4315   1.221   3.238   8.237 -1.0092  0.9240 -0.8199
   32SAPC  C220 4316   1.073   3.123   8.338  0.6348 -0.4419  0.6061
   32SAPC  H20R 4317   1.026   3.221   8.364  2.2403  0.4301  0.3267
   32SAPC  H20S 4318   1.146   3.105   8.419  1.4445 -0.3013 -0.0858
   32SAPC  H20T 4319   1.005   3.036   8.322 -0.2912  0.7243 -2.5187
   32SAPC   C33 4320   1.089   3.158   6.850  0.3032 -0.4132 -0.3773
   32SAPC   H3X 4321   1.006   3.091   6.883  1.4530 -2.2318 -1.0115
   32SAPC   H3Y 4322   1.038   3.253   6.822 -0.9230 -1.7510 -3.0618
   32SAPC   C34 4323   1.186   3.182   6.961 -0.4627 -1.3545 -0.2328
   32SAPC   H4X 4324   1.273   3.240   6.925 -1.2292 -0.6742 -1.0338
   32SAPC   H4Y 4325   1.219   3.079   6.983 -1.0968 -1.9882 -2.0351
   32SAPC   C35 4326   1.105   3.248   7.071  0.0796 -0.4708 -0.2044
   32SAPC   H5X 4327   1.025   3.312   7.027 -0.1813 -0.5545  0.1490
   32SAPC   H5Y 4328   1.168   3.309   7.139 -2.3708  0.5212  1.3357
   32SAPC   C36 4329   1.029   3.151   7.154  0.1685  0.3661 -0.6288
   32SAPC   H6X 4330   1.082   3.054   7.160 -0.6655 -0.2714 -2.6292
   32SAPC   H6Y 4331   0.932   3.131   7.104  0.4261 -2.0938 -0.2551
   32SAPC   C37 4332   1.002   3.206   7.296 -1.1295  0.2732 -0.3060
   32SAPC   H7X 4333   0.949   3.303   7.286  1.3093  1.5267 -2.3890
   32SAPC   H7Y 4334   1.099   3.235   7.342 -1.4311  3.0604 -1.2374
   32SAPC   C38 4335   0.922   3.109   7.382 -0.1584 -0.8075 -0.4447
   32SAPC   H8X 4336   0.990   3.022   7.394  1.3323  0.3243 -0.2216
   32SAPC   H8Y 4337   0.825   3.077   7.339 -0.2308  0.7300 -1.5140
   32SAPC   C39 4338   0.893   3.161   7.517 -0.1335 -0.0816 -0.7106
   32SAPC   H9X 4339   0.841   3.259   7.509 -4.1020 -1.6020  2.6860
   32SAPC   H9Y 4340   0.992   3.182   7.564 -0.3307 -0.8867  0.0880
   32SAPC  C310 4341   0.808   3.068   7.603  0.5396 -0.4782  0.4072
   32SAPC  H10X 4342   0.859   2.970   7.614 -0.2213 -0.8082  1.0133
   32SAPC  H10Y 4343   0.715   3.051   7.545 -1.0481  1.7474  2.1499
   32SAPC  C311 4344   0.772   3.116   7.745 -0.3810  0.2050  0.4314
   32SAPC  H11X 4345   0.713   3.210   7.740 -0.3487  0.1741 -1.1664
   32SAPC  H11Y 4346   0.866   3.140   7.799  0.2288  0.4050 -0.6861
   32SAPC  C312 4347   0.676   3.030   7.835 -0.2382 -0.2032  0.2909
   32SAPC  H12X 4348   0.731   2.935   7.855 -0.1717 -0.2938 -0.2971
   32SAPC  H12Y 4349   0.582   3.004   7.782  0.3680 -0.2558 -0.8080
   32SAPC  C313 4350   0.665   3.095   7.971 -0.5167 -0.0156 -0.0853
   32SAPC  H13X 4351   0.561   3.129   7.990 -0.5547 -0.1673 -0.0220
   32SAPC  H13Y 4352   0.715   3.194   7.977  0.4536 -0.4738 -0.4850
   32SAPC  C314 4353   0.719   3.006   8.083  0.5547 -0.4347 -0.4287
   32SAPC  H14X 4354   0.724   3.047   8.186  0.2773 -2.4348  0.4308
   32SAPC  H14Y 4355   0.820   2.981   8.042 -0.1665 -1.4158 -1.6926
   32SAPC  C315 4356   0.626   2.886   8.098 -0.5319  0.1215 -0.5754
   32SAPC  H15X 4357   0.629   2.823   8.006 -0.1897 -0.0371 -0.4605
   32SAPC  H15Y 4358   0.519   2.912   8.113 -0.1068  1.0293  1.1917
   32SAPC  C316 4359   0.670   2.801   8.220 -0.1473  0.0452  0.1266
   32SAPC  H16X 4360   0.641   2.853   8.313  1.0839 -1.4724  1.4223
   32SAPC  H16Y 4361   0.779   2.780   8.209  0.4023  1.7524  1.8229
   32SAPC  C317 4362   0.604   2.657   8.223  0.1008  0.3897  0.0776
   32SAPC  H17X 4363   0.635   2.594   8.137 -2.8215 -0.7883 -0.2230
   32SAPC  H17Y 4364   0.494   2.670   8.233  0.3519  3.2495  0.0287
   32SAPC  C318 4365   0.652   2.580   8.351 -0.3031 -0.0489  0.8501
   32SAPC  H18X 4366   0.761   2.560   8.341 -0.7293 -1.8061 -1.2215
   32SAPC  H18Y 4367   0.599   2.482   8.353 -1.2899  0.2195 -2.8665
   32SAPC  H18Z 4368   0.627   2.638   8.442  0.4401  1.2694  0.2442
   33POPC     N 4369   4.872   5.942  10.320 -0.0361 -0.8069  0.0208
   33POPC   C12 4370   4.746   5.974  10.402 -0.3257  0.9943  0.3985
   33POPC  H12A 4371   4.676   6.035  10.346  0.1622 -0.3659 -1.8452
   33POPC  H12B 4372   4.768   6.031  10.491  0.2739 -0.5551  1.2801
   33POPC   C13 4373   4.837   5.865  10.202  0.0757  0.0236 -0.1444
   33POPC  H13A 4374   4.790   5.770  10.226 -0.7716  0.0970 -1.4432
   33POPC  H13B 4375   4.762   5.907  10.138 -0.7311 -2.1714 -0.7415
   33POPC  H13C 4376   4.931   5.846  10.152 -0.0684  0.4653 -0.5840
   33POPC   C14 4377   4.931   6.072  10.279 -0.2523 -0.6677  0.5615
   33POPC  H14A 4378   4.852   6.121  10.224  0.2642 -1.1032 -0.6045
   33POPC  H14B 4379   4.940   6.134  10.367 -0.9603 -0.3202  0.3915
   33POPC  H14C 4380   5.014   6.065  10.210 -0.3352  0.1076  0.3752
   33POPC   C15 4381   4.978   5.876  10.401 -0.1138  0.0301  0.1386
   33POPC  H15A 4382   5.059   5.854  10.334 -0.6151 -0.4954 -0.2992
   33POPC  H15B 4383   4.963   5.777  10.441  1.9857 -0.7892 -0.9815
   33POPC  H15C 4384   4.997   5.938  10.488 -0.4479 -1.7958  1.5791
   33POPC   C11 4385   4.669   5.855  10.456  0.3577 -0.2831  0.2682
   33POPC  H11A 4386   4.592   5.901  10.522 -1.0745 -1.1188 -0.7545
   33POPC  H11B 4387   4.735   5.789  10.517 -2.3018 -2.1345  1.3287
   33POPC     P 4388   4.451   5.737  10.356  0.1947 -0.2613 -0.2877
   33POPC   O13 4389   4.414   5.696  10.492  0.1166  0.0386  0.3901
   33POPC   O14 4390   4.415   5.649  10.245 -0.0428  0.6108 -0.0030
   33POPC   O12 4391   4.607   5.776  10.354  0.2692  0.0435 -0.2136
   33POPC   O11 4392   4.379   5.879  10.329 -0.0915  0.0198  0.3386
   33POPC    C1 4393   4.420   5.971  10.230  0.1791  0.4909  0.8900
   33POPC    HA 4394   4.383   6.073  10.257  0.1655  0.5802  0.5416
   33POPC    HB 4395   4.531   5.974  10.231  0.2233 -0.6338  0.5456
   33POPC    C2 4396   4.362   5.929  10.089 -0.1015 -0.0197 -0.0105
   33POPC    HS 4397   4.402   5.831  10.059  1.0528 -0.0104  1.4013
   33POPC   O21 4398   4.403   6.026   9.991  0.2730 -0.0766 -0.1347
   33POPC   C21 4399   4.532   6.020   9.951 -0.3809  0.0080 -0.9256
   33POPC   O22 4400   4.610   5.937   9.992 -0.1641  0.0164  0.2488
   33POPC   C22 4401   4.558   6.119   9.830 -0.5550  0.0800  0.7453
   33POPC   H2R 4402   4.644   6.182   9.862  0.2547 -0.5530 -0.1181
   33POPC   H2S 4403   4.478   6.192   9.806  2.6011  2.4954 -4.0496
   33POPC    C3 4404   4.206   5.942  10.103 -0.7772 -0.2351  0.2344
   33POPC    HX 4405   4.197   6.031  10.169  0.5885  1.0227 -1.1796
   33POPC    HY 4406   4.175   5.855  10.165  0.6415 -0.9148  0.0310
   33POPC   O31 4407   4.140   5.953   9.974  0.4603  0.3044 -0.0441
   33POPC   C31 4408   4.141   5.840   9.895 -0.4191 -0.0120 -0.1927
   33POPC   O32 4409   4.195   5.736   9.934  0.5052  0.3020  0.1220
   33POPC   C32 4410   4.068   5.861   9.763 -0.3880 -0.2388  0.2259
   33POPC   H2X 4411   4.119   5.932   9.695 -2.4193 -0.3719 -1.5743
   33POPC   H2Y 4412   3.969   5.905   9.790 -0.2947  1.2181 -1.6174
   33POPC   C23 4413   4.592   6.047   9.696 -0.2116 -0.1638 -0.0893
   33POPC   H3R 4414   4.666   5.970   9.728 -1.0165 -0.4618  1.1120
   33POPC   H3S 4415   4.645   6.120   9.630 -0.3657  0.4302  0.4349
   33POPC   C24 4416   4.469   5.995   9.624  0.5651  0.2099 -0.0284
   33POPC   H4R 4417   4.408   6.084   9.596  1.3963  0.5179 -0.9045
   33POPC   H4S 4418   4.410   5.936   9.698  0.6278  1.7675  1.3276
   33POPC   C25 4419   4.487   5.914   9.496  0.1707  0.2013  0.4262
   33POPC   H5R 4420   4.544   5.822   9.521  2.5912  1.3443 -0.5236
   33POPC   H5S 4421   4.555   5.984   9.442 -0.3352  3.6341  3.8577
   33POPC   C26 4422   4.360   5.881   9.410 -0.2100  0.0903 -0.2572
   33POPC   H6R 4423   4.314   5.973   9.367  2.2843 -0.0332 -3.5868
   33POPC   H6S 4424   4.283   5.832   9.474  0.5409 -1.8988 -0.8028
   33POPC   C27 4425   4.386   5.793   9.283  0.0309 -0.1091  0.5773
   33POPC   H7R 4426   4.433   5.700   9.322 -0.6753 -0.0668  1.5634
   33POPC   H7S 4427   4.460   5.841   9.217 -0.6333  0.9989  0.6231
   33POPC   C28 4428   4.259   5.756   9.211 -0.3147 -0.2857  0.6738
   33POPC   H8R 4429   4.199   5.847   9.195  0.0224 -0.5238 -2.5952
   33POPC   H8S 4430   4.203   5.680   9.269 -0.7799 -0.9966 -0.6634
   33POPC   C29 4431   4.277   5.692   9.073  0.2783  1.1205 -0.3638
   33POPC   H91 4432   4.311   5.588   9.071  0.0324  1.0511 -1.3286
   33POPC  C210 4433   4.256   5.752   8.962 -0.7517 -0.3023 -0.9236
   33POPC  H101 4434   4.266   5.698   8.867 -1.0143 -2.1200  0.0255
   33POPC  C211 4435   4.222   5.895   8.943 -0.2956 -0.0334  0.5758
   33POPC  H11R 4436   4.279   5.926   8.852 -0.9596 -2.9124 -0.9663
   33POPC  H11S 4437   4.263   5.956   9.026  0.2330 -1.9507  1.7788
   33POPC  C212 4438   4.075   5.926   8.905 -0.0779 -0.4752 -0.4341
   33POPC  H12R 4439   4.068   6.033   8.937 -3.5987 -0.4273 -0.9008
   33POPC  H12S 4440   3.998   5.880   8.971 -0.0278 -0.4809 -0.3781
   33POPC  C213 4441   4.050   5.904   8.757  0.2098  0.2986  0.1002
   33POPC  H13R 4442   4.040   5.795   8.735 -1.8097  0.0958  1.6650
   33POPC  H13S 4443   4.135   5.951   8.704  0.2737 -0.5827 -0.6068
   33POPC  C214 4444   3.924   5.964   8.689 -0.5823 -0.1509  0.2433
   33POPC  H14R 4445   3.939   6.072   8.709 -0.5167  0.4551 -2.5851
   33POPC  H14S 4446   3.843   5.928   8.755  0.6448 -0.9511  1.3757
   33POPC  C215 4447   3.895   5.915   8.547 -0.4373 -0.0366 -0.2322
   33POPC  H15R 4448   3.788   5.892   8.533 -0.6336  1.3167 -1.2165
   33POPC  H15S 4449   3.947   5.817   8.541  0.0351  0.1075  1.1644
   33POPC  C216 4450   3.967   6.004   8.438  0.1869  0.0960 -0.3651
   33POPC  H16R 4451   3.940   5.951   8.344 -0.2562  0.3546 -0.3870
   33POPC  H16S 4452   4.078   5.995   8.445  0.1830 -1.0136 -1.4006
   33POPC  C217 4453   3.926   6.148   8.416  1.0203 -0.4309  0.4917
   33POPC  H17R 4454   4.006   6.210   8.369  1.4188 -0.6221  0.9068
   33POPC  H17S 4455   3.924   6.199   8.515  0.0706 -0.2355  0.3733
   33POPC  C218 4456   3.788   6.172   8.350 -0.8838  0.7179 -0.6534
   33POPC  H18R 4457   3.797   6.131   8.247  0.1625 -0.2884 -0.1909
   33POPC  H18S 4458   3.761   6.280   8.356  1.4172  1.3135  0.4188
   33POPC  H18T 4459   3.709   6.124   8.411  0.1559 -1.4015 -0.8720
   33POPC   C33 4460   4.052   5.728   9.683  0.3237 -0.0381  0.2192
   33POPC   H3X 4461   4.148   5.672   9.678  0.3643 -0.2838  2.5802
   33POPC   H3Y 4462   4.020   5.744   9.578  1.1711 -0.4340 -0.1084
   33POPC   C34 4463   3.948   5.636   9.748  0.6832 -0.2446 -0.4329
   33POPC   H4X 4464   3.850   5.680   9.717  0.1939 -2.1394 -1.7415
   33POPC   H4Y 4465   3.949   5.620   9.858 -0.3503 -0.3391 -0.4277
   33POPC   C35 4466   3.955   5.490   9.701  1.0218 -0.1048  0.2742
   33POPC   H5X 4467   3.866   5.430   9.731 -0.0012  1.4734  0.5199
   33POPC   H5Y 4468   4.052   5.443   9.729  0.7248 -2.3841 -2.0912
   33POPC   C36 4469   3.961   5.479   9.549 -0.5567 -0.6728  0.6782
   33POPC   H6X 4470   3.998   5.376   9.535  0.4713 -0.0064 -1.9343
   33POPC   H6Y 4471   4.040   5.552   9.522 -1.5619  0.2443  0.1011
   33POPC   C37 4472   3.827   5.514   9.487  0.4041 -0.4462  0.6884
   33POPC   H7X 4473   3.782   5.597   9.547 -0.5846  1.5723 -2.5301
   33POPC   H7Y 4474   3.760   5.427   9.502  0.1651 -0.2303  0.8831
   33POPC   C38 4475   3.823   5.561   9.340  0.2534 -0.0534  0.3960
   33POPC   H8X 4476   3.875   5.659   9.344  0.6922 -0.2429 -0.3508
   33POPC   H8Y 4477   3.719   5.581   9.307  0.9777  1.4687 -1.1734
   33POPC   C39 4478   3.898   5.466   9.246  1.0890  0.4840 -0.0335
   33POPC   H9X 4479   3.845   5.370   9.227  1.3332  0.5599 -1.1642
   33POPC   H9Y 4480   3.989   5.430   9.299  0.7945  0.4569  0.4631
   33POPC  C310 4481   3.940   5.535   9.114 -0.4026  0.1878  0.2240
   33POPC  H10X 4482   3.984   5.448   9.061  2.3792  1.2609  0.6142
   33POPC  H10Y 4483   4.031   5.598   9.119 -0.9704  1.0266  0.1204
   33POPC  C311 4484   3.831   5.609   9.039  0.2115 -0.8055 -0.0310
   33POPC  H11X 4485   3.885   5.651   8.952  0.4867 -1.2210 -0.0650
   33POPC  H11Y 4486   3.785   5.691   9.098  2.0221 -0.2583  0.6752
   33POPC  C312 4487   3.710   5.523   8.985  0.6154  0.1558  0.0210
   33POPC  H12X 4488   3.639   5.598   8.945  2.6484  2.6237  0.7406
   33POPC  H12Y 4489   3.659   5.475   9.072 -3.7187  1.6357 -1.4505
   33POPC  C313 4490   3.749   5.420   8.876 -0.7280 -0.4004  0.3347
   33POPC  H13X 4491   3.791   5.330   8.924 -2.1063  0.0238  2.5196
   33POPC  H13Y 4492   3.813   5.461   8.796  0.4859 -0.6310  1.1662
   33POPC  C314 4493   3.635   5.377   8.782 -0.0690 -0.6591  0.8096
   33POPC  H14X 4494   3.608   5.468   8.725 -1.0695 -1.5090 -0.1490
   33POPC  H14Y 4495   3.541   5.346   8.834 -1.5335 -0.3163 -1.4688
   33POPC  C315 4496   3.672   5.265   8.687 -0.0295  0.0095  0.1798
   33POPC  H15X 4497   3.673   5.171   8.746  0.7873 -0.0604  0.0731
   33POPC  H15Y 4498   3.780   5.273   8.661 -0.3620 -0.7772 -1.6013
   33POPC  C316 4499   3.586   5.248   8.563  0.1838 -0.6677  0.5050
   33POPC  H16X 4500   3.572   5.350   8.520  1.6734 -1.1259 -1.2166
   33POPC  H16Y 4501   3.481   5.216   8.580 -1.0378  0.3838 -3.6949
   33POPC  H16Z 4502   3.614   5.175   8.484  1.6057 -1.5093  1.7306
   34POPC     N 4503   4.221   6.209  10.784 -0.1559 -0.2392 -0.1570
   34POPC   C12 4504   4.267   6.230  10.640  0.0466  0.0525 -0.0601
   34POPC  H12A 4505   4.254   6.335  10.621 -2.2744 -0.0457  0.7341
   34POPC  H12B 4506   4.206   6.183  10.564 -1.6826  1.4762  0.3840
   34POPC   C13 4507   4.230   6.063  10.824  0.2576  0.1904  0.7717
   34POPC  H13A 4508   4.170   6.010  10.752  2.5283  0.1359 -1.2075
   34POPC  H13B 4509   4.335   6.041  10.811 -0.4920 -2.1481 -2.8898
   34POPC  H13C 4510   4.198   6.050  10.926 -1.8092  0.1043  0.1419
   34POPC   C14 4511   4.305   6.302  10.872  0.2445  1.1763 -0.2826
   34POPC  H14A 4512   4.280   6.407  10.876  0.0758  1.1387  3.1368
   34POPC  H14B 4513   4.306   6.257  10.970 -0.5645  0.3541 -0.6359
   34POPC  H14C 4514   4.405   6.294  10.834 -0.5383 -0.5238 -2.1642
   34POPC   C15 4515   4.079   6.244  10.810 -1.1432 -0.2706  0.2308
   34POPC  H15A 4516   4.050   6.222  10.912  0.4471 -2.4845  0.2927
   34POPC  H15B 4517   4.012   6.178  10.758  0.7105 -0.7750 -1.6370
   34POPC  H15C 4518   4.062   6.345  10.777 -1.3195  0.1391  1.5234
   34POPC   C11 4519   4.416   6.182  10.606  0.5551 -0.2704  0.0520
   34POPC  H11A 4520   4.428   6.195  10.496 -0.3879 -2.0147 -0.2971
   34POPC  H11B 4521   4.423   6.074  10.629 -1.9613 -0.2556  1.2223
   34POPC     P 4522   4.646   6.310  10.626  0.0175  0.0218 -0.0637
   34POPC   O13 4523   4.714   6.186  10.587 -0.6638 -0.2109  0.8515
   34POPC   O14 4524   4.715   6.400  10.721 -0.4249  0.3364 -0.0751
   34POPC   O12 4525   4.505   6.268  10.681  0.7310 -0.3108  0.1532
   34POPC   O11 4526   4.608   6.388  10.497 -0.2601  0.1239 -0.0059
   34POPC    C1 4527   4.583   6.532  10.516 -0.2734  0.6369 -0.3145
   34POPC    HA 4528   4.667   6.590  10.560 -0.8749  1.3785 -0.1241
   34POPC    HB 4529   4.506   6.548  10.594 -0.1921  2.2831 -0.5443
   34POPC    C2 4530   4.550   6.594  10.379 -0.6548 -0.3149  0.5450
   34POPC    HS 4531   4.495   6.690  10.393 -0.1979 -0.0962  0.8590
   34POPC   O21 4532   4.469   6.509  10.305 -0.4391  0.5503 -0.4869
   34POPC   C21 4533   4.352   6.490  10.350  0.3692 -0.4564  0.1221
   34POPC   O22 4534   4.290   6.546  10.438 -0.3225 -0.3763 -0.0929
   34POPC   C22 4535   4.276   6.391  10.259  0.2789 -0.3090 -0.4729
   34POPC   H2R 4536   4.167   6.406  10.273  0.1827  1.0015 -2.3376
   34POPC   H2S 4537   4.326   6.293  10.278  1.0606  0.0533 -0.6052
   34POPC    C3 4538   4.673   6.642  10.292 -0.7281 -0.7223  0.2805
   34POPC    HX 4539   4.755   6.567  10.294  0.9542  1.0336  1.0597
   34POPC    HY 4540   4.710   6.734  10.342 -2.5913 -1.3303  2.9963
   34POPC   O31 4541   4.631   6.678  10.160  0.4829  0.2193  0.0369
   34POPC   C31 4542   4.631   6.588  10.065 -0.6861  0.5729 -0.2982
   34POPC   O32 4543   4.670   6.472  10.078 -0.1254  0.0764  0.6282
   34POPC   C32 4544   4.582   6.638   9.935  0.4398 -0.1230  0.1757
   34POPC   H2X 4545   4.628   6.738   9.918 -0.7111  0.2127 -1.1743
   34POPC   H2Y 4546   4.476   6.654   9.966  1.0602  0.2981  2.2225
   34POPC   C23 4547   4.312   6.425  10.108  0.5818 -0.2501  0.0181
   34POPC   H3R 4548   4.418   6.403  10.085  0.4692 -0.4168 -0.3380
   34POPC   H3S 4549   4.289   6.534  10.099 -0.1634 -0.3027  1.0082
   34POPC   C24 4550   4.235   6.336  10.016  0.4301  0.3690  0.7223
   34POPC   H4R 4551   4.126   6.339  10.038  0.3364 -1.9593  0.8447
   34POPC   H4S 4552   4.265   6.229  10.028 -1.0941 -0.2672 -0.7031
   34POPC   C25 4553   4.256   6.357   9.861  0.4400 -0.3355  0.2627
   34POPC   H5R 4554   4.351   6.401   9.824 -0.3578  1.1230 -0.1366
   34POPC   H5S 4555   4.186   6.442   9.844 -0.1344 -0.8545 -0.0351
   34POPC   C26 4556   4.202   6.242   9.777 -0.0612  0.5398 -0.8832
   34POPC   H6R 4557   4.108   6.198   9.818  0.6268  0.6813  0.9615
   34POPC   H6S 4558   4.268   6.153   9.778  1.1554  1.3950  1.1490
   34POPC   C27 4559   4.168   6.281   9.636 -0.3203 -0.8080 -0.3456
   34POPC   H7R 4560   4.262   6.329   9.603 -1.5923  1.2717 -1.1591
   34POPC   H7S 4561   4.093   6.363   9.638  0.3613 -0.1061  3.2796
   34POPC   C28 4562   4.128   6.166   9.549  0.7392 -0.0296 -0.3900
   34POPC   H8R 4563   4.205   6.087   9.557  0.7672  0.0352 -0.0294
   34POPC   H8S 4564   4.142   6.213   9.449 -2.2462  0.1477 -0.8277
   34POPC   C29 4565   3.986   6.126   9.569  0.1323  0.5992 -0.3110
   34POPC   H91 4566   3.951   6.113   9.673 -1.1982  2.0223 -0.5584
   34POPC  C210 4567   3.907   6.075   9.472  0.8527  0.3737 -0.7661
   34POPC  H101 4568   3.801   6.052   9.492  1.4864 -1.0621  1.1698
   34POPC  C211 4569   3.945   6.065   9.325  0.0478 -0.2553  0.0287
   34POPC  H11R 4570   4.050   6.027   9.329  2.3381  5.1886  1.2828
   34POPC  H11S 4571   3.963   6.167   9.286  3.3880  0.0404  1.8858
   34POPC  C212 4572   3.842   5.988   9.236  0.0771 -0.1647  0.3911
   34POPC  H12R 4573   3.825   5.881   9.260 -0.5494 -0.6290 -1.9208
   34POPC  H12S 4574   3.896   5.988   9.139 -0.3208 -1.2734  0.1513
   34POPC  C213 4575   3.705   6.055   9.233  0.4651  0.3050  0.3359
   34POPC  H13R 4576   3.719   6.152   9.181 -3.0717  0.3830 -0.7275
   34POPC  H13S 4577   3.666   6.077   9.334  0.5155 -1.6139  0.8077
   34POPC  C214 4578   3.600   5.971   9.151 -0.1739 -0.3606  0.2165
   34POPC  H14R 4579   3.498   6.004   9.181  0.1505  2.2536 -1.2501
   34POPC  H14S 4580   3.605   5.867   9.189  1.1524  0.2600  1.8508
   34POPC  C215 4581   3.611   5.990   8.997  0.0919 -0.1841 -0.0766
   34POPC  H15R 4582   3.697   5.922   8.979  0.1472  0.3737 -2.2229
   34POPC  H15S 4583   3.634   6.089   8.951 -0.4338  0.5208  1.1240
   34POPC  C216 4584   3.494   5.933   8.915 -0.4528 -0.7180  0.6315
   34POPC  H16R 4585   3.408   6.001   8.928 -0.0698 -0.3477  1.3001
   34POPC  H16S 4586   3.473   5.830   8.953  0.3820 -0.1744  2.6903
   34POPC  C217 4587   3.529   5.926   8.766  0.5229  0.5396 -0.6308
   34POPC  H17R 4588   3.590   5.834   8.761  1.1118  0.9468 -1.1081
   34POPC  H17S 4589   3.586   6.015   8.730  0.0969 -0.4024 -4.0617
   34POPC  C218 4590   3.407   5.923   8.663 -0.2005 -0.4258 -0.5221
   34POPC  H18R 4591   3.439   5.892   8.561 -1.7582 -1.4995 -0.7221
   34POPC  H18S 4592   3.360   6.023   8.654  0.2834 -0.1971 -0.4966
   34POPC  H18T 4593   3.338   5.845   8.701  0.7621 -0.1703  1.8666
   34POPC   C33 4594   4.608   6.547   9.814  0.0416  1.1142  0.3538
   34POPC   H3X 4595   4.556   6.450   9.810  0.9678  0.6281 -2.1169
   34POPC   H3Y 4596   4.711   6.509   9.829 -0.9137 -0.3605  4.3886
   34POPC   C34 4597   4.575   6.604   9.672  0.1830  0.0990 -0.0253
   34POPC   H4X 4598   4.625   6.702   9.653  0.9216 -0.0370  1.0826
   34POPC   H4Y 4599   4.469   6.637   9.663 -0.3529 -1.5488  0.0711
   34POPC   C35 4600   4.624   6.509   9.559  0.2027 -0.0511  0.6995
   34POPC   H5X 4601   4.670   6.417   9.600  0.2988  0.7328  2.4475
   34POPC   H5Y 4602   4.707   6.562   9.508 -0.0402 -0.0539  0.2944
   34POPC   C36 4603   4.513   6.454   9.474  0.9139 -0.4401  0.3959
   34POPC   H6X 4604   4.476   6.541   9.415 -1.1226  0.0117  2.1936
   34POPC   H6Y 4605   4.420   6.417   9.523 -0.0357  1.9292  0.5402
   34POPC   C37 4606   4.558   6.341   9.383  0.8979  0.3523  0.1983
   34POPC   H7X 4607   4.580   6.247   9.437 -1.4254 -0.9075 -0.8638
   34POPC   H7Y 4608   4.638   6.377   9.314  0.9925 -0.8788 -0.3685
   34POPC   C38 4609   4.438   6.295   9.293 -1.1975 -0.6265 -0.3476
   34POPC   H8X 4610   4.342   6.299   9.350 -0.7492  1.9864  0.3218
   34POPC   H8Y 4611   4.456   6.187   9.271  0.7085 -0.8834  2.0819
   34POPC   C39 4612   4.425   6.377   9.169 -0.0541 -0.4763 -0.1256
   34POPC   H9X 4613   4.514   6.377   9.102 -0.2471 -1.5126 -0.4085
   34POPC   H9Y 4614   4.410   6.479   9.210  0.8749 -1.1643  2.0516
   34POPC  C310 4615   4.300   6.338   9.079 -0.7162 -0.2560 -0.0421
   34POPC  H10X 4616   4.211   6.315   9.142 -0.5444 -3.9611 -0.8726
   34POPC  H10Y 4617   4.316   6.243   9.023  1.8615  0.5715 -0.8513
   34POPC  C311 4618   4.262   6.440   8.974  0.3627  0.6455 -0.0652
   34POPC  H11X 4619   4.352   6.489   8.931  0.5538  1.5841  1.3412
   34POPC  H11Y 4620   4.207   6.526   9.020  0.3903  0.0439  1.1138
   34POPC  C312 4621   4.170   6.384   8.855 -0.3855  0.0322  0.0622
   34POPC  H12X 4622   4.082   6.334   8.900  1.3758 -1.6184  1.8572
   34POPC  H12Y 4623   4.221   6.302   8.799 -0.0680  1.6560 -2.1998
   34POPC  C313 4624   4.116   6.493   8.764 -0.0965 -0.0146 -0.3925
   34POPC  H13X 4625   4.198   6.568   8.756 -1.0620  1.1689  0.3376
   34POPC  H13Y 4626   4.030   6.547   8.810  0.6423  1.5012 -0.7000
   34POPC  C314 4627   4.068   6.433   8.634  0.5560 -0.3617 -0.4988
   34POPC  H14X 4628   4.010   6.338   8.642 -0.7197  0.4586  0.4188
   34POPC  H14Y 4629   4.156   6.410   8.571  1.2048 -2.9784  1.2145
   34POPC  C315 4630   3.979   6.530   8.551  0.1797  0.1514  0.0704
   34POPC  H15X 4631   3.884   6.542   8.608  1.9545  0.8002  3.1676
   34POPC  H15Y 4632   3.961   6.469   8.460  1.0116  1.4023 -0.9729
   34POPC  C316 4633   4.044   6.656   8.520  0.0920 -0.3771  0.5581
   34POPC  H16X 4634   4.023   6.732   8.598 -1.6009 -2.1114  1.9097
   34POPC  H16Y 4635   4.006   6.702   8.426  2.1122 -0.0245 -0.1289
   34POPC  H16Z 4636   4.155   6.647   8.513  0.1165  0.5158 -0.4092
   35POPC     N 4637   2.645   2.899  11.151 -0.3519  0.1642  0.6193
   35POPC   C12 4638   2.646   2.896  10.996  0.7791  0.0946 -0.0483
   35POPC  H12A 4639   2.548   2.863  10.963  0.6551  0.4680 -0.0479
   35POPC  H12B 4640   2.709   2.821  10.950  3.1927  2.3665 -0.6578
   35POPC   C13 4641   2.532   2.979  11.195  0.6897  0.2125 -0.3404
   35POPC  H13A 4642   2.527   2.994  11.301 -2.2192  1.0073 -0.5182
   35POPC  H13B 4643   2.530   3.079  11.154 -0.6252  0.6952  0.8179
   35POPC  H13C 4644   2.440   2.928  11.169  0.7112  0.9240 -1.9408
   35POPC   C14 4645   2.653   2.762  11.198  0.4724 -0.3185 -0.6019
   35POPC  H14A 4646   2.570   2.707  11.155 -0.2026  0.1883  0.0401
   35POPC  H14B 4647   2.738   2.702  11.166 -0.1304 -0.9689 -1.0237
   35POPC  H14C 4648   2.646   2.753  11.305  0.1781 -0.8424 -0.6611
   35POPC   C15 4649   2.775   2.969  11.201 -0.3839  0.4248  0.2044
   35POPC  H15A 4650   2.776   2.949  11.308 -1.0021  5.0970  1.3103
   35POPC  H15B 4651   2.769   3.075  11.181 -1.8391  0.7177  1.8886
   35POPC  H15C 4652   2.857   2.923  11.148 -1.4846 -2.6321  0.9355
   35POPC   C11 4653   2.679   3.029  10.920 -0.4745  0.6473  0.9187
   35POPC  H11A 4654   2.684   3.027  10.809 -0.7778 -0.4046  0.9044
   35POPC  H11B 4655   2.785   3.052  10.943  0.7883 -2.0936 -1.5834
   35POPC     P 4656   2.446   3.150  10.909 -0.2229 -0.0871  0.0469
   35POPC   O13 4657   2.389   3.270  10.966  0.5047 -0.1299 -0.0502
   35POPC   O14 4658   2.377   3.026  10.940  0.0065 -0.4560 -0.2063
   35POPC   O12 4659   2.597   3.142  10.957 -0.5805 -0.9563 -0.1665
   35POPC   O11 4660   2.465   3.161  10.748  0.3868  0.4217 -0.0574
   35POPC    C1 4661   2.364   3.114  10.659 -0.3713 -0.4259 -0.2206
   35POPC    HA 4662   2.303   3.198  10.621  0.0278 -0.2015 -0.3727
   35POPC    HB 4663   2.298   3.033  10.698  0.3694 -1.0239 -0.1801
   35POPC    C2 4664   2.427   3.058  10.532 -1.0652  0.3529 -0.1483
   35POPC    HS 4665   2.491   2.975  10.569  0.3136  1.2965 -0.3377
   35POPC   O21 4666   2.507   3.165  10.480  0.4384  0.5738 -0.7834
   35POPC   C21 4667   2.604   3.123  10.404 -0.4731  0.5362  0.1498
   35POPC   O22 4668   2.644   3.005  10.394  0.0077 -0.1902  0.7051
   35POPC   C22 4669   2.658   3.247  10.332  0.2416  1.0204 -0.4214
   35POPC   H2R 4670   2.769   3.251  10.338  0.3919  0.5175 -2.2862
   35POPC   H2S 4671   2.622   3.343  10.377  3.9789  3.4176 -2.0392
   35POPC    C3 4672   2.323   3.020  10.428 -0.0907  0.7498  0.2008
   35POPC    HX 4673   2.253   3.107  10.423  0.0772  1.0116  1.8888
   35POPC    HY 4674   2.258   2.937  10.462 -0.3901  1.5836  1.7334
   35POPC   O31 4675   2.373   3.001  10.299  0.2293 -0.0722  0.2369
   35POPC   C31 4676   2.392   2.870  10.258  0.3133  0.0282 -0.0027
   35POPC   O32 4677   2.353   2.770  10.310 -0.1113 -0.1235 -0.5668
   35POPC   C32 4678   2.464   2.857  10.121 -0.0794 -0.2951  0.2010
   35POPC   H2X 4679   2.564   2.811  10.133  0.5898  0.8377 -0.7518
   35POPC   H2Y 4680   2.482   2.961  10.085 -1.6571 -0.2121 -0.4329
   35POPC   C23 4681   2.646   3.240  10.174  0.1869  0.1561  0.7280
   35POPC   H3R 4682   2.682   3.145  10.127  0.3311  0.4445  0.2468
   35POPC   H3S 4683   2.706   3.320  10.125 -1.7896  0.2379 -1.7864
   35POPC   C24 4684   2.499   3.273  10.135  0.0692 -0.1249  0.0134
   35POPC   H4R 4685   2.474   3.352  10.209 -0.8594 -2.4097  2.3171
   35POPC   H4S 4686   2.426   3.192  10.157 -2.5046  1.7504 -1.1081
   35POPC   C25 4687   2.492   3.312   9.988 -0.7062  0.3597 -0.0495
   35POPC   H5R 4688   2.566   3.389   9.956 -0.8837  0.4682 -0.1984
   35POPC   H5S 4689   2.391   3.347   9.958 -0.9954  0.3002  0.8184
   35POPC   C26 4690   2.510   3.187   9.902  0.2322  0.2744  0.0730
   35POPC   H6R 4691   2.419   3.124   9.912  0.2115 -0.0882 -2.0230
   35POPC   H6S 4692   2.600   3.123   9.916  1.7096  1.8961 -1.3878
   35POPC   C27 4693   2.526   3.236   9.757  0.1434  0.2798  0.6752
   35POPC   H7R 4694   2.438   3.302   9.739 -0.0001  0.0570  0.5454
   35POPC   H7S 4695   2.508   3.142   9.700 -0.3877 -0.5646  2.1753
   35POPC   C28 4696   2.658   3.313   9.722 -0.8371 -0.0000 -0.0050
   35POPC   H8R 4697   2.746   3.256   9.758 -0.4401  0.5349 -0.1193
   35POPC   H8S 4698   2.663   3.406   9.781  0.1393 -0.5200  0.7687
   35POPC   C29 4699   2.657   3.349   9.571 -0.2078 -0.0129  0.2768
   35POPC   H91 4700   2.584   3.424   9.539 -0.2647 -0.3890 -0.5053
   35POPC  C210 4701   2.744   3.290   9.481  0.4541  0.0518  0.5587
   35POPC  H101 4702   2.731   3.300   9.372 -2.2108 -0.7880  0.7306
   35POPC  C211 4703   2.851   3.197   9.537 -0.3548 -0.2014  0.1752
   35POPC  H11R 4704   2.891   3.216   9.639  1.9091 -0.9818 -0.5053
   35POPC  H11S 4705   2.939   3.204   9.469 -1.6003  0.1970 -1.4445
   35POPC  C212 4706   2.793   3.058   9.547  0.4321  0.6262 -0.0270
   35POPC  H12R 4707   2.731   3.054   9.639 -2.1361 -1.0233 -1.6942
   35POPC  H12S 4708   2.873   2.982   9.550 -0.4373 -0.4147 -1.7089
   35POPC  C213 4709   2.702   3.009   9.423  0.0039 -0.2322  0.7506
   35POPC  H13R 4710   2.770   3.025   9.337 -0.6750  3.7285  0.7990
   35POPC  H13S 4711   2.611   3.071   9.409  0.4686 -0.1184 -2.6771
   35POPC  C214 4712   2.658   2.864   9.409  0.1045 -0.3510 -0.0848
   35POPC  H14R 4713   2.625   2.813   9.502 -2.2121 -2.2870 -1.8398
   35POPC  H14S 4714   2.744   2.802   9.375  0.9083 -0.9071  2.7211
   35POPC  C215 4715   2.543   2.854   9.304  0.5396  0.3233  0.3727
   35POPC  H15R 4716   2.478   2.943   9.317  1.1453  0.7171  0.7554
   35POPC  H15S 4717   2.484   2.765   9.331  1.2222  0.4147  2.2940
   35POPC  C216 4718   2.589   2.832   9.157 -0.1539 -0.1776 -0.0927
   35POPC  H16R 4719   2.680   2.769   9.155  0.5416  0.7255  1.3470
   35POPC  H16S 4720   2.603   2.930   9.106 -1.1614 -1.9364 -4.1723
   35POPC  C217 4721   2.485   2.764   9.059 -0.1795  0.3222 -1.2180
   35POPC  H17R 4722   2.388   2.793   9.106  0.2047  0.0403 -0.2351
   35POPC  H17S 4723   2.503   2.657   9.079  1.3735  0.4708 -1.6835
   35POPC  C218 4724   2.487   2.792   8.914 -0.4596  0.8303 -0.6315
   35POPC  H18R 4725   2.394   2.744   8.874 -0.1913  0.4944 -0.8541
   35POPC  H18S 4726   2.574   2.748   8.861 -1.3356 -4.1147  1.5020
   35POPC  H18T 4727   2.476   2.899   8.885  0.8598  1.2425  0.3056
   35POPC   C33 4728   2.377   2.789  10.019  0.4045  0.6893 -0.5162
   35POPC   H3X 4729   2.294   2.861  10.006  0.5786  1.4100  1.8928
   35POPC   H3Y 4730   2.343   2.689  10.052  2.4774  0.2134  0.3150
   35POPC   C34 4731   2.442   2.791   9.881 -0.4835 -0.1876 -0.3374
   35POPC   H4X 4732   2.533   2.728   9.881 -0.4460 -0.1653  1.2532
   35POPC   H4Y 4733   2.470   2.895   9.857  0.3936 -0.0842  1.0494
   35POPC   C35 4734   2.353   2.733   9.768  0.1186  0.0962  0.1982
   35POPC   H5X 4735   2.405   2.763   9.674 -0.0918 -1.2916 -0.3896
   35POPC   H5Y 4736   2.249   2.771   9.765 -0.1694 -0.7048 -2.1335
   35POPC   C36 4737   2.346   2.585   9.767  0.3924  0.6238  0.5826
   35POPC   H6X 4738   2.248   2.549   9.727  1.6282 -0.7989 -1.3485
   35POPC   H6Y 4739   2.361   2.542   9.868  3.3967 -2.0026 -0.7933
   35POPC   C37 4740   2.438   2.512   9.667 -0.0211  0.2689  0.4625
   35POPC   H7X 4741   2.442   2.406   9.698  0.1667  0.0170 -0.3934
   35POPC   H7Y 4742   2.542   2.550   9.680  1.2887 -3.3498  2.0370
   35POPC   C38 4743   2.397   2.526   9.520 -0.2196  0.8415  0.4025
   35POPC   H8X 4744   2.393   2.635   9.498  0.2897  0.7773 -0.0206
   35POPC   H8Y 4745   2.291   2.505   9.496  0.2419 -0.2129 -0.8155
   35POPC   C39 4746   2.488   2.447   9.422 -0.9189  0.8139  0.1132
   35POPC   H9X 4747   2.491   2.345   9.466  0.9977  0.7946 -0.0010
   35POPC   H9Y 4748   2.593   2.484   9.421 -0.6090 -0.0121  0.7761
   35POPC  C310 4749   2.439   2.446   9.279 -0.3283 -0.0842 -0.9801
   35POPC  H10X 4750   2.406   2.545   9.243 -0.4286 -0.2678 -1.4024
   35POPC  H10Y 4751   2.339   2.398   9.281 -2.2098  3.5068 -1.8281
   35POPC  C311 4752   2.544   2.387   9.186  0.5448  0.3414  0.4130
   35POPC  H11X 4753   2.570   2.284   9.216 -1.5547 -0.3635 -0.0223
   35POPC  H11Y 4754   2.635   2.450   9.194  0.2667  0.7141  0.6776
   35POPC  C312 4755   2.503   2.371   9.035 -0.6361  0.0527  0.1989
   35POPC  H12X 4756   2.466   2.470   9.002  1.6843  1.3695  1.2517
   35POPC  H12Y 4757   2.429   2.290   9.019 -1.3012  0.7770 -0.4604
   35POPC  C313 4758   2.624   2.322   8.953  0.1989 -0.6477  0.3932
   35POPC  H13X 4759   2.650   2.218   8.983  1.3886 -0.0341  1.6088
   35POPC  H13Y 4760   2.711   2.391   8.964  1.0954 -1.1278 -2.7154
   35POPC  C314 4761   2.596   2.308   8.800  0.2584  0.2805 -0.0088
   35POPC  H14X 4762   2.601   2.410   8.756 -1.0039 -0.3762 -1.8004
   35POPC  H14Y 4763   2.496   2.262   8.789  0.3533 -0.5419  2.1584
   35POPC  C315 4764   2.708   2.230   8.731 -0.7015  0.6263  0.2164
   35POPC  H15X 4765   2.721   2.131   8.779  1.5198  0.0592 -1.3920
   35POPC  H15Y 4766   2.800   2.285   8.758 -2.7345  3.4784  1.9349
   35POPC  C316 4767   2.699   2.207   8.579 -0.6196  0.5470 -0.4724
   35POPC  H16X 4768   2.763   2.119   8.555 -1.5013 -1.4434  3.5861
   35POPC  H16Y 4769   2.746   2.300   8.541  0.3732  0.2770  0.0506
   35POPC  H16Z 4770   2.600   2.196   8.531 -0.4341  0.4820 -0.8470
   36POPC     N 4771   3.138   1.073  11.256  0.1295  0.4536 -0.1042
   36POPC   C12 4772   3.044   1.030  11.144 -0.1640 -0.5183 -0.0625
   36POPC  H12A 4773   2.943   1.056  11.171  0.6886  3.0282  0.2340
   36POPC  H12B 4774   3.045   0.923  11.131  2.7277 -0.5832 -0.0354
   36POPC   C13 4775   3.271   1.041  11.207  0.0710  0.3123  0.1143
   36POPC  H13A 4776   3.286   1.086  11.110 -1.8065  1.7624  0.4388
   36POPC  H13B 4777   3.344   1.062  11.284  1.5124 -0.7514 -0.8994
   36POPC  H13C 4778   3.284   0.935  11.192  1.2590  0.1320  2.1540
   36POPC   C14 4779   3.133   1.216  11.281  0.0062  0.1997  0.4520
   36POPC  H14A 4780   3.216   1.252  11.339 -0.0204 -1.5547  1.6465
   36POPC  H14B 4781   3.145   1.275  11.191  1.4846 -2.9805 -1.6164
   36POPC  H14C 4782   3.036   1.248  11.317 -1.0761  1.2369 -2.9345
   36POPC   C15 4783   3.115   0.999  11.383  0.1441 -0.3643 -0.4616
   36POPC  H15A 4784   3.152   0.899  11.368  2.0794  0.5213 -2.1156
   36POPC  H15B 4785   3.013   0.988  11.416 -0.0844 -2.2855 -1.6354
   36POPC  H15C 4786   3.176   1.040  11.461  1.7895 -2.0296 -0.8021
   36POPC   C11 4787   3.074   1.092  11.004  0.8002  0.7029 -0.6534
   36POPC  H11A 4788   3.084   1.199  11.032  0.7261  0.9632 -1.5943
   36POPC  H11B 4789   2.989   1.070  10.937  1.0057  0.2046 -0.7577
   36POPC     P 4790   3.281   1.116  10.854  0.4755  0.5448 -0.0223
   36POPC   O13 4791   3.360   1.018  10.775  0.0205 -0.2045  0.4759
   36POPC   O14 4792   3.356   1.200  10.950  0.0006 -0.1609  0.4139
   36POPC   O12 4793   3.180   1.025  10.937  0.4273  0.1331 -0.1165
   36POPC   O11 4794   3.180   1.202  10.771 -0.6055 -0.4762 -0.6084
   36POPC    C1 4795   3.081   1.139  10.686 -0.7024 -0.2985  0.1746
   36POPC    HA 4796   2.998   1.211  10.668 -0.4057  0.1348  0.5159
   36POPC    HB 4797   3.044   1.047  10.737 -0.4471 -0.2094  0.5257
   36POPC    C2 4798   3.136   1.091  10.548 -0.1080  0.4449  0.4317
   36POPC    HS 4799   3.247   1.079  10.551 -0.1735 -1.0051 -1.3435
   36POPC   O21 4800   3.096   1.198  10.450 -0.0709 -0.3605  0.3917
   36POPC   C21 4801   3.173   1.207  10.342 -0.5671 -0.6300 -0.0765
   36POPC   O22 4802   3.282   1.146  10.330 -0.1971 -0.0264  0.1202
   36POPC   C22 4803   3.112   1.302  10.238 -0.0813 -0.1159  0.2325
   36POPC   H2R 4804   3.120   1.403  10.283  1.4114  0.2365 -0.7450
   36POPC   H2S 4805   3.009   1.263  10.225  0.0548 -0.3278 -0.2575
   36POPC    C3 4806   3.084   0.947  10.506 -0.1784  0.8368 -0.5625
   36POPC    HX 4807   2.974   0.938  10.505 -0.0864 -0.7592 -3.0168
   36POPC    HY 4808   3.115   0.879  10.588 -0.8251  2.6747  1.2879
   36POPC   O31 4809   3.130   0.897  10.375 -0.2328 -0.6680 -0.2240
   36POPC   C31 4810   3.236   0.824  10.372 -0.3935  0.1810 -0.0171
   36POPC   O32 4811   3.309   0.805  10.468  0.1292  0.2812 -0.6714
   36POPC   C32 4812   3.257   0.766  10.229  0.1349 -0.0737  0.1039
   36POPC   H2X 4813   3.198   0.809  10.146  0.6819  0.9326  0.2151
   36POPC   H2Y 4814   3.215   0.664  10.239 -1.5089  0.3712 -1.6853
   36POPC   C23 4815   3.188   1.292  10.107  0.6432 -0.2906  0.1416
   36POPC   H3R 4816   3.204   1.184  10.083 -2.9288 -0.1492 -4.2680
   36POPC   H3S 4817   3.285   1.347  10.105  0.5349 -0.0297  1.4123
   36POPC   C24 4818   3.109   1.354   9.992  0.1361 -0.0237 -0.8693
   36POPC   H4R 4819   3.088   1.462  10.011  1.6012  0.5980 -2.5995
   36POPC   H4S 4820   3.012   1.300   9.994 -0.8882  1.7212 -0.9472
   36POPC   C25 4821   3.182   1.329   9.858  0.7457  0.2500 -0.2786
   36POPC   H5R 4822   3.115   1.268   9.794  0.4111  0.7178 -0.3759
   36POPC   H5S 4823   3.266   1.259   9.880 -1.2007 -2.0059  0.3123
   36POPC   C26 4824   3.221   1.460   9.788  0.3119 -0.4176  0.5293
   36POPC   H6R 4825   3.296   1.511   9.853  0.6185 -0.6626  0.3702
   36POPC   H6S 4826   3.130   1.524   9.791 -0.1795 -1.1215  2.9336
   36POPC   C27 4827   3.261   1.459   9.641  0.6401  0.2783  0.4265
   36POPC   H7R 4828   3.316   1.366   9.615 -0.6852 -0.1559 -1.0130
   36POPC   H7S 4829   3.315   1.550   9.609  0.5691 -0.0216 -0.5934
   36POPC   C28 4830   3.136   1.456   9.541 -0.8038  0.2330 -0.7688
   36POPC   H8R 4831   3.080   1.367   9.578  0.2062 -0.6515 -1.3209
   36POPC   H8S 4832   3.172   1.440   9.437  0.7173  0.2228 -0.2685
   36POPC   C29 4833   3.051   1.580   9.542  0.0467  0.6973 -0.2713
   36POPC   H91 4834   2.971   1.584   9.618 -1.3231  0.8610 -1.6538
   36POPC  C210 4835   3.062   1.687   9.467  0.1385 -0.1472  0.4765
   36POPC  H101 4836   3.002   1.773   9.499 -1.8050 -0.6650 -1.5612
   36POPC  C211 4837   3.163   1.720   9.362  0.5625 -0.1161 -0.2807
   36POPC  H11R 4838   3.264   1.678   9.380 -0.0462 -0.3390  3.3654
   36POPC  H11S 4839   3.189   1.828   9.361 -1.3473  0.3785 -1.0026
   36POPC  C212 4840   3.132   1.664   9.223 -0.2128  0.2553 -0.4973
   36POPC  H12R 4841   3.037   1.701   9.179  0.2243  1.6433 -0.3398
   36POPC  H12S 4842   3.109   1.557   9.236 -0.5378  0.2365 -1.1588
   36POPC  C213 4843   3.243   1.675   9.119  0.1656 -0.1385  0.1424
   36POPC  H13R 4844   3.322   1.603   9.149  1.1607 -0.3554 -2.7032
   36POPC  H13S 4845   3.300   1.770   9.107  0.2691 -0.2432 -0.2285
   36POPC  C214 4846   3.174   1.635   8.985 -0.6306 -0.0868 -0.0637
   36POPC  H14R 4847   3.104   1.714   8.952 -0.2168  0.3495  0.0918
   36POPC  H14S 4848   3.110   1.544   8.998 -2.5757  1.0092 -1.4390
   36POPC  C215 4849   3.280   1.631   8.863  0.1121 -0.0853  0.0816
   36POPC  H15R 4850   3.234   1.562   8.789  0.6550 -1.7244  1.2169
   36POPC  H15S 4851   3.373   1.588   8.906 -0.1855 -1.0852 -0.2329
   36POPC  C216 4852   3.313   1.760   8.795  0.0054 -0.5722  0.7427
   36POPC  H16R 4853   3.403   1.746   8.731 -1.3589  1.0254 -1.7118
   36POPC  H16S 4854   3.336   1.838   8.871  0.1058 -2.3790  2.6345
   36POPC  C217 4855   3.208   1.814   8.704  0.7658  0.3417  0.7749
   36POPC  H17R 4856   3.145   1.895   8.747 -0.3158  0.9521 -1.7539
   36POPC  H17S 4857   3.154   1.726   8.661  0.5773  0.8315 -0.0280
   36POPC  C218 4858   3.269   1.887   8.578  1.1256  0.4381  0.4697
   36POPC  H18R 4859   3.291   1.811   8.499 -2.7866 -1.0459  0.5938
   36POPC  H18S 4860   3.361   1.941   8.610  1.4863 -0.4767  1.0348
   36POPC  H18T 4861   3.200   1.961   8.533 -0.4059 -0.4840  1.2201
   36POPC   C33 4862   3.408   0.753  10.193 -0.4673  0.2298 -0.4158
   36POPC   H3X 4863   3.419   0.696  10.098  2.7310 -0.2625  0.1044
   36POPC   H3Y 4864   3.465   0.696  10.270  0.3216  0.6293 -0.6890
   36POPC   C34 4865   3.477   0.891  10.182 -0.3801 -0.2645  0.0839
   36POPC   H4X 4866   3.581   0.880  10.220 -0.2663 -0.1910 -0.2095
   36POPC   H4Y 4867   3.423   0.964  10.246  0.8891  1.4735 -0.7486
   36POPC   C35 4868   3.490   0.954  10.044 -0.4060  0.0362  0.0970
   36POPC   H5X 4869   3.388   0.967  10.002 -0.6838  0.8721  0.9922
   36POPC   H5Y 4870   3.552   0.889   9.979  1.3366  0.7857  0.9302
   36POPC   C36 4871   3.546   1.100  10.056  0.3219  0.1468 -1.3950
   36POPC   H6X 4872   3.649   1.094  10.096 -0.1694  0.4329 -0.0408
   36POPC   H6Y 4873   3.495   1.161  10.134 -0.5048 -1.8779 -0.2688
   36POPC   C37 4874   3.545   1.169   9.921 -0.4322 -0.1809  0.3476
   36POPC   H7X 4875   3.535   1.278   9.938 -0.4737  0.1856 -1.7832
   36POPC   H7Y 4876   3.462   1.138   9.854  0.5792 -0.7170 -0.6833
   36POPC   C38 4877   3.672   1.132   9.840  0.1595  0.2719 -0.0699
   36POPC   H8X 4878   3.693   1.025   9.859  0.5407  0.4783  0.6834
   36POPC   H8Y 4879   3.761   1.196   9.858  0.8985 -0.2970 -1.4725
   36POPC   C39 4880   3.650   1.149   9.691  0.2710 -0.0651  0.0709
   36POPC   H9X 4881   3.597   1.245   9.672 -1.2700 -0.3908  2.3159
   36POPC   H9Y 4882   3.575   1.072   9.663  0.9424 -0.2045 -1.4560
   36POPC  C310 4883   3.780   1.132   9.605  0.2432 -0.4660  1.1816
   36POPC  H10X 4884   3.824   1.031   9.614 -0.4368 -0.8961 -0.0997
   36POPC  H10Y 4885   3.842   1.217   9.641 -2.3561  1.6517  1.0019
   36POPC  C311 4886   3.749   1.157   9.451  0.2620 -0.6393  0.1431
   36POPC  H11X 4887   3.850   1.174   9.408  0.6940  0.6104  1.5532
   36POPC  H11Y 4888   3.685   1.248   9.446  0.7650 -0.1649  1.7582
   36POPC  C312 4889   3.675   1.042   9.375  0.4882 -0.2133  0.2558
   36POPC  H12X 4890   3.571   1.017   9.404 -1.3443  0.4011 -4.7675
   36POPC  H12Y 4891   3.736   0.950   9.388 -0.4069 -1.3405 -2.6497
   36POPC  C313 4892   3.656   1.081   9.232 -0.1487  0.4011  0.1382
   36POPC  H13X 4893   3.757   1.110   9.194 -0.6884 -0.8947 -2.4867
   36POPC  H13Y 4894   3.591   1.171   9.230  1.8202  1.9107 -3.1202
   36POPC  C314 4895   3.602   0.970   9.148 -0.4595  1.5020 -0.3418
   36POPC  H14X 4896   3.500   0.953   9.186 -0.5980 -1.1281 -1.6869
   36POPC  H14Y 4897   3.662   0.877   9.158 -1.5060  0.9161  0.6502
   36POPC  C315 4898   3.621   0.995   8.995 -0.9039 -0.4342  0.0453
   36POPC  H15X 4899   3.571   1.088   8.960  0.2347 -0.1225 -0.8159
   36POPC  H15Y 4900   3.578   0.910   8.939  0.3067 -1.1548  0.1808
   36POPC  C316 4901   3.773   0.984   8.947  0.0015 -0.3385 -0.5189
   36POPC  H16X 4902   3.817   0.893   8.995 -0.3395 -0.3221 -0.1678
   36POPC  H16Y 4903   3.833   1.072   8.978 -1.8447  0.0319  2.3585
   36POPC  H16Z 4904   3.780   0.975   8.837 -1.9627 -2.4082 -0.5434
   37POPC     N 4905   1.922   1.902   6.279 -0.1175 -0.1681 -0.5370
   37POPC   C12 4906   1.962   2.043   6.256 -0.0902 -0.7258 -0.2679
   37POPC  H12A 4907   1.876   2.107   6.266  1.0522  0.8930 -0.3228
   37POPC  H12B 4908   1.993   2.062   6.154  2.6441 -1.7580  0.2650
   37POPC   C13 4909   2.016   1.811   6.210  0.3693 -0.3310  0.2214
   37POPC  H13A 4910   2.119   1.823   6.240  0.4501 -0.2533 -0.0801
   37POPC  H13B 4911   1.997   1.710   6.244  1.6053 -0.5314  0.3679
   37POPC  H13C 4912   2.007   1.822   6.103  2.3833  1.7533  0.1787
   37POPC   C14 4913   1.929   1.875   6.426  0.0091 -0.2144 -0.0011
   37POPC  H14A 4914   1.903   1.772   6.443 -3.4094  0.5681  0.2501
   37POPC  H14B 4915   2.024   1.915   6.460  1.2102 -0.2614 -3.0510
   37POPC  H14C 4916   1.849   1.933   6.471  1.0069  1.2094 -0.0028
   37POPC   C15 4917   1.788   1.861   6.226  0.6418 -0.0887 -0.7328
   37POPC  H15A 4918   1.771   1.755   6.233 -0.7580  0.0519 -1.5264
   37POPC  H15B 4919   1.786   1.870   6.119  1.2429 -0.0501 -0.7415
   37POPC  H15C 4920   1.707   1.917   6.271 -0.4738 -2.1721  0.0088
   37POPC   C11 4921   2.097   2.086   6.330  0.1635 -0.0742 -0.2585
   37POPC  H11A 4922   2.089   2.108   6.438  0.4205  2.2886 -0.6553
   37POPC  H11B 4923   2.122   2.187   6.292  1.5755 -0.3023  0.0271
   37POPC     P 4924   2.317   1.974   6.422 -0.2483  0.0417 -0.3109
   37POPC   O13 4925   2.391   2.093   6.467  0.1051  0.5172  0.4914
   37POPC   O14 4926   2.400   1.861   6.371 -0.4358  0.0689  0.2530
   37POPC   O12 4927   2.218   2.016   6.304  0.1326  0.0018  0.4711
   37POPC   O11 4928   2.221   1.921   6.535 -0.3682 -0.4990  0.1021
   37POPC    C1 4929   2.273   1.948   6.669  0.1403 -0.4135  0.5317
   37POPC    HA 4930   2.249   2.049   6.707  0.7932  0.0039 -0.1486
   37POPC    HB 4931   2.382   1.932   6.678 -0.0501 -1.1657  1.7503
   37POPC    C2 4932   2.222   1.839   6.765 -0.6129 -0.2999  0.0590
   37POPC    HS 4933   2.135   1.884   6.818  1.2124  1.9490  1.3326
   37POPC   O21 4934   2.329   1.801   6.859 -0.4477  0.5991  0.8490
   37POPC   C21 4935   2.355   1.896   6.942 -0.0795  0.3068 -0.2206
   37POPC   O22 4936   2.309   2.010   6.938 -0.4559  0.1509 -0.5115
   37POPC   C22 4937   2.467   1.860   7.051  0.2658 -0.5591 -0.0815
   37POPC   H2R 4938   2.417   1.889   7.145 -1.4051 -1.5029 -0.6342
   37POPC   H2S 4939   2.560   1.915   7.024  0.1804 -1.4087 -2.3856
   37POPC    C3 4940   2.170   1.713   6.679  0.0329 -0.1883 -0.4252
   37POPC    HX 4941   2.249   1.686   6.605  0.0212  1.0963 -0.9301
   37POPC    HY 4942   2.075   1.747   6.634  0.0933 -0.4606 -0.7597
   37POPC   O31 4943   2.158   1.601   6.771  0.0845 -0.4884  0.1877
   37POPC   C31 4944   2.142   1.478   6.712 -0.1507  0.3316 -0.0433
   37POPC   O32 4945   2.087   1.458   6.609  0.3944 -0.4682  0.6841
   37POPC   C32 4946   2.201   1.363   6.790  0.1183  0.8259  0.1848
   37POPC   H2X 4947   2.306   1.356   6.754  0.4427  0.0172  1.2360
   37POPC   H2Y 4948   2.130   1.279   6.776 -0.9455  1.4752  1.4254
   37POPC   C23 4949   2.512   1.716   7.058  0.0734  0.4049 -0.2428
   37POPC   H3R 4950   2.563   1.691   6.963 -1.4071  0.5454 -1.1118
   37POPC   H3S 4951   2.420   1.656   7.075  1.0422 -0.7579  1.0499
   37POPC   C24 4952   2.614   1.683   7.178 -0.3864  0.2449 -0.0313
   37POPC   H4R 4953   2.698   1.755   7.168 -0.4010  0.2459 -0.1588
   37POPC   H4S 4954   2.669   1.587   7.164  2.3492  1.1882  3.0025
   37POPC   C25 4955   2.548   1.692   7.316 -0.1092  0.7384  0.7743
   37POPC   H5R 4956   2.444   1.654   7.308  0.5688 -1.0224 -0.1204
   37POPC   H5S 4957   2.532   1.798   7.346  3.5908  1.9556 -0.9132
   37POPC   C26 4958   2.626   1.620   7.421 -0.0327  0.5612 -0.6414
   37POPC   H6R 4959   2.708   1.689   7.450 -0.6559  0.3239  1.9968
   37POPC   H6S 4960   2.670   1.521   7.396 -0.2517 -0.1253  1.4734
   37POPC   C27 4961   2.541   1.595   7.542  0.2048 -0.0546 -0.0165
   37POPC   H7R 4962   2.466   1.517   7.521 -0.6411  0.0115  2.4380
   37POPC   H7S 4963   2.482   1.683   7.576 -1.1876 -1.9007  2.6534
   37POPC   C28 4964   2.618   1.532   7.661 -0.2954  0.1611 -0.0085
   37POPC   H8R 4965   2.664   1.435   7.632 -0.1805  0.3947 -0.6266
   37POPC   H8S 4966   2.536   1.505   7.731  0.8705 -0.4617  1.1340
   37POPC   C29 4967   2.712   1.639   7.718 -0.3051  0.2055 -0.1460
   37POPC   H91 4968   2.781   1.680   7.643 -1.9652  0.2768 -1.6962
   37POPC  C210 4969   2.724   1.674   7.848 -0.3083  0.1686  0.1079
   37POPC  H101 4970   2.795   1.751   7.880 -1.6519  0.3901  2.8559
   37POPC  C211 4971   2.641   1.616   7.961 -1.1290 -0.4734 -0.4852
   37POPC  H11R 4972   2.666   1.510   7.984  0.6729 -0.1941 -1.0102
   37POPC  H11S 4973   2.532   1.631   7.943 -0.6787  3.8433 -0.7476
   37POPC  C212 4974   2.676   1.680   8.095 -0.2779 -0.5325 -0.2227
   37POPC  H12R 4975   2.664   1.790   8.083 -1.2757 -0.1188  3.4870
   37POPC  H12S 4976   2.781   1.652   8.117  0.2795 -0.7015 -2.7756
   37POPC  C213 4977   2.591   1.628   8.210 -0.3398  0.1705  0.3307
   37POPC  H13R 4978   2.627   1.531   8.250  1.4221  0.5509 -0.2658
   37POPC  H13S 4979   2.485   1.638   8.177  0.0504 -0.7834 -1.3148
   37POPC  C214 4980   2.599   1.717   8.336  1.1283 -0.0285  0.3655
   37POPC  H14R 4981   2.545   1.664   8.417 -0.0210 -1.7019 -1.4169
   37POPC  H14S 4982   2.546   1.813   8.320  2.4437  0.5650 -0.6472
   37POPC  C215 4983   2.745   1.752   8.381  0.4595 -0.6303 -0.1147
   37POPC  H15R 4984   2.761   1.837   8.312  1.5978  0.8345  1.8387
   37POPC  H15S 4985   2.815   1.673   8.346 -1.2241 -1.2023 -2.3701
   37POPC  C216 4986   2.780   1.789   8.526  0.1944  0.2580 -0.7183
   37POPC  H16R 4987   2.724   1.880   8.558  0.3982  0.8290 -1.9332
   37POPC  H16S 4988   2.880   1.836   8.532  0.2523 -0.0173  0.7806
   37POPC  C217 4989   2.793   1.674   8.638 -0.1069 -0.3128 -0.1100
   37POPC  H17R 4990   2.835   1.582   8.592 -0.6187  0.1093 -1.4964
   37POPC  H17S 4991   2.688   1.651   8.669 -0.7636  2.4662 -0.0181
   37POPC  C218 4992   2.865   1.709   8.770 -0.4467  0.3417 -0.1477
   37POPC  H18R 4993   2.806   1.780   8.832 -0.9908 -0.2818  0.0602
   37POPC  H18S 4994   2.961   1.763   8.755 -0.5477  0.5580 -0.0130
   37POPC  H18T 4995   2.885   1.615   8.827 -1.6166  0.4653  0.4808
   37POPC   C33 4996   2.221   1.388   6.946 -0.0974  0.1389  0.8783
   37POPC   H3X 4997   2.273   1.483   6.967  0.6080  0.2339 -1.0472
   37POPC   H3Y 4998   2.277   1.300   6.983  0.0752  0.5749  1.6758
   37POPC   C34 4999   2.086   1.402   7.018 -0.1421 -0.5945  0.3567
   37POPC   H4X 5000   2.017   1.327   6.975 -1.5060  0.5201  0.5339
   37POPC   H4Y 5001   2.034   1.497   6.993 -0.7218 -0.8490  0.5847
   37POPC   C35 5002   2.088   1.394   7.170  0.6437 -0.2851 -0.1461
   37POPC   H5X 5003   2.123   1.490   7.213 -2.1326  0.7024  0.1421
   37POPC   H5Y 5004   2.158   1.312   7.196  1.0394 -0.5639 -1.9474
   37POPC   C36 5005   1.946   1.377   7.243 -0.5536  0.3127 -0.4158
   37POPC   H6X 5006   1.920   1.269   7.243  1.7809 -0.3094 -1.2849
   37POPC   H6Y 5007   1.873   1.440   7.188  0.8916  1.5178 -1.0280
   37POPC   C37 5008   1.957   1.429   7.383 -0.8431  0.5187  0.3136
   37POPC   H7X 5009   1.862   1.425   7.441 -0.5866  3.9986  1.1910
   37POPC   H7Y 5010   1.988   1.535   7.396 -1.2400  0.6431  0.2764
   37POPC   C38 5011   2.044   1.340   7.476  0.1406  0.7558  0.6102
   37POPC   H8X 5012   2.149   1.353   7.442 -0.5613  1.0284 -1.6188
   37POPC   H8Y 5013   2.015   1.233   7.468  2.0900  0.1198  1.5742
   37POPC   C39 5014   2.032   1.381   7.629  0.1542 -0.4573 -0.3607
   37POPC   H9X 5015   1.925   1.401   7.649 -0.6601 -1.7506 -2.9645
   37POPC   H9Y 5016   2.086   1.477   7.643  1.1309 -1.2273  1.5208
   37POPC  C310 5017   2.087   1.280   7.732 -0.4798 -0.1693  0.0371
   37POPC  H10X 5018   2.188   1.314   7.763 -0.3359 -0.3302 -0.2401
   37POPC  H10Y 5019   2.100   1.175   7.696 -2.9993 -0.9500  1.1626
   37POPC  C311 5020   1.994   1.261   7.859  0.0903 -0.1869 -0.1390
   37POPC  H11X 5021   1.925   1.176   7.844  1.1082 -1.2665  1.0804
   37POPC  H11Y 5022   1.932   1.352   7.872  1.3821  1.0358 -2.0052
   37POPC  C312 5023   2.068   1.216   7.990 -0.7965  0.1202 -1.1106
   37POPC  H12X 5024   2.140   1.135   7.966  1.7699  2.2158 -0.9996
   37POPC  H12Y 5025   1.986   1.166   8.047 -0.4732 -2.6462 -2.8799
   37POPC  C313 5026   2.136   1.329   8.065 -0.2506 -0.3519 -0.4028
   37POPC  H13X 5027   2.069   1.417   8.053  0.0932  0.0395  0.4595
   37POPC  H13Y 5028   2.235   1.356   8.023 -0.2772 -3.0813 -2.5132
   37POPC  C314 5029   2.148   1.311   8.220  0.0645  0.1323 -0.5742
   37POPC  H14X 5030   2.228   1.237   8.241  1.0797  0.9896 -1.3565
   37POPC  H14Y 5031   2.050   1.293   8.270 -0.5652  0.8469 -1.5100
   37POPC  C315 5032   2.211   1.440   8.275  0.7407 -0.0033 -0.8329
   37POPC  H15X 5033   2.130   1.513   8.251 -0.8175 -1.6382 -0.8202
   37POPC  H15Y 5034   2.303   1.462   8.219  1.2374 -0.5189 -0.2404
   37POPC  C316 5035   2.236   1.439   8.427  0.2473 -0.1534 -0.3630
   37POPC  H16X 5036   2.276   1.538   8.457 -2.2361 -0.0504  3.1953
   37POPC  H16Y 5037   2.310   1.359   8.450 -1.0713 -1.2472  0.2031
   37POPC  H16Z 5038   2.148   1.420   8.492  0.5992 -1.5670 -0.2501
   38POPC     N 5039   3.192   1.209   6.068  0.1270 -0.4484  0.6356
   38POPC   C12 5040   3.097   1.205   6.184  0.0819 -0.2176  0.0595
   38POPC  H12A 5041   2.997   1.189   6.146 -0.1461  0.6001  0.2958
   38POPC  H12B 5042   3.095   1.301   6.233  0.7153 -0.2632  0.1863
   38POPC   C13 5043   3.165   1.087   5.979  0.1459 -0.8664 -0.1899
   38POPC  H13A 5044   3.068   1.099   5.933  0.2127  1.3108  0.0955
   38POPC  H13B 5045   3.232   1.071   5.896  0.9408 -0.5166  0.3733
   38POPC  H13C 5046   3.161   1.003   6.046  2.5273  0.6163  1.9854
   38POPC   C14 5047   3.179   1.331   5.985  0.4605  0.6688 -0.1532
   38POPC  H14A 5048   3.265   1.332   5.919 -0.9505 -1.4302 -2.1532
   38POPC  H14B 5049   3.094   1.333   5.919 -1.2404 -0.9946  1.8555
   38POPC  H14C 5050   3.176   1.416   6.052  1.7081  0.0061  0.8126
   38POPC   C15 5051   3.332   1.220   6.116  0.0019 -0.1162  0.5294
   38POPC  H15A 5052   3.359   1.318   6.152 -0.3454 -0.3794  1.5386
   38POPC  H15B 5053   3.406   1.176   6.051 -0.5107 -0.8129  0.3953
   38POPC  H15C 5054   3.332   1.155   6.203 -1.6985 -0.1419  0.5468
   38POPC   C11 5055   3.135   1.101   6.295  0.0765  0.2739  0.2183
   38POPC  H11A 5056   3.068   1.099   6.383 -0.5042  0.3509 -0.2181
   38POPC  H11B 5057   3.237   1.131   6.327 -0.5077  0.2156  2.2645
   38POPC     P 5058   3.217   0.851   6.307  0.0797  0.0321 -0.1454
   38POPC   O13 5059   3.256   0.764   6.193 -0.2121 -0.1220 -0.4487
   38POPC   O14 5060   3.137   0.786   6.414  0.2283  0.1661 -0.0448
   38POPC   O12 5061   3.139   0.973   6.243 -0.0991  0.2737 -0.1849
   38POPC   O11 5062   3.342   0.917   6.380  0.0776 -0.1593  0.1171
   38POPC    C1 5063   3.341   0.948   6.523  0.5038 -0.3635 -0.1028
   38POPC    HA 5064   3.241   0.988   6.549  0.1887  0.3099 -2.1895
   38POPC    HB 5065   3.422   1.021   6.542  1.9722 -2.3977  1.9733
   38POPC    C2 5066   3.396   0.832   6.597 -0.0582  0.4043  0.1881
   38POPC    HS 5067   3.323   0.749   6.585 -0.8636  0.7733  2.0933
   38POPC   O21 5068   3.411   0.867   6.735  0.3274  0.3615  0.0106
   38POPC   C21 5069   3.385   0.770   6.826 -0.1777  0.8200 -0.0011
   38POPC   O22 5070   3.356   0.657   6.792  0.0155  0.1346  0.4001
   38POPC   C22 5071   3.408   0.813   6.965 -0.0130  0.1145 -0.2350
   38POPC   H2R 5072   3.352   0.904   6.998  0.8839  0.9686 -1.0101
   38POPC   H2S 5073   3.513   0.846   6.977  0.2172 -0.9580  0.7933
   38POPC    C3 5074   3.532   0.774   6.551  0.6090 -0.9979  0.8664
   38POPC    HX 5075   3.612   0.850   6.543  0.6524 -1.1951 -0.9327
   38POPC    HY 5076   3.514   0.752   6.443  1.8587 -0.3110  0.4949
   38POPC   O31 5077   3.580   0.663   6.618 -0.0780 -0.6524 -0.5301
   38POPC   C31 5078   3.528   0.552   6.584 -0.6009 -0.1758 -1.5127
   38POPC   O32 5079   3.448   0.531   6.495  0.4326 -0.3062 -0.3828
   38POPC   C32 5080   3.587   0.451   6.674  0.3719  0.7667  0.3582
   38POPC   H2X 5081   3.544   0.479   6.772  0.8174  0.7741  0.5524
   38POPC   H2Y 5082   3.695   0.474   6.678  0.4751  0.4211 -0.3142
   38POPC   C23 5083   3.375   0.696   7.066  0.1290  0.3118  0.8162
   38POPC   H3R 5084   3.456   0.620   7.067 -1.6625 -1.7651 -0.8404
   38POPC   H3S 5085   3.287   0.641   7.027  1.4733  0.2242 -2.3852
   38POPC   C24 5086   3.332   0.751   7.204 -0.0930  0.6588  0.5597
   38POPC   H4R 5087   3.242   0.816   7.200 -1.2070 -0.6840  2.3846
   38POPC   H4S 5088   3.417   0.803   7.253  0.2680  2.5188 -1.8280
   38POPC   C25 5089   3.300   0.628   7.295 -0.2464 -0.5277 -0.6305
   38POPC   H5R 5090   3.391   0.565   7.290 -0.7734 -1.6968  2.5095
   38POPC   H5S 5091   3.220   0.570   7.244 -1.0843  1.6153 -1.8952
   38POPC   C26 5092   3.268   0.672   7.442  0.6518  0.0297 -0.3171
   38POPC   H6R 5093   3.182   0.742   7.435  0.7107  0.1246 -0.1031
   38POPC   H6S 5094   3.347   0.739   7.483  0.0687  0.6086 -0.1306
   38POPC   C27 5095   3.259   0.556   7.538  0.0101  0.3327 -0.2219
   38POPC   H7R 5096   3.346   0.487   7.540 -0.1671  0.1124 -0.0786
   38POPC   H7S 5097   3.185   0.484   7.496  1.1008 -2.0779  1.7721
   38POPC   C28 5098   3.216   0.581   7.684  0.1516 -0.2163  1.0268
   38POPC   H8R 5099   3.251   0.499   7.751 -3.9605 -2.0032  1.2756
   38POPC   H8S 5100   3.107   0.596   7.699 -0.2816  2.6949 -3.2165
   38POPC   C29 5101   3.272   0.714   7.728  0.0980  0.2910  0.1053
   38POPC   H91 5102   3.379   0.723   7.707  0.3391 -0.8556  0.7922
   38POPC  C210 5103   3.209   0.823   7.772 -0.2076 -1.0088  0.3821
   38POPC  H101 5104   3.273   0.907   7.804  1.2902 -2.3277  1.0353
   38POPC  C211 5105   3.064   0.850   7.799 -0.0602  0.7125  0.4011
   38POPC  H11R 5106   3.000   0.759   7.787  0.4879  0.3339  0.2845
   38POPC  H11S 5107   3.039   0.931   7.727  0.8065  0.1644 -0.5477
   38POPC  C212 5108   3.036   0.906   7.936 -0.7831  0.0071 -0.3616
   38POPC  H12R 5109   2.935   0.952   7.933 -1.5640 -1.7032 -1.0103
   38POPC  H12S 5110   3.104   0.990   7.966  0.3139  0.2259 -3.1725
   38POPC  C213 5111   3.049   0.807   8.051  0.2345 -0.0283 -0.4442
   38POPC  H13R 5112   3.134   0.740   8.025 -0.2075 -0.7758 -0.0137
   38POPC  H13S 5113   2.954   0.749   8.049 -0.9666  1.8530 -0.1433
   38POPC  C214 5114   3.070   0.871   8.195 -0.5183  0.0336  0.2959
   38POPC  H14R 5115   2.973   0.896   8.241  0.6096  0.9606  2.2972
   38POPC  H14S 5116   3.142   0.956   8.185  1.5843 -1.5096  1.6092
   38POPC  C215 5117   3.135   0.773   8.297  0.8158 -0.1721 -0.0211
   38POPC  H15R 5118   3.227   0.730   8.253 -0.0755 -2.5663  0.2905
   38POPC  H15S 5119   3.062   0.688   8.303  2.1870 -1.4225 -0.4661
   38POPC  C216 5120   3.165   0.834   8.434 -0.1902 -0.1630  0.0764
   38POPC  H16R 5121   3.077   0.897   8.459  0.6414  2.5222 -3.0330
   38POPC  H16S 5122   3.257   0.896   8.424 -0.2140 -0.1301  0.0628
   38POPC  C217 5123   3.202   0.731   8.547  0.5319 -0.5433 -0.2995
   38POPC  H17R 5124   3.126   0.651   8.548 -0.7572  0.6387 -0.2084
   38POPC  H17S 5125   3.198   0.782   8.646 -1.9182 -0.0432 -0.6123
   38POPC  C218 5126   3.346   0.674   8.538 -0.1506  0.3822  0.8558
   38POPC  H18R 5127   3.340   0.567   8.567 -2.3776 -0.6994 -2.8484
   38POPC  H18S 5128   3.411   0.732   8.606  0.1991 -0.5107  1.2973
   38POPC  H18T 5129   3.390   0.684   8.436  1.8669 -0.1724  1.6115
   38POPC   C33 5130   3.562   0.298   6.630  0.2103 -0.6848  1.4520
   38POPC   H3X 5131   3.612   0.280   6.532  0.0689  1.2354  0.9891
   38POPC   H3Y 5132   3.454   0.283   6.606  1.0411 -1.9249 -2.3254
   38POPC   C34 5133   3.588   0.212   6.750 -0.0174 -0.0714  0.1263
   38POPC   H4X 5134   3.689   0.232   6.792  0.4853  0.6898 -1.3815
   38POPC   H4Y 5135   3.597   0.105   6.721 -2.3171 -1.3966  3.6971
   38POPC   C35 5136   3.499   0.237   6.872  0.5452  0.3839  0.3492
   38POPC   H5X 5137   3.404   0.185   6.849  0.7600 -0.4332  1.2243
   38POPC   H5Y 5138   3.468   0.344   6.873  1.9530  0.8074  0.7969
   38POPC   C36 5139   3.562   0.203   7.001  0.6333 -0.5712  0.0244
   38POPC   H6X 5140   3.658   0.255   7.023  0.8172 -1.4323  1.3454
   38POPC   H6Y 5141   3.593   0.097   6.997 -0.1448 -0.8789  1.4609
   38POPC   C37 5142   3.472   0.227   7.121  0.2123 -0.4047 -0.8061
   38POPC   H7X 5143   3.469   0.334   7.152 -0.5836 -1.3535  2.9509
   38POPC   H7Y 5144   3.525   0.173   7.203  0.2212  0.1183 -0.4626
   38POPC   C38 5145   3.325   0.187   7.104  0.3847 -0.6437  0.4189
   38POPC   H8X 5146   3.329   0.076   7.092  1.4773 -0.3167 -4.0135
   38POPC   H8Y 5147   3.290   0.228   7.007  2.0845 -1.3548 -0.5378
   38POPC   C39 5148   3.228   0.223   7.212 -0.5182 -0.1927 -0.1058
   38POPC   H9X 5149   3.124   0.186   7.202 -0.9865 -0.3053  3.7070
   38POPC   H9Y 5150   3.237   0.331   7.233 -3.3372  0.1359 -0.2144
   38POPC  C310 5151   3.268   0.152   7.343 -0.3444 -0.0872 -0.8815
   38POPC  H10X 5152   3.370   0.188   7.369 -0.1827  0.8815 -2.6510
   38POPC  H10Y 5153   3.270   0.043   7.324  1.4136 -0.4291  0.9449
   38POPC  C311 5154   3.176   0.191   7.459  0.7442  0.1483 -0.3337
   38POPC  H11X 5155   3.087   0.127   7.447 -0.0890  1.0598  0.7300
   38POPC  H11Y 5156   3.142   0.297   7.464 -0.8048 -0.3987  1.9422
   38POPC  C312 5157   3.243   0.154   7.587  0.4075 -0.0045 -0.0847
   38POPC  H12X 5158   3.342   0.205   7.593  0.0064  0.7151  0.8999
   38POPC  H12Y 5159   3.270   0.046   7.586 -0.4785 -0.2733  1.2718
   38POPC  C313 5160   3.159   0.192   7.706 -0.7719 -0.3242  0.3059
   38POPC  H13X 5161   3.056   0.152   7.699 -0.1207 -2.1370  0.3017
   38POPC  H13Y 5162   3.163   0.302   7.717  2.2841  0.2294 -3.8097
   38POPC  C314 5163   3.219   0.129   7.837 -0.1405  0.4302  0.0743
   38POPC  H14X 5164   3.330   0.142   7.839 -0.2009  0.9972 -0.0438
   38POPC  H14Y 5165   3.194   0.021   7.834  2.8657 -0.4017  0.9848
   38POPC  C315 5166   3.164   0.186   7.966 -0.7396  0.3613 -0.8169
   38POPC  H15X 5167   3.056   0.212   7.959 -0.7889  0.3319 -0.2350
   38POPC  H15Y 5168   3.220   0.277   7.995  1.0042 -1.0731  0.5019
   38POPC  C316 5169   3.170   0.093   8.086 -0.2959  0.0963 -0.3237
   38POPC  H16X 5170   3.118   0.137   8.174  2.1859  4.5940 -0.7929
   38POPC  H16Y 5171   3.269   0.058   8.121 -1.2161 -2.5796 -0.1596
   38POPC  H16Z 5172   3.114   0.001   8.060 -0.0269  0.4372 -2.2688
   39POPC     N 5173   6.674   5.414   5.766  0.2922  0.1832 -0.1174
   39POPC   C12 5174   6.607   5.403   5.899 -0.9502 -0.2062  0.3107
   39POPC  H12A 5175   6.513   5.456   5.902 -0.9434 -0.2450  1.8470
   39POPC  H12B 5176   6.683   5.452   5.959  0.4375 -1.2921 -0.4910
   39POPC   C13 5177   6.817   5.356   5.760  0.5374 -0.0364 -0.3929
   39POPC  H13A 5178   6.878   5.432   5.807 -1.1262  2.4695 -2.0419
   39POPC  H13B 5179   6.820   5.266   5.821  2.6728  0.4855  0.3486
   39POPC  H13C 5180   6.854   5.347   5.659 -0.9405  1.8756 -1.1613
   39POPC   C14 5181   6.585   5.358   5.664  0.4471  0.4971  0.6473
   39POPC  H14A 5182   6.502   5.422   5.639  0.3429  0.5348  1.0857
   39POPC  H14B 5183   6.637   5.349   5.570  0.9210  0.6257  0.8895
   39POPC  H14C 5184   6.563   5.254   5.684  1.6680  0.2325  0.6954
   39POPC   C15 5185   6.681   5.560   5.726  0.2307  0.6136  0.0853
   39POPC  H15A 5186   6.748   5.570   5.642 -0.9366  1.9865 -0.7079
   39POPC  H15B 5187   6.708   5.620   5.812 -1.1573 -2.1356  2.6550
   39POPC  H15C 5188   6.587   5.606   5.702 -0.2148 -0.0046  0.6157
   39POPC   C11 5189   6.575   5.266   5.958 -0.4966 -0.6890 -1.0018
   39POPC  H11A 5190   6.512   5.211   5.885 -2.9059 -1.3930  1.4667
   39POPC  H11B 5191   6.519   5.267   6.054  0.4276  0.5055 -0.4519
   39POPC     P 5192   6.791   5.259   6.104 -0.0116 -0.4071  0.4804
   39POPC   O13 5193   6.740   5.385   6.163 -0.1171 -0.1002  1.3713
   39POPC   O14 5194   6.934   5.254   6.058 -0.3429 -0.4729 -0.0786
   39POPC   O12 5195   6.699   5.194   5.984  0.1181 -0.0820  0.6245
   39POPC   O11 5196   6.773   5.151   6.217  0.2332 -0.5399 -0.3563
   39POPC    C1 5197   6.646   5.109   6.256 -0.1716  0.1785 -0.6540
   39POPC    HA 5198   6.652   4.999   6.245 -0.0259  0.0879  0.2516
   39POPC    HB 5199   6.554   5.137   6.199 -0.2788 -0.9534 -1.0691
   39POPC    C2 5200   6.622   5.148   6.407 -0.1423 -0.2391 -0.5460
   39POPC    HS 5201   6.663   5.249   6.425 -0.3947 -0.5297  1.9476
   39POPC   O21 5202   6.688   5.051   6.492 -0.3082  0.2205 -0.5035
   39POPC   C21 5203   6.800   5.096   6.550 -0.6325 -0.0879 -0.1923
   39POPC   O22 5204   6.836   5.216   6.549  0.1611  0.1877  0.0924
   39POPC   C22 5205   6.853   4.990   6.648  0.2490 -0.2848 -0.0371
   39POPC   H2R 5206   6.961   5.015   6.649 -0.0620  1.2781  2.1245
   39POPC   H2S 5207   6.830   4.888   6.608  1.8773  0.2884 -2.6838
   39POPC    C3 5208   6.478   5.154   6.440  0.3550  0.5591 -0.0034
   39POPC    HX 5209   6.430   5.058   6.413  1.4359  0.1343 -0.4793
   39POPC    HY 5210   6.445   5.234   6.370 -0.8224  0.7534  0.7469
   39POPC   O31 5211   6.456   5.202   6.572 -0.0470 -0.2531 -0.4705
   39POPC   C31 5212   6.406   5.116   6.663 -0.3020  0.9590 -0.0387
   39POPC   O32 5213   6.352   5.009   6.632 -0.1284 -0.0687 -0.1047
   39POPC   C32 5214   6.424   5.162   6.804  0.3690 -0.7341  0.2451
   39POPC   H2X 5215   6.514   5.227   6.808 -0.5886  0.6317  0.4779
   39POPC   H2Y 5216   6.337   5.230   6.820 -0.5032 -1.0211 -2.6281
   39POPC   C23 5217   6.788   5.017   6.791 -0.6700  0.4694 -0.2952
   39POPC   H3R 5218   6.679   5.026   6.771 -1.3349  1.9941  3.3587
   39POPC   H3S 5219   6.828   5.116   6.822  1.4620 -0.4161 -0.0219
   39POPC   C24 5220   6.822   4.917   6.903  0.2623 -0.1375  0.9132
   39POPC   H4R 5221   6.779   4.939   7.003  0.8798  0.4508  1.0584
   39POPC   H4S 5222   6.933   4.922   6.907  0.2180  1.9727  0.4673
   39POPC   C25 5223   6.784   4.768   6.884  0.2360 -0.4005  0.3082
   39POPC   H5R 5224   6.820   4.729   6.787 -1.8780 -1.0020 -0.2786
   39POPC   H5S 5225   6.673   4.766   6.881  0.1587  0.6206 -4.5308
   39POPC   C26 5226   6.829   4.682   7.006 -0.7464  0.0279 -0.8641
   39POPC   H6R 5227   6.752   4.684   7.086 -0.0249  0.9377 -0.1598
   39POPC   H6S 5228   6.925   4.710   7.056 -1.0595 -1.1185  0.4106
   39POPC   C27 5229   6.845   4.536   6.958 -0.2389  0.0176 -0.1825
   39POPC   H7R 5230   6.916   4.544   6.874 -1.6169  1.8996 -1.2518
   39POPC   H7S 5231   6.753   4.488   6.917  1.2097 -0.9075 -2.5087
   39POPC   C28 5232   6.914   4.445   7.062 -0.0060  0.3305 -0.6108
   39POPC   H8R 5233   6.861   4.443   7.159 -0.5750  0.4326 -0.9111
   39POPC   H8S 5234   7.008   4.495   7.095 -0.2078 -1.2515  2.7839
   39POPC   C29 5235   6.928   4.309   7.010  0.8424  0.0117 -0.0857
   39POPC   H91 5236   6.999   4.301   6.926  3.3585  1.6146  1.7527
   39POPC  C210 5237   6.850   4.202   7.031  0.0549  0.4245  0.4777
   39POPC  H101 5238   6.879   4.109   6.979 -1.4010 -0.4463  1.1538
   39POPC  C211 5239   6.740   4.195   7.135 -0.4035  0.9592 -0.1154
   39POPC  H11R 5240   6.638   4.193   7.089  0.0208  2.3128 -1.1838
   39POPC  H11S 5241   6.735   4.291   7.190 -1.3443  0.5495  0.5484
   39POPC  C212 5242   6.759   4.081   7.236  0.6985 -1.0535  0.0912
   39POPC  H12R 5243   6.839   4.011   7.205 -0.9703 -3.3306  0.6818
   39POPC  H12S 5244   6.666   4.021   7.244  0.9786 -1.4012  0.8542
   39POPC  C213 5245   6.800   4.116   7.379  0.0046  0.7738  0.2428
   39POPC  H13R 5246   6.886   4.186   7.385  0.9566 -0.2250 -1.2367
   39POPC  H13S 5247   6.816   4.014   7.419 -1.6036  0.2921 -0.2342
   39POPC  C214 5248   6.679   4.177   7.449  0.8398  0.4593 -0.1949
   39POPC  H14R 5249   6.578   4.148   7.414  0.1745  1.1035  1.1211
   39POPC  H14S 5250   6.687   4.285   7.423  1.8738  0.2582 -0.7843
   39POPC  C215 5251   6.688   4.159   7.600 -0.1879  0.5664  0.4254
   39POPC  H15R 5252   6.618   4.233   7.643  1.7160  2.4630  0.4200
   39POPC  H15S 5253   6.786   4.201   7.632 -0.1354 -0.3968  1.6068
   39POPC  C216 5254   6.654   4.028   7.668  0.1238  0.3035  0.4857
   39POPC  H16R 5255   6.725   3.948   7.635 -0.1563 -0.5689  1.9109
   39POPC  H16S 5256   6.552   4.003   7.632  0.4178  1.7151 -1.4904
   39POPC  C217 5257   6.646   4.030   7.816  0.5908 -0.4660  0.3240
   39POPC  H17R 5258   6.562   4.095   7.848  1.0135  0.2458  0.0147
   39POPC  H17S 5259   6.739   4.078   7.853 -0.0421  1.2763 -0.2656
   39POPC  C218 5260   6.628   3.891   7.886 -0.0984 -0.3646 -0.7861
   39POPC  H18R 5261   6.576   3.897   7.985  1.5408 -1.0411  0.1521
   39POPC  H18S 5262   6.727   3.844   7.900  0.1599 -0.0538 -1.5314
   39POPC  H18T 5263   6.556   3.828   7.830 -2.7229  1.1682  0.6092
   39POPC   C33 5264   6.407   5.062   6.919 -0.1239 -0.2669 -0.1313
   39POPC   H3X 5265   6.496   4.996   6.923 -1.6645 -2.4258  0.5324
   39POPC   H3Y 5266   6.314   5.004   6.899 -0.7885  0.4753  0.7293
   39POPC   C34 5267   6.395   5.120   7.059  0.2190  0.0500 -0.1693
   39POPC   H4X 5268   6.301   5.178   7.068  0.5821  0.5657  0.4203
   39POPC   H4Y 5269   6.484   5.185   7.071  1.8087 -1.8799 -0.9460
   39POPC   C35 5270   6.412   5.008   7.164 -0.7749  0.6776 -0.4741
   39POPC   H5X 5271   6.491   4.941   7.124 -0.0350  0.3744  1.3587
   39POPC   H5Y 5272   6.316   4.953   7.169 -0.0198 -0.6335  0.1656
   39POPC   C36 5273   6.478   5.049   7.298  0.1075 -0.4251 -0.2059
   39POPC   H6X 5274   6.417   5.134   7.335  1.8328  0.8660 -0.2200
   39POPC   H6Y 5275   6.581   5.077   7.268  0.6026  0.3501  2.0631
   39POPC   C37 5276   6.483   4.942   7.411 -0.5615 -0.1280 -0.2228
   39POPC   H7X 5277   6.556   4.866   7.378  0.6471  0.8450  0.1570
   39POPC   H7Y 5278   6.384   4.892   7.417 -0.6665  0.1510  0.6205
   39POPC   C38 5279   6.526   4.988   7.554  0.5774 -0.3526  0.4909
   39POPC   H8X 5280   6.445   5.055   7.589  0.8330  0.2247  0.0062
   39POPC   H8Y 5281   6.626   5.035   7.539  0.5650 -0.3384  0.4525
   39POPC   C39 5282   6.536   4.868   7.654  0.0997  0.0899 -0.3560
   39POPC   H9X 5283   6.607   4.791   7.618  1.0825  0.6338  0.3797
   39POPC   H9Y 5284   6.433   4.827   7.668  0.7273 -0.5279  4.1334
   39POPC  C310 5285   6.594   4.925   7.782 -0.1724  0.3405 -0.1329
   39POPC  H10X 5286   6.564   5.030   7.803  1.3301  0.6540  0.6145
   39POPC  H10Y 5287   6.704   4.931   7.763 -0.5681  4.1940 -2.2442
   39POPC  C311 5288   6.550   4.852   7.907 -0.1673  0.4169 -0.5541
   39POPC  H11X 5289   6.441   4.857   7.928 -0.1079 -0.8723  0.1760
   39POPC  H11Y 5290   6.603   4.894   7.995  2.2749 -1.7962 -0.8332
   39POPC  C312 5291   6.590   4.702   7.910 -0.2693  0.9464  0.1543
   39POPC  H12X 5292   6.543   4.657   7.820  1.8622 -0.2090 -0.4682
   39POPC  H12Y 5293   6.548   4.644   7.994  0.4703 -0.8388 -0.6473
   39POPC  C313 5294   6.734   4.675   7.882  0.5656  0.7463 -0.4856
   39POPC  H13X 5295   6.798   4.729   7.955  1.2345  0.1930 -0.6481
   39POPC  H13Y 5296   6.763   4.712   7.782 -0.5946 -0.2713 -1.2290
   39POPC  C314 5297   6.777   4.530   7.881  0.1660 -0.1638 -0.4217
   39POPC  H14X 5298   6.724   4.471   7.804 -1.1942  1.7780 -1.0335
   39POPC  H14Y 5299   6.763   4.501   7.988 -0.1531  3.0681  0.5261
   39POPC  C315 5300   6.928   4.517   7.866 -0.0744 -0.0061 -0.1678
   39POPC  H15X 5301   6.983   4.588   7.932 -1.2725 -0.9347  1.9233
   39POPC  H15Y 5302   6.967   4.529   7.763  1.9284 -2.0978  0.2630
   39POPC  C316 5303   6.984   4.386   7.916 -0.4449 -0.2398 -0.7990
   39POPC  H16X 5304   6.967   4.372   8.025 -0.3559 -2.8082 -1.0577
   39POPC  H16Y 5305   7.095   4.390   7.912 -0.3130  0.8933  2.0019
   39POPC  H16Z 5306   6.945   4.293   7.870 -0.7941 -0.0408 -0.9150
   40POPC     N 5307   5.752   0.819   6.098 -0.5036  0.2584 -0.1495
   40POPC   C12 5308   5.789   0.750   6.227 -0.3007 -0.3659  0.9192
   40POPC  H12A 5309   5.763   0.818   6.308 -2.8827  0.3808 -0.4156
   40POPC  H12B 5310   5.896   0.746   6.218 -0.3614  0.4872 -0.5343
   40POPC   C13 5311   5.613   0.855   6.099 -0.8468 -0.0211 -0.1349
   40POPC  H13A 5312   5.592   0.921   6.182 -0.2977  0.4184 -0.3358
   40POPC  H13B 5313   5.579   0.900   6.006 -4.3783 -0.3554  0.8598
   40POPC  H13C 5314   5.557   0.763   6.109  0.3624 -0.9331 -1.3618
   40POPC   C14 5315   5.843   0.935   6.072  0.8751 -0.2374  0.8478
   40POPC  H14A 5316   5.948   0.910   6.064  0.7909 -0.2177 -0.7716
   40POPC  H14B 5317   5.807   0.986   5.984  0.7069 -1.5662  0.1179
   40POPC  H14C 5318   5.837   1.016   6.144 -0.7979  1.6163 -1.2277
   40POPC   C15 5319   5.773   0.725   5.985  0.0253 -0.7201  0.2654
   40POPC  H15A 5320   5.742   0.774   5.894  2.2322  0.4894  0.0929
   40POPC  H15B 5321   5.713   0.637   5.998 -2.6358  1.1365  1.4532
   40POPC  H15C 5322   5.879   0.707   5.976  0.8725  3.4631 -0.2226
   40POPC   C11 5323   5.726   0.615   6.259  0.2952 -0.2115  0.0557
   40POPC  H11A 5324   5.615   0.620   6.255  0.2146 -0.1641  1.7027
   40POPC  H11B 5325   5.758   0.598   6.364  0.6280  0.7158  0.1150
   40POPC     P 5326   5.908   0.430   6.190  0.3351 -0.1550  0.0854
   40POPC   O13 5327   6.014   0.512   6.122  0.0966  0.3260 -0.3958
   40POPC   O14 5328   5.874   0.301   6.134 -0.1854 -0.0042  0.3731
   40POPC   O12 5329   5.776   0.510   6.184  0.4730 -0.1994  0.1624
   40POPC   O11 5330   5.943   0.420   6.340  0.0869 -0.1748 -0.7804
   40POPC    C1 5331   5.905   0.309   6.416 -0.7465  0.2966 -0.2911
   40POPC    HA 5332   5.961   0.325   6.511 -0.1999  0.5538 -0.6521
   40POPC    HB 5333   5.944   0.215   6.371 -1.4607 -1.7847  3.0911
   40POPC    C2 5334   5.751   0.287   6.450 -0.0779  0.1179  0.1278
   40POPC    HS 5335   5.700   0.289   6.351  0.6012  1.5210 -0.2161
   40POPC   O21 5336   5.725   0.400   6.531  0.8904 -0.2091 -0.2570
   40POPC   C21 5337   5.597   0.446   6.532 -0.3488 -0.0310 -0.5541
   40POPC   O22 5338   5.509   0.410   6.456 -0.1909 -0.5364 -0.3023
   40POPC   C22 5339   5.574   0.537   6.649  0.1203  0.4762  0.3803
   40POPC   H2R 5340   5.665   0.599   6.656 -0.9681  2.1104  0.5751
   40POPC   H2S 5341   5.566   0.471   6.738  3.5461  0.3790  0.7292
   40POPC    C3 5342   5.719   0.148   6.516  0.0428 -0.4923 -0.1091
   40POPC    HX 5343   5.718   0.069   6.437 -1.7630 -0.1126 -0.5060
   40POPC    HY 5344   5.614   0.154   6.551 -0.6200  0.4855 -2.0888
   40POPC   O31 5345   5.819   0.116   6.614 -0.2250 -0.0832 -0.3785
   40POPC   C31 5346   5.793   0.178   6.732 -0.4437 -0.5128  0.3871
   40POPC   O32 5347   5.678   0.207   6.768  0.1274 -0.6694 -0.1088
   40POPC   C32 5348   5.922   0.197   6.811 -0.0421  0.5976  0.5536
   40POPC   H2X 5349   5.991   0.247   6.740 -0.2447  0.6445  0.3880
   40POPC   H2Y 5350   5.963   0.098   6.840  3.5184  1.6375 -0.4821
   40POPC   C23 5351   5.450   0.628   6.644 -0.3968  1.0791  0.7974
   40POPC   H3R 5352   5.357   0.568   6.653 -1.0910  1.8098 -1.0640
   40POPC   H3S 5353   5.454   0.680   6.546 -0.5562  1.5388  1.0326
   40POPC   C24 5354   5.444   0.732   6.754 -0.1576  0.2238  0.1003
   40POPC   H4R 5355   5.336   0.757   6.749 -0.9230 -2.8239 -2.2960
   40POPC   H4S 5356   5.509   0.816   6.721 -1.3557  0.8508 -0.7529
   40POPC   C25 5357   5.474   0.672   6.892  0.5140 -0.2582 -0.4795
   40POPC   H5R 5358   5.582   0.653   6.903  0.5072  0.3089  0.6998
   40POPC   H5S 5359   5.428   0.573   6.915  0.9746 -0.4038 -0.1756
   40POPC   C26 5360   5.441   0.781   6.988  0.2941 -0.5491  0.4523
   40POPC   H6R 5361   5.332   0.804   6.983  0.5739  1.0912  1.1855
   40POPC   H6S 5362   5.482   0.882   6.965 -0.4229 -0.2934  0.2471
   40POPC   C27 5363   5.484   0.761   7.136 -0.1916 -0.1120  0.6767
   40POPC   H7R 5364   5.594   0.745   7.140  0.0354  1.3831  0.8226
   40POPC   H7S 5365   5.428   0.669   7.166 -0.6996 -0.2461 -0.6142
   40POPC   C28 5366   5.444   0.877   7.228 -0.3993 -0.4608 -0.2935
   40POPC   H8R 5367   5.338   0.895   7.202  0.1002  2.4142 -0.6090
   40POPC   H8S 5368   5.502   0.963   7.187 -3.6159  1.7470 -0.5110
   40POPC   C29 5369   5.472   0.846   7.370  0.6295 -0.4532 -0.6359
   40POPC   H91 5370   5.577   0.845   7.404  0.1169  2.1433  1.3238
   40POPC  C210 5371   5.380   0.831   7.468 -0.7663  0.0153 -0.2667
   40POPC  H101 5372   5.420   0.798   7.565 -0.0193  0.4260 -0.4224
   40POPC  C211 5373   5.232   0.850   7.471 -0.0637 -0.7199  0.2117
   40POPC  H11R 5374   5.184   0.786   7.394  1.8035 -0.1124 -1.5365
   40POPC  H11S 5375   5.205   0.951   7.433  1.9629 -0.6288 -1.1554
   40POPC  C212 5376   5.169   0.811   7.602  0.8063 -0.6667  0.4164
   40POPC  H12R 5377   5.224   0.868   7.680  0.6926 -2.0450  1.5441
   40POPC  H12S 5378   5.183   0.702   7.618 -1.0166 -0.7716  1.5915
   40POPC  C213 5379   5.027   0.856   7.609 -0.3766  0.3095 -0.5843
   40POPC  H13R 5380   4.964   0.826   7.522 -0.1008 -0.6279 -0.4807
   40POPC  H13S 5381   5.018   0.966   7.607 -2.0274  0.2522  1.0981
   40POPC  C214 5382   4.958   0.808   7.741  0.1940 -0.4783 -0.9035
   40POPC  H14R 5383   4.995   0.705   7.758  0.7465 -0.5247 -2.2337
   40POPC  H14S 5384   4.849   0.793   7.722  0.6386 -3.0708 -1.7583
   40POPC  C215 5385   4.981   0.882   7.872 -0.5005 -0.5303 -0.8031
   40POPC  H15R 5386   4.905   0.963   7.873  0.4820  0.4154  0.2997
   40POPC  H15S 5387   5.077   0.936   7.869 -0.6721 -0.2474 -3.2927
   40POPC  C216 5388   4.965   0.795   7.991 -0.1244  0.2370 -0.2270
   40POPC  H16R 5389   5.048   0.721   7.987 -1.2361 -0.9929 -1.5682
   40POPC  H16S 5390   4.870   0.740   7.981 -0.5650  0.9049  0.2201
   40POPC  C217 5391   4.971   0.867   8.125  0.1266 -0.8469  0.1406
   40POPC  H17R 5392   5.073   0.909   8.142 -0.8807  0.6693  3.0234
   40POPC  H17S 5393   4.943   0.791   8.200 -0.5795 -0.3137  0.4227
   40POPC  C218 5394   4.877   0.984   8.137  0.6514  1.0077 -0.6091
   40POPC  H18R 5395   4.773   0.979   8.100  0.0281 -1.7269  1.2194
   40POPC  H18S 5396   4.925   1.075   8.096  2.8204 -0.0197 -0.5012
   40POPC  H18T 5397   4.866   1.005   8.246  0.4491 -0.9389 -0.2145
   40POPC   C33 5398   5.917   0.301   6.927  0.0294  0.2487 -0.0537
   40POPC   H3X 5399   5.835   0.370   6.899 -0.4335 -0.8230 -1.4486
   40POPC   H3Y 5400   6.014   0.355   6.929 -0.0943  0.4799 -0.3189
   40POPC   C34 5401   5.887   0.243   7.070 -0.1890 -0.5492  0.0737
   40POPC   H4X 5402   5.971   0.175   7.095  1.2238  0.5848 -1.4326
   40POPC   H4Y 5403   5.798   0.179   7.050  0.4967 -1.5574  0.1596
   40POPC   C35 5404   5.867   0.359   7.168 -0.4181  0.0441  0.5843
   40POPC   H5X 5405   5.797   0.437   7.133  1.5627  1.3857 -0.5800
   40POPC   H5Y 5406   5.969   0.403   7.175  0.0446 -1.0029  0.8064
   40POPC   C36 5407   5.824   0.307   7.308  0.1356 -0.0803 -0.4609
   40POPC   H6X 5408   5.838   0.391   7.379  1.9869 -0.2398 -0.5827
   40POPC   H6Y 5409   5.894   0.225   7.335 -0.1206  0.1515  0.9739
   40POPC   C37 5410   5.676   0.269   7.310  0.7723 -0.2477 -0.4313
   40POPC   H7X 5411   5.673   0.187   7.385 -0.3801 -1.2371 -1.5092
   40POPC   H7Y 5412   5.649   0.225   7.212  1.2754  3.9163 -2.6501
   40POPC   C38 5413   5.575   0.385   7.344 -0.3936 -0.3497 -0.0552
   40POPC   H8X 5414   5.489   0.376   7.274 -0.2913  3.7229 -0.9365
   40POPC   H8Y 5415   5.609   0.489   7.323 -5.2538  1.5257 -0.0660
   40POPC   C39 5416   5.524   0.377   7.492 -0.6175  0.2295  0.5298
   40POPC   H9X 5417   5.598   0.368   7.574 -2.4044 -3.3061  1.9801
   40POPC   H9Y 5418   5.465   0.283   7.500 -1.7672  0.8475 -0.2329
   40POPC  C310 5419   5.414   0.483   7.512  0.2001 -0.2231 -0.4667
   40POPC  H10X 5420   5.317   0.450   7.469 -1.1632  1.3379  1.2424
   40POPC  H10Y 5421   5.440   0.571   7.449 -1.4424 -0.0033 -0.9025
   40POPC  C311 5422   5.407   0.521   7.658 -0.1284  0.0042  0.3197
   40POPC  H11X 5423   5.341   0.610   7.665 -0.3817 -0.2101  0.6681
   40POPC  H11Y 5424   5.507   0.542   7.703 -1.2705  2.2678  2.0013
   40POPC  C312 5425   5.343   0.414   7.741 -0.0619  0.4724  0.5315
   40POPC  H12X 5426   5.394   0.316   7.730  3.0337  2.1196 -1.3592
   40POPC  H12Y 5427   5.238   0.409   7.706 -0.0391 -0.1003  0.5437
   40POPC  C313 5428   5.343   0.447   7.891 -0.3685  0.7333  0.3405
   40POPC  H13X 5429   5.275   0.533   7.907 -3.1217 -0.8106 -1.9901
   40POPC  H13Y 5430   5.446   0.470   7.925  0.0108  0.1722 -0.3870
   40POPC  C314 5431   5.285   0.333   7.981 -0.1022 -0.3728  0.7617
   40POPC  H14X 5432   5.355   0.247   7.977  1.3918  0.4997  4.1813
   40POPC  H14Y 5433   5.194   0.296   7.929  0.8004 -0.8704 -0.4998
   40POPC  C315 5434   5.252   0.375   8.127 -0.1929  0.2462  0.1188
   40POPC  H15X 5435   5.153   0.425   8.136 -0.5198 -0.1555 -1.0335
   40POPC  H15Y 5436   5.333   0.435   8.174  1.8672 -1.7008 -0.7622
   40POPC  C316 5437   5.226   0.250   8.217 -0.2971 -0.0021  0.2878
   40POPC  H16X 5438   5.201   0.267   8.324  1.2561  0.1251  0.6486
   40POPC  H16Y 5439   5.315   0.184   8.219  0.0509  0.4614 -0.0065
   40POPC  H16Z 5440   5.137   0.213   8.162  0.9043  2.4578 -3.7540
   41CHL1    C3 5441   4.365   5.443   9.818  0.6447  0.0498  0.1751
   41CHL1    H3 5442   4.264   5.488   9.816  0.8470  0.5133  0.1241
   41CHL1    O3 5443   4.422   5.483   9.939  0.0256 -0.1264  0.2915
   41CHL1   H3' 5444   4.511   5.450   9.933  0.5285  0.5429  2.8848
   41CHL1    C4 5445   4.360   5.286   9.811 -0.1108  0.3008 -0.2127
   41CHL1   H4A 5446   4.461   5.244   9.831 -0.9850 -1.5855  0.4845
   41CHL1   H4B 5447   4.297   5.259   9.899 -0.2364  0.3482 -0.2866
   41CHL1    C5 5448   4.301   5.242   9.684  0.5121  0.9496 -0.5093
   41CHL1    C6 5449   4.188   5.163   9.684  0.5100 -0.3175 -0.6009
   41CHL1    H6 5450   4.145   5.124   9.777  1.1255 -1.7245 -0.8755
   41CHL1    C7 5451   4.121   5.114   9.555  0.5534  0.2522 -0.5280
   41CHL1   H7A 5452   4.095   5.006   9.562  0.7944  0.3144  2.2792
   41CHL1   H7B 5453   4.027   5.171   9.538  0.3057 -0.1358 -0.4657
   41CHL1    C8 5454   4.208   5.125   9.424  0.6004  0.2333  0.0308
   41CHL1    H8 5455   4.275   5.039   9.443 -0.4021 -0.3969  0.7821
   41CHL1   C14 5456   4.123   5.124   9.300 -0.4644 -0.7325  0.4229
   41CHL1   H14 5457   4.058   5.213   9.315  0.6035 -0.0937  1.4961
   41CHL1   C15 5458   4.038   5.000   9.270 -0.2984  0.1810 -1.0232
   41CHL1  H15A 5459   4.088   4.911   9.313  0.4926  2.5238  3.4506
   41CHL1  H15B 5460   3.957   5.009   9.346  0.4618 -0.7670 -0.0727
   41CHL1   C16 5461   3.992   5.006   9.127  0.2641  0.1954  0.3026
   41CHL1  H16A 5462   4.016   4.910   9.075  0.0336  0.8663 -1.1004
   41CHL1  H16B 5463   3.885   5.034   9.116  0.8361  2.2036 -0.5570
   41CHL1   C17 5464   4.075   5.125   9.067  0.3254 -0.0741  0.0810
   41CHL1   H17 5465   4.013   5.216   9.080 -1.2421 -1.2288  1.1349
   41CHL1   C13 5466   4.196   5.148   9.167  0.8771 -0.2140 -0.3523
   41CHL1   C18 5467   4.302   5.040   9.147  0.0790  0.4248  0.7846
   41CHL1  H18A 5468   4.365   5.085   9.068  0.1074 -1.5777 -0.3943
   41CHL1  H18B 5469   4.365   5.014   9.236  1.8713 -3.0258 -1.2958
   41CHL1  H18C 5470   4.253   4.945   9.117 -4.3229  1.7720  2.8442
   41CHL1   C12 5471   4.256   5.287   9.177  0.0287 -0.1609  0.2757
   41CHL1  H12A 5472   4.311   5.301   9.082  0.3351 -3.5312 -0.1744
   41CHL1  H12B 5473   4.167   5.352   9.188  1.1114  1.3133  0.7591
   41CHL1   C11 5474   4.348   5.305   9.296 -0.0842  0.2461  0.4675
   41CHL1  H11A 5475   4.441   5.244   9.295  0.3201  0.7251  2.8428
   41CHL1  H11B 5476   4.366   5.415   9.297  0.1424  0.2418 -0.8966
   41CHL1    C9 5477   4.282   5.263   9.432 -0.4635  0.1365  0.1633
   41CHL1    H9 5478   4.194   5.331   9.441  0.4780  1.2939  1.0257
   41CHL1   C10 5479   4.366   5.288   9.556  0.3665  0.0742  0.5212
   41CHL1   C19 5480   4.499   5.205   9.536 -0.0502  0.0808 -1.3516
   41CHL1  H19A 5481   4.558   5.200   9.630  0.1525  3.1475 -1.2385
   41CHL1  H19B 5482   4.471   5.098   9.521 -0.3104  0.0793 -0.8568
   41CHL1  H19C 5483   4.569   5.250   9.462 -0.8663  1.0105 -1.5675
   41CHL1    C1 5484   4.409   5.437   9.571 -0.5765  0.3459 -0.3275
   41CHL1   H1A 5485   4.493   5.466   9.504  1.8956  0.4594  2.6068
   41CHL1   H1B 5486   4.322   5.503   9.548 -1.2761 -0.7725 -1.0192
   41CHL1    C2 5487   4.460   5.484   9.707 -0.2111  0.6546 -0.5521
   41CHL1   H2A 5488   4.474   5.593   9.722  0.3152  0.5438 -0.2252
   41CHL1   H2B 5489   4.552   5.429   9.734  0.4417  1.5624 -0.8734
   41CHL1   C20 5490   4.103   5.107   8.915  0.3250 -0.4139  0.3021
   41CHL1   H20 5491   4.171   5.021   8.902 -0.3267 -1.0748  1.1393
   41CHL1   C21 5492   4.171   5.238   8.863 -0.7729 -0.9162  0.5313
   41CHL1  H21A 5493   4.278   5.237   8.893 -0.9095 -3.3770  1.1419
   41CHL1  H21B 5494   4.115   5.328   8.895 -1.1134 -1.6579  2.1445
   41CHL1  H21C 5495   4.179   5.238   8.752  0.5475 -0.8533  0.6093
   41CHL1   C22 5496   3.971   5.080   8.833 -0.9697 -0.3006 -0.0021
   41CHL1  H22A 5497   3.944   4.979   8.870  2.9648 -2.0355 -1.3521
   41CHL1  H22B 5498   3.909   5.166   8.864 -0.1858  1.1218 -2.1410
   41CHL1   C23 5499   3.970   5.077   8.678  0.2835 -0.2354  0.7346
   41CHL1  H23A 5500   3.863   5.078   8.646  0.1146  0.6214  1.3029
   41CHL1  H23B 5501   4.000   5.179   8.647 -0.4941  0.6199  2.6242
   41CHL1   C24 5502   4.057   4.970   8.623  0.6294  0.1787  0.0921
   41CHL1  H24A 5503   4.167   4.981   8.639  1.0113 -2.1365 -0.5179
   41CHL1  H24B 5504   4.041   4.870   8.669  3.0961  0.6303  2.1413
   41CHL1   C25 5505   4.044   4.952   8.471  0.7797  0.3783  0.2893
   41CHL1   H25 5506   4.045   5.052   8.422  1.3059  0.8113  1.1631
   41CHL1   C26 5507   4.161   4.872   8.411 -0.0095  0.0657 -0.1220
   41CHL1  H26A 5508   4.262   4.916   8.425  0.0122  0.8258 -2.3407
   41CHL1  H26B 5509   4.167   4.765   8.442  1.7064  0.4643  1.0321
   41CHL1  H26C 5510   4.146   4.883   8.301  1.8133 -0.9285 -0.5130
   41CHL1   C27 5511   3.919   4.876   8.443  0.2766 -0.0219  0.4102
   41CHL1  H27A 5512   3.932   4.773   8.482 -0.5097 -0.3132 -0.0692
   41CHL1  H27B 5513   3.836   4.938   8.483  0.5979 -0.6411  2.0877
   41CHL1  H27C 5514   3.887   4.876   8.336  0.0560 -1.4929  0.4605
   42CHL1    C3 5515   4.761   4.592   9.626 -0.0189 -0.1780  0.1532
   42CHL1    H3 5516   4.845   4.642   9.572 -1.6047  2.3661 -0.1345
   42CHL1    O3 5517   4.723   4.680   9.730  0.9076 -0.1841  0.1968
   42CHL1   H3' 5518   4.639   4.647   9.763  1.0643  2.3678  3.5979
   42CHL1    C4 5519   4.641   4.573   9.534 -0.4879 -0.1369 -0.5689
   42CHL1   H4A 5520   4.554   4.554   9.601 -0.2723  3.8078  1.1179
   42CHL1   H4B 5521   4.622   4.672   9.488  2.3343  0.4546 -0.6423
   42CHL1    C5 5522   4.644   4.472   9.427 -0.3762  0.8055  0.6445
   42CHL1    C6 5523   4.623   4.510   9.298  0.3134 -0.1973  0.5645
   42CHL1    H6 5524   4.588   4.611   9.272  0.2725  0.0210  1.4549
   42CHL1    C7 5525   4.622   4.413   9.179 -0.2375 -0.5759  0.4364
   42CHL1   H7A 5526   4.528   4.427   9.120 -0.7906  0.2976  1.4909
   42CHL1   H7B 5527   4.717   4.425   9.124 -1.1975  2.2109 -0.8168
   42CHL1    C8 5528   4.617   4.265   9.233 -0.1854  0.2900  0.9489
   42CHL1    H8 5529   4.513   4.252   9.268 -1.9036 -2.1766 -4.0252
   42CHL1   C14 5530   4.648   4.167   9.109 -0.1528  0.0369  0.0372
   42CHL1   H14 5531   4.744   4.210   9.074  0.0927 -0.4015  0.1648
   42CHL1   C15 5532   4.576   4.174   8.978 -0.7457 -0.3157 -0.4133
   42CHL1  H15A 5533   4.466   4.166   8.986 -0.6395 -0.2489  1.6785
   42CHL1  H15B 5534   4.585   4.264   8.913 -0.2735  0.0483  0.1428
   42CHL1   C16 5535   4.616   4.047   8.903  0.2216  0.0132 -0.2999
   42CHL1  H16A 5536   4.530   3.987   8.867 -0.0915  0.3485 -0.1096
   42CHL1  H16B 5537   4.688   4.069   8.820  1.7117  0.1076  0.9660
   42CHL1   C17 5538   4.692   3.962   9.011 -0.1515  0.5615  0.2665
   42CHL1   H17 5539   4.801   3.971   8.992 -0.4080 -0.7511 -2.2796
   42CHL1   C13 5540   4.659   4.023   9.150  0.5235  0.5555 -0.1975
   42CHL1   C18 5541   4.520   3.978   9.196 -0.5667  1.0107 -0.1846
   42CHL1  H18A 5542   4.516   3.869   9.218  0.5825  0.7353 -1.2087
   42CHL1  H18B 5543   4.481   4.024   9.289 -2.1483 -0.4917 -0.0572
   42CHL1  H18C 5544   4.441   4.001   9.122 -0.1934  4.1297  0.2702
   42CHL1   C12 5545   4.771   4.007   9.257  0.0856  0.0922 -0.5910
   42CHL1  H12A 5546   4.781   3.901   9.291 -2.7860 -0.8122 -2.1995
   42CHL1  H12B 5547   4.867   4.035   9.210  1.5251 -2.2396  0.7317
   42CHL1   C11 5548   4.741   4.098   9.377 -0.3226  0.5819  0.4770
   42CHL1  H11A 5549   4.651   4.054   9.425 -0.7647  2.4547  1.4576
   42CHL1  H11B 5550   4.825   4.082   9.448 -0.1749  1.2291  0.4555
   42CHL1    C9 5551   4.721   4.245   9.345  0.3462 -0.9863 -0.4993
   42CHL1    H9 5552   4.816   4.271   9.294  1.5006 -3.2934  0.3603
   42CHL1   C10 5553   4.695   4.333   9.468  0.0736 -0.0192 -0.5385
   42CHL1   C19 5554   4.584   4.257   9.551 -0.0858 -0.2430  0.0330
   42CHL1  H19A 5555   4.510   4.199   9.492  0.2525  0.0415 -0.6775
   42CHL1  H19B 5556   4.640   4.186   9.616  2.5398  3.4066  2.1780
   42CHL1  H19C 5557   4.514   4.325   9.603 -0.0164  0.2458 -0.5028
   42CHL1    C1 5558   4.820   4.349   9.557  0.1654 -0.1933  0.5134
   42CHL1   H1A 5559   4.852   4.251   9.598  0.0036 -0.8286 -0.8118
   42CHL1   H1B 5560   4.905   4.377   9.492 -0.2508  1.6122  0.7018
   42CHL1    C2 5561   4.803   4.449   9.674  0.3245  0.4200 -0.0169
   42CHL1   H2A 5562   4.895   4.456   9.737  0.4834 -2.2868  0.1606
   42CHL1   H2B 5563   4.719   4.403   9.731  1.0294 -1.6275 -0.5536
   42CHL1   C20 5564   4.669   3.808   8.982 -0.1294 -0.5533  0.5094
   42CHL1   H20 5565   4.562   3.781   8.983 -0.6384  1.1959 -1.0394
   42CHL1   C21 5566   4.760   3.730   9.078 -0.5331  0.3009 -0.2718
   42CHL1  H21A 5567   4.782   3.622   9.062  2.3578  1.1378 -2.9255
   42CHL1  H21B 5568   4.726   3.745   9.183 -1.5717  1.2615 -0.7250
   42CHL1  H21C 5569   4.857   3.783   9.083  0.5661 -1.5874 -0.7458
   42CHL1   C22 5570   4.717   3.774   8.839 -0.0884  0.0096 -0.0193
   42CHL1  H22A 5571   4.667   3.838   8.762  1.0422 -0.9683 -1.6400
   42CHL1  H22B 5572   4.826   3.789   8.830  0.1139 -1.0958  0.4381
   42CHL1   C23 5573   4.693   3.622   8.798  0.6463 -0.3705 -0.2252
   42CHL1  H23A 5574   4.785   3.570   8.834  1.9492  1.2227 -1.1352
   42CHL1  H23B 5575   4.614   3.584   8.867  1.6708  0.4013  1.4493
   42CHL1   C24 5576   4.667   3.581   8.657 -0.0860  0.6801  0.4494
   42CHL1  H24A 5577   4.654   3.471   8.665 -0.8060  0.5879 -1.5868
   42CHL1  H24B 5578   4.580   3.637   8.619 -0.9098 -0.7556  0.1211
   42CHL1   C25 5579   4.775   3.615   8.555  0.1553 -0.4778  0.3797
   42CHL1   H25 5580   4.822   3.713   8.578  1.4071 -1.0242  0.2355
   42CHL1   C26 5581   4.886   3.509   8.547  0.0843 -0.1606  0.1989
   42CHL1  H26A 5582   4.931   3.499   8.648  0.5438  1.0935  0.1270
   42CHL1  H26B 5583   4.852   3.411   8.508 -0.0160  0.4105 -1.1853
   42CHL1  H26C 5584   4.961   3.543   8.473 -0.9088  1.2112 -0.2203
   42CHL1   C27 5585   4.727   3.628   8.408  0.4970  1.1629 -0.3868
   42CHL1  H27A 5586   4.636   3.691   8.406 -2.1458 -2.3649  0.0255
   42CHL1  H27B 5587   4.813   3.660   8.345  3.7583 -2.3988  1.7875
   42CHL1  H27C 5588   4.682   3.536   8.366 -0.8295  1.2153  0.8489
   43CHL1    C3 5589   4.933   5.705   9.823  0.4702 -0.8429 -0.8063
   43CHL1    H3 5590   4.834   5.665   9.855  0.9440 -1.4726 -0.0890
   43CHL1    O3 5591   5.003   5.747   9.940 -0.6532 -0.3191 -0.4142
   43CHL1   H3' 5592   5.019   5.676  10.003 -2.3013 -2.3298 -2.1180
   43CHL1    C4 5593   5.011   5.602   9.749 -0.0871  0.3786  0.1447
   43CHL1   H4A 5594   5.106   5.650   9.719  0.4312 -1.0739 -0.6240
   43CHL1   H4B 5595   5.031   5.534   9.834  0.9027  1.7107  1.0210
   43CHL1    C5 5596   4.947   5.552   9.622  0.7001 -0.2062 -0.6347
   43CHL1    C6 5597   4.904   5.424   9.604  0.3257  0.0090  0.9793
   43CHL1    H6 5598   4.924   5.348   9.680 -0.5808 -1.2163  0.0291
   43CHL1    C7 5599   4.831   5.386   9.475  0.4336 -1.1567  0.0058
   43CHL1   H7A 5600   4.840   5.290   9.420 -1.2486 -1.0651 -0.4831
   43CHL1   H7B 5601   4.721   5.398   9.484  0.4072  1.0189 -2.1885
   43CHL1    C8 5602   4.865   5.483   9.359 -0.5328  0.0609 -0.6103
   43CHL1    H8 5603   4.971   5.463   9.332 -0.3311 -1.2470  0.9841
   43CHL1   C14 5604   4.778   5.439   9.234 -0.1821  0.8161 -0.0796
   43CHL1   H14 5605   4.676   5.438   9.279 -0.3583  3.7166 -0.2657
   43CHL1   C15 5606   4.798   5.300   9.167  0.5482 -1.0059 -0.7083
   43CHL1  H15A 5607   4.904   5.286   9.135  0.5252 -0.5455 -0.9939
   43CHL1  H15B 5608   4.780   5.221   9.242  1.6426 -0.6855 -0.0746
   43CHL1   C16 5609   4.713   5.314   9.035  0.4702 -0.0834  0.1120
   43CHL1  H16A 5610   4.771   5.267   8.953  0.4167 -1.6031  0.9208
   43CHL1  H16B 5611   4.613   5.274   9.063 -0.3155  0.9849 -1.0205
   43CHL1   C17 5612   4.680   5.467   9.017  0.1069 -0.0706 -0.1893
   43CHL1   H17 5613   4.577   5.472   9.059 -0.4840  0.6424 -1.6627
   43CHL1   C13 5614   4.774   5.534   9.114 -0.2592 -0.4907 -0.0732
   43CHL1   C18 5615   4.914   5.554   9.053 -0.2308  0.0130 -0.2044
   43CHL1  H18A 5616   4.910   5.649   8.995  0.5725  1.1856  1.5769
   43CHL1  H18B 5617   4.992   5.553   9.132 -0.6114  0.9481  0.1968
   43CHL1  H18C 5618   4.937   5.464   8.991  0.4157 -1.1242  1.6158
   43CHL1   C12 5619   4.730   5.673   9.177  0.4757 -0.4365 -0.0122
   43CHL1  H12A 5620   4.726   5.758   9.106  0.7975 -1.4846 -1.3368
   43CHL1  H12B 5621   4.629   5.656   9.220 -0.0936 -1.6209 -1.7172
   43CHL1   C11 5622   4.822   5.719   9.285 -0.0014 -0.5320 -0.3219
   43CHL1  H11A 5623   4.920   5.757   9.251  0.3904 -0.9065  0.3570
   43CHL1  H11B 5624   4.787   5.813   9.331  5.3481  2.6588 -1.9419
   43CHL1    C9 5625   4.828   5.614   9.405  0.1286  0.5020 -0.1209
   43CHL1    H9 5626   4.730   5.613   9.457  0.4394  2.1633  0.5373
   43CHL1   C10 5627   4.919   5.664   9.522  0.7083 -0.2022 -0.5555
   43CHL1   C19 5628   5.045   5.726   9.465  0.0910 -0.3063 -0.1524
   43CHL1  H19A 5629   5.023   5.819   9.409  2.2553 -0.7693 -1.9140
   43CHL1  H19B 5630   5.111   5.768   9.544 -1.7557 -2.4867  2.7766
   43CHL1  H19C 5631   5.103   5.648   9.412 -0.0492  0.2380 -1.1239
   43CHL1    C1 5632   4.842   5.774   9.605  0.6016 -0.4067  0.4756
   43CHL1   H1A 5633   4.812   5.853   9.533  1.4865 -0.2223  0.3005
   43CHL1   H1B 5634   4.746   5.736   9.647  0.7344  1.9047  3.1855
   43CHL1    C2 5635   4.906   5.830   9.734 -0.0314  0.3679 -0.2910
   43CHL1   H2A 5636   4.838   5.901   9.786 -0.8956  0.7530 -1.8725
   43CHL1   H2B 5637   5.008   5.871   9.716  0.2916  0.6119  1.8152
   43CHL1   C20 5638   4.672   5.519   8.872  0.4785  0.4018  0.4585
   43CHL1   H20 5639   4.771   5.503   8.825  0.2321  0.5344 -0.1085
   43CHL1   C21 5640   4.650   5.672   8.864  0.4009 -0.7849  0.0499
   43CHL1  H21A 5641   4.564   5.698   8.930  0.1101  2.4294 -1.4351
   43CHL1  H21B 5642   4.625   5.707   8.762 -0.2193 -0.4331  0.3138
   43CHL1  H21C 5643   4.747   5.718   8.891  0.3888 -0.8176  0.1508
   43CHL1   C22 5644   4.569   5.440   8.794  0.7555  0.0818  0.5373
   43CHL1  H22A 5645   4.581   5.330   8.811 -0.2968 -0.3177 -1.1042
   43CHL1  H22B 5646   4.466   5.473   8.817  1.0864  1.9387 -0.4652
   43CHL1   C23 5647   4.593   5.467   8.643  0.0433 -0.7572  0.2236
   43CHL1  H23A 5648   4.597   5.576   8.620  0.5158 -0.3576  2.0114
   43CHL1  H23B 5649   4.687   5.432   8.595 -0.7563 -0.1692 -1.8822
   43CHL1   C24 5650   4.494   5.391   8.551  0.0593  0.0734  0.0192
   43CHL1  H24A 5651   4.528   5.409   8.447  0.6386 -1.5232 -0.0883
   43CHL1  H24B 5652   4.508   5.284   8.575 -2.1860  0.1316  1.9301
   43CHL1   C25 5653   4.340   5.415   8.573 -0.4458 -0.3383  0.7710
   43CHL1   H25 5654   4.301   5.414   8.677 -1.5185 -3.0632  0.4076
   43CHL1   C26 5655   4.296   5.562   8.533 -0.5881 -0.8143  0.0826
   43CHL1  H26A 5656   4.311   5.630   8.620  2.3003 -0.3022 -0.6961
   43CHL1  H26B 5657   4.356   5.596   8.447 -0.5894  1.2804  0.8527
   43CHL1  H26C 5658   4.191   5.555   8.497 -0.6054  0.4190 -0.1436
   43CHL1   C27 5659   4.253   5.312   8.504  0.3444  0.6726 -0.0494
   43CHL1  H27A 5660   4.144   5.320   8.521  0.6049 -0.5207  2.5239
   43CHL1  H27B 5661   4.258   5.317   8.393 -0.5990 -3.8228 -0.4737
   43CHL1  H27C 5662   4.283   5.213   8.543 -1.9978 -0.0360  0.0652
   44CHL1    C3 5663   5.656   5.896  10.016  0.0194 -0.7999  0.5129
   44CHL1    H3 5664   5.661   5.786  10.001 -0.0015 -0.6117 -1.0390
   44CHL1    O3 5665   5.693   5.931  10.151  0.3676  0.4096 -0.0984
   44CHL1   H3' 5666   5.668   6.021  10.170 -0.1637  0.3828 -0.6369
   44CHL1    C4 5667   5.757   5.956   9.915  0.3823 -0.1192  0.5771
   44CHL1   H4A 5668   5.764   6.065   9.936 -1.1761 -0.4065  2.9497
   44CHL1   H4B 5669   5.851   5.903   9.941  0.2273  0.1714  1.7929
   44CHL1    C5 5670   5.718   5.932   9.769 -0.4573  0.4931  1.2364
   44CHL1    C6 5671   5.805   5.873   9.684 -0.5356 -0.0544  0.4226
   44CHL1    H6 5672   5.903   5.844   9.725 -1.0869 -0.5599  1.4557
   44CHL1    C7 5673   5.770   5.847   9.543  0.4363  0.3627  0.6235
   44CHL1   H7A 5674   5.857   5.882   9.483  1.7858 -1.6833  1.2797
   44CHL1   H7B 5675   5.766   5.737   9.527  0.9167  0.5596 -1.0257
   44CHL1    C8 5676   5.638   5.918   9.494  0.1354  0.0714  0.4188
   44CHL1    H8 5677   5.665   6.023   9.469 -0.9641  0.2472 -0.0576
   44CHL1   C14 5678   5.588   5.846   9.371 -0.1498  0.1049 -0.4174
   44CHL1   H14 5679   5.567   5.740   9.397 -1.2511 -0.3815 -2.9932
   44CHL1   C15 5680   5.692   5.839   9.256  0.5128  0.3419  0.0283
   44CHL1  H15A 5681   5.752   5.933   9.258  2.5396 -0.8772  2.5385
   44CHL1  H15B 5682   5.767   5.758   9.270  0.9148  0.3391 -1.8145
   44CHL1   C16 5683   5.603   5.819   9.133  0.1104  0.2743  0.3200
   44CHL1  H16A 5684   5.623   5.909   9.072 -0.0367  1.7545  2.3372
   44CHL1  H16B 5685   5.636   5.725   9.083  2.6801  1.3772 -0.1665
   44CHL1   C17 5686   5.456   5.809   9.182  0.4356  0.0829  0.1770
   44CHL1   H17 5687   5.436   5.710   9.229 -1.1934 -0.2377 -1.1205
   44CHL1   C13 5688   5.461   5.896   9.308  0.2313  0.0616 -0.7395
   44CHL1   C18 5689   5.478   6.049   9.265 -0.0071  0.1464 -0.1768
   44CHL1  H18A 5690   5.385   6.083   9.215 -1.6619 -0.9248  1.9901
   44CHL1  H18B 5691   5.495   6.114   9.353 -3.1445 -0.3579  0.9025
   44CHL1  H18C 5692   5.572   6.077   9.212  1.4032 -0.9180  1.6338
   44CHL1   C12 5693   5.345   5.885   9.398  0.3408  0.3791 -0.0857
   44CHL1  H12A 5694   5.259   5.936   9.349 -0.2835 -0.7127 -0.1517
   44CHL1  H12B 5695   5.325   5.779   9.426 -0.8588  0.6104 -0.0223
   44CHL1   C11 5696   5.387   5.956   9.536  0.3194  0.6164  0.5298
   44CHL1  H11A 5697   5.399   6.066   9.525 -0.4804  0.7281  0.7593
   44CHL1  H11B 5698   5.303   5.954   9.609  0.5351  0.3062  0.7768
   44CHL1    C9 5699   5.522   5.909   9.600 -0.1090  0.4578  0.3138
   44CHL1    H9 5700   5.514   5.800   9.619  0.5252  0.5848  1.3693
   44CHL1   C10 5701   5.575   5.969   9.725 -0.4198  0.4064 -1.1226
   44CHL1   C19 5702   5.562   6.124   9.718 -0.1786 -0.9381 -0.4358
   44CHL1  H19A 5703   5.461   6.164   9.694 -1.0093 -0.6137  3.1127
   44CHL1  H19B 5704   5.592   6.170   9.815 -1.1060 -2.4339  0.5886
   44CHL1  H19C 5705   5.628   6.154   9.633 -1.4611 -1.6968 -1.7281
   44CHL1    C1 5706   5.480   5.917   9.844 -0.1143 -0.7509 -0.0686
   44CHL1   H1A 5707   5.382   5.966   9.824  0.5068  0.4348 -0.3000
   44CHL1   H1B 5708   5.470   5.807   9.835 -1.5122 -0.5752 -1.2064
   44CHL1    C2 5709   5.516   5.952   9.986 -0.0304 -0.5495  0.1464
   44CHL1   H2A 5710   5.436   5.910  10.051  1.4311 -0.4241  2.1271
   44CHL1   H2B 5711   5.513   6.062  10.002 -0.5094 -0.6548  0.8084
   44CHL1   C20 5712   5.352   5.844   9.071 -0.6940 -0.7260  0.5960
   44CHL1   H20 5713   5.319   5.950   9.070  1.6325  0.0540 -0.6093
   44CHL1   C21 5714   5.224   5.764   9.108 -0.2714  0.0140  1.1765
   44CHL1  H21A 5715   5.209   5.766   9.218 -2.0351  1.1283  0.9620
   44CHL1  H21B 5716   5.220   5.660   9.070 -2.4911  0.9091 -1.4125
   44CHL1  H21C 5717   5.136   5.805   9.054 -0.9931 -0.3724  2.0261
   44CHL1   C22 5718   5.414   5.826   8.926 -0.3647  0.5934 -0.0233
   44CHL1  H22A 5719   5.505   5.887   8.910  0.9821 -1.2111  0.3321
   44CHL1  H22B 5720   5.457   5.723   8.920  0.8882  1.1776 -2.8728
   44CHL1   C23 5721   5.315   5.845   8.808 -0.7524 -0.1212 -0.2904
   44CHL1  H23A 5722   5.211   5.834   8.844 -0.2315  2.0834  2.2326
   44CHL1  H23B 5723   5.330   5.943   8.759  0.4599 -0.7248 -1.1867
   44CHL1   C24 5724   5.333   5.737   8.695  0.1168 -0.0204 -0.9264
   44CHL1  H24A 5725   5.440   5.729   8.668  0.6023 -0.9322  1.0425
   44CHL1  H24B 5726   5.290   5.647   8.744  0.1661  1.1021  1.3511
   44CHL1   C25 5727   5.250   5.776   8.570  0.3849  0.1588 -0.1252
   44CHL1   H25 5728   5.288   5.873   8.533 -0.9935 -0.0535 -2.2984
   44CHL1   C26 5729   5.260   5.677   8.455 -0.4503 -0.5252  0.6748
   44CHL1  H26A 5730   5.364   5.659   8.422 -0.8658 -2.6540  0.3788
   44CHL1  H26B 5731   5.221   5.583   8.498 -1.7692 -0.6633 -0.7330
   44CHL1  H26C 5732   5.200   5.705   8.365 -0.1251  1.8935  1.1303
   44CHL1   C27 5733   5.098   5.794   8.596 -0.7019 -0.3230 -0.0744
   44CHL1  H27A 5734   5.063   5.695   8.631  0.7359 -0.5127  0.8891
   44CHL1  H27B 5735   5.068   5.861   8.679 -0.0101 -0.9954  0.7355
   44CHL1  H27C 5736   5.044   5.830   8.506  1.5318 -0.2208 -1.4454
   45CHL1    C3 5737   2.064   4.840  10.125 -0.8264 -0.0176 -0.2541
   45CHL1    H3 5738   1.953   4.842  10.121 -0.7772  0.4086 -2.7830
   45CHL1    O3 5739   2.103   4.821  10.257 -0.4733 -0.2675  0.0350
   45CHL1   H3' 5740   2.197   4.808  10.245 -0.9436 -3.9115 -0.5811
   45CHL1    C4 5741   2.121   4.737  10.024  0.0577 -0.7700  0.1089
   45CHL1   H4A 5742   2.232   4.732  10.027  0.1084  0.3841  0.7556
   45CHL1   H4B 5743   2.091   4.632  10.044  0.9496 -1.4515 -1.8522
   45CHL1    C5 5744   2.062   4.771   9.890 -0.1498  0.5127  0.0015
   45CHL1    C6 5745   1.973   4.692   9.835  0.5735 -0.0812 -0.1901
   45CHL1    H6 5746   1.949   4.595   9.881 -1.6180  0.1292 -0.7491
   45CHL1    C7 5747   1.913   4.718   9.702 -0.1031 -0.2078  0.3829
   45CHL1   H7A 5748   1.909   4.624   9.641 -0.6342  0.5127 -0.7351
   45CHL1   H7B 5749   1.805   4.746   9.705  0.3015  1.5022 -0.0766
   45CHL1    C8 5750   1.975   4.836   9.618 -0.7652 -1.1511  0.9917
   45CHL1    H8 5751   1.897   4.882   9.553  1.8443  3.4113  0.6766
   45CHL1   C14 5752   2.080   4.781   9.520 -0.0733 -0.1380 -0.0534
   45CHL1   H14 5753   2.152   4.722   9.582  0.9736  0.5452 -0.5793
   45CHL1   C15 5754   2.015   4.685   9.417 -0.0153  0.0062  0.0215
   45CHL1  H15A 5755   2.097   4.615   9.390  0.7325  0.3796  1.2301
   45CHL1  H15B 5756   1.924   4.627   9.445 -0.2850  0.5470  0.2787
   45CHL1   C16 5757   1.993   4.770   9.288  0.7185  0.9537  0.2725
   45CHL1  H16A 5758   2.043   4.712   9.207  0.5826 -1.4344  1.7955
   45CHL1  H16B 5759   1.886   4.773   9.256  0.1035 -2.0011  1.7298
   45CHL1   C17 5760   2.056   4.906   9.316  0.2047 -0.2867  0.1271
   45CHL1   H17 5761   1.973   4.968   9.356 -1.2758 -1.0262 -1.6406
   45CHL1   C13 5762   2.147   4.900   9.445 -0.3553  0.6464  0.3826
   45CHL1   C18 5763   2.286   4.842   9.409  0.2678  0.5307 -0.5447
   45CHL1  H18A 5764   2.343   4.912   9.345  0.4238  0.7700 -0.1522
   45CHL1  H18B 5765   2.347   4.832   9.501 -1.8050 -2.4947  0.6713
   45CHL1  H18C 5766   2.284   4.748   9.350  0.8252 -1.6083  2.5727
   45CHL1   C12 5767   2.163   5.033   9.524 -0.7284  0.0380  1.0813
   45CHL1  H12A 5768   2.265   5.035   9.569 -0.7432  3.4669  1.2489
   45CHL1  H12B 5769   2.172   5.109   9.444  0.0100 -1.6766 -0.5460
   45CHL1   C11 5770   2.067   5.070   9.632  0.3338 -0.6950 -0.3941
   45CHL1  H11A 5771   2.118   5.138   9.704 -0.3774  0.4271 -0.9183
   45CHL1  H11B 5772   1.980   5.122   9.586  0.8305  1.5157  1.0067
   45CHL1    C9 5773   2.023   4.943   9.710  0.3420  0.0234 -0.1982
   45CHL1    H9 5774   1.927   4.973   9.758  0.7982 -1.4220  1.7543
   45CHL1   C10 5775   2.108   4.907   9.832 -0.2204  1.1237 -0.2519
   45CHL1   C19 5776   2.261   4.895   9.795  0.6249 -0.3332 -0.0560
   45CHL1  H19A 5777   2.275   4.828   9.708  0.5477 -2.8301  1.7534
   45CHL1  H19B 5778   2.308   4.996   9.787  0.9653 -0.5876 -1.3851
   45CHL1  H19C 5779   2.315   4.851   9.881  0.5821  0.4378  0.3782
   45CHL1    C1 5780   2.076   5.018   9.941  0.2778 -0.1289  0.1756
   45CHL1   H1A 5781   2.127   5.115   9.918 -0.2802  0.3153  0.7804
   45CHL1   H1B 5782   1.968   5.044   9.948  0.8967  3.2325 -0.7555
   45CHL1    C2 5783   2.116   4.984  10.083  0.1223 -0.0898  0.3700
   45CHL1   H2A 5784   2.088   5.061  10.159 -1.4554  0.1051 -0.3784
   45CHL1   H2B 5785   2.227   4.976  10.084  0.0747 -1.6321 -1.6742
   45CHL1   C20 5786   2.100   4.994   9.195  0.3685  0.5154 -0.1371
   45CHL1   H20 5787   2.153   5.086   9.227 -0.6009  1.8402 -2.1594
   45CHL1   C21 5788   1.974   5.027   9.118 -0.2222  0.1650  0.2793
   45CHL1  H21A 5789   1.925   4.930   9.094  2.3073 -1.0829 -0.1081
   45CHL1  H21B 5790   1.993   5.091   9.029  1.5397 -1.0162 -0.2352
   45CHL1  H21C 5791   1.915   5.089   9.189 -0.1221 -1.8272  2.2220
   45CHL1   C22 5792   2.208   4.927   9.105 -0.3377 -0.0018  0.3923
   45CHL1  H22A 5793   2.310   4.917   9.150  0.1928  1.7346 -0.3535
   45CHL1  H22B 5794   2.169   4.825   9.084  1.6927 -1.3142  2.4073
   45CHL1   C23 5795   2.240   5.009   8.977 -0.3714  0.2986 -0.2816
   45CHL1  H23A 5796   2.156   4.992   8.907 -0.2420 -2.3676  0.0959
   45CHL1  H23B 5797   2.275   5.113   8.994 -2.1861  1.2367 -1.8885
   45CHL1   C24 5798   2.366   4.933   8.918 -0.0966 -0.1622 -0.0367
   45CHL1  H24A 5799   2.458   4.957   8.975 -0.2052 -0.5793  0.3262
   45CHL1  H24B 5800   2.352   4.822   8.918  1.9879 -0.4819  0.8653
   45CHL1   C25 5801   2.410   4.962   8.772  0.5333 -0.6968  0.5106
   45CHL1   H25 5802   2.511   4.919   8.753  1.0744  0.0612  1.5000
   45CHL1   C26 5803   2.307   4.906   8.674 -0.1453  0.2699  0.0522
   45CHL1  H26A 5804   2.357   4.885   8.577  1.0280 -0.9254  0.8839
   45CHL1  H26B 5805   2.273   4.803   8.696 -1.9475  0.5283 -1.2958
   45CHL1  H26C 5806   2.204   4.947   8.668 -1.3911 -2.7806 -1.5540
   45CHL1   C27 5807   2.415   5.113   8.738 -0.0545 -0.2694 -0.2210
   45CHL1  H27A 5808   2.321   5.164   8.770 -0.0930 -0.7805  0.5062
   45CHL1  H27B 5809   2.497   5.161   8.796 -0.3344 -1.2900  1.0691
   45CHL1  H27C 5810   2.424   5.127   8.628 -1.2618  0.8516 -0.2130
   46CHL1    C3 5811   6.664   2.446   9.922 -0.5166  0.2050  0.3482
   46CHL1    H3 5812   6.773   2.468   9.917 -0.1703 -1.0518  1.5729
   46CHL1    O3 5813   6.608   2.461  10.053  0.7730  0.0854 -0.0286
   46CHL1   H3' 5814   6.513   2.457  10.041  0.9106  0.0843 -1.2002
   46CHL1    C4 5815   6.597   2.552   9.827 -0.3754 -0.1451 -0.0520
   46CHL1   H4A 5816   6.486   2.545   9.823 -0.3106 -0.9945 -2.0016
   46CHL1   H4B 5817   6.624   2.650   9.872 -0.0256 -0.8862  1.4131
   46CHL1    C5 5818   6.648   2.540   9.682  0.4403  0.2890  0.2282
   46CHL1    C6 5819   6.712   2.643   9.624 -0.0190 -0.1851 -0.6809
   46CHL1    H6 5820   6.714   2.741   9.673  1.6535 -1.0136  1.0313
   46CHL1    C7 5821   6.774   2.639   9.494 -0.5892 -0.5646 -0.4965
   46CHL1   H7A 5822   6.767   2.734   9.437 -0.6850  0.5610  1.3026
   46CHL1   H7B 5823   6.883   2.617   9.497 -0.5784 -0.5592 -0.8120
   46CHL1    C8 5824   6.729   2.512   9.421 -0.2140 -0.1038  0.9663
   46CHL1    H8 5825   6.625   2.526   9.384 -1.2095 -0.7589  3.3490
   46CHL1   C14 5826   6.826   2.493   9.291 -0.0379  0.7656 -0.3800
   46CHL1   H14 5827   6.922   2.463   9.339 -0.5841  0.2536  0.4223
   46CHL1   C15 5828   6.862   2.612   9.207  0.0426 -0.5349 -0.1354
   46CHL1  H15A 5829   6.777   2.684   9.201 -0.3519 -1.0820 -1.4357
   46CHL1  H15B 5830   6.949   2.664   9.252  0.1102 -0.7138 -0.0588
   46CHL1   C16 5831   6.903   2.557   9.075  0.1044 -0.4470  0.3891
   46CHL1  H16A 5832   6.837   2.598   8.996 -0.9277  1.7417  2.2628
   46CHL1  H16B 5833   7.009   2.578   9.048 -0.0025 -0.1582  0.1970
   46CHL1   C17 5834   6.887   2.400   9.087 -0.0921 -0.1572  0.3155
   46CHL1   H17 5835   6.985   2.357   9.117  0.3654  0.1080 -0.7587
   46CHL1   C13 5836   6.788   2.381   9.199  0.1677  0.2059 -0.3420
   46CHL1   C18 5837   6.644   2.410   9.145  0.1295  1.0324 -0.0941
   46CHL1  H18A 5838   6.611   2.343   9.063 -0.9519 -0.8745  1.7683
   46CHL1  H18B 5839   6.582   2.376   9.231 -2.2670 -4.4138 -3.4160
   46CHL1  H18C 5840   6.624   2.517   9.125 -2.3066  0.5178 -0.7619
   46CHL1   C12 5841   6.797   2.253   9.283 -0.3085  0.0173 -0.6669
   46CHL1  H12A 5842   6.758   2.172   9.217 -0.4696 -1.4330  1.1380
   46CHL1  H12B 5843   6.900   2.232   9.318 -0.3646  0.8394  0.0331
   46CHL1   C11 5844   6.714   2.261   9.418 -0.3995 -0.1506 -0.4007
   46CHL1  H11A 5845   6.607   2.263   9.387 -0.8052 -2.4284  0.6360
   46CHL1  H11B 5846   6.738   2.164   9.467  1.2324  0.2412 -0.3693
   46CHL1    C9 5847   6.730   2.389   9.509 -1.1205 -0.1127  0.2646
   46CHL1    H9 5848   6.830   2.376   9.555 -0.3521  0.0392 -1.2851
   46CHL1   C10 5849   6.639   2.397   9.627  0.3512  0.3192 -0.0126
   46CHL1   C19 5850   6.489   2.380   9.580 -0.2395 -0.5961  0.0225
   46CHL1  H19A 5851   6.466   2.273   9.562  1.9870 -0.9739 -0.9498
   46CHL1  H19B 5852   6.426   2.418   9.663  0.2472  0.1806  0.0562
   46CHL1  H19C 5853   6.466   2.432   9.485  1.2985 -0.5920 -0.3800
   46CHL1    C1 5854   6.673   2.277   9.732 -0.0067  0.4228  0.1386
   46CHL1   H1A 5855   6.628   2.183   9.693  1.2235 -0.3909  0.6105
   46CHL1   H1B 5856   6.783   2.264   9.728 -0.0471  0.3423 -1.4090
   46CHL1    C2 5857   6.634   2.304   9.876  0.1004 -0.5048  0.4335
   46CHL1   H2A 5858   6.662   2.224   9.947 -2.0598 -2.1659 -0.5032
   46CHL1   H2B 5859   6.525   2.294   9.861  0.3433 -1.7153 -0.6805
   46CHL1   C20 5860   6.862   2.334   8.949 -0.6178 -0.0448  0.1311
   46CHL1   H20 5861   6.759   2.357   8.916 -0.3680  2.4277  0.8549
   46CHL1   C21 5862   6.863   2.180   8.958 -0.1427  0.2466 -0.2556
   46CHL1  H21A 5863   6.954   2.148   9.012  0.6505  2.1009 -0.4159
   46CHL1  H21B 5864   6.881   2.132   8.859 -0.2229 -0.8236  0.2449
   46CHL1  H21C 5865   6.765   2.148   8.999 -1.0158  0.4828 -2.0403
   46CHL1   C22 5866   6.948   2.392   8.829 -0.1731  0.0034  0.3271
   46CHL1  H22A 5867   6.927   2.501   8.815 -4.1049 -0.7822 -0.8611
   46CHL1  H22B 5868   7.057   2.385   8.853  0.0157  1.9165  0.2557
   46CHL1   C23 5869   6.941   2.323   8.699 -0.3114  0.2799  0.9189
   46CHL1  H23A 5870   6.998   2.228   8.697 -0.2353  0.3181  1.2970
   46CHL1  H23B 5871   6.830   2.313   8.689 -0.4062  0.2262  1.9482
   46CHL1   C24 5872   7.003   2.418   8.592 -0.3634  0.1846  0.2239
   46CHL1  H24A 5873   6.923   2.491   8.568  0.0092 -0.0217 -1.7866
   46CHL1  H24B 5874   7.096   2.467   8.627 -0.4524  0.6612 -0.2101
   46CHL1   C25 5875   7.046   2.354   8.457  0.1018  0.4230  0.5007
   46CHL1   H25 5876   7.139   2.298   8.477  0.5142  0.3574 -1.4513
   46CHL1   C26 5877   6.931   2.261   8.399 -0.0931  0.1490 -0.0011
   46CHL1  H26A 5878   6.830   2.306   8.398  0.0055  0.4033 -1.6894
   46CHL1  H26B 5879   6.963   2.236   8.295 -2.1360  1.5223 -1.0317
   46CHL1  H26C 5880   6.932   2.166   8.457 -0.3998  1.2816  1.9249
   46CHL1   C27 5881   7.079   2.452   8.350 -0.2748  0.1887  0.0038
   46CHL1  H27A 5882   6.992   2.513   8.319 -1.2205 -0.8630  0.5219
   46CHL1  H27B 5883   7.160   2.518   8.388  0.0064 -0.5097  0.6406
   46CHL1  H27C 5884   7.126   2.402   8.262 -0.5222  1.8876 -1.1451
   47CHL1    C3 5885   3.601   5.231   9.979  0.0663 -0.1053  0.4019
   47CHL1    H3 5886   3.504   5.282   9.994  0.8498  0.7745  3.1343
   47CHL1    O3 5887   3.678   5.238  10.103 -0.4744  0.5435 -0.5068
   47CHL1   H3' 5888   3.729   5.318  10.089 -1.2163  1.2414  0.5454
   47CHL1    C4 5889   3.579   5.089   9.935 -0.5015 -0.2286 -0.1929
   47CHL1   H4A 5890   3.674   5.034   9.950 -0.7325 -1.4320 -2.6017
   47CHL1   H4B 5891   3.519   5.050  10.020 -0.1408  1.3679  0.8141
   47CHL1    C5 5892   3.526   5.051   9.798  0.1493 -0.9419 -0.2119
   47CHL1    C6 5893   3.437   4.953   9.781 -0.1924 -0.7304 -0.4978
   47CHL1    H6 5894   3.402   4.892   9.866 -2.0433 -0.6816 -1.1823
   47CHL1    C7 5895   3.401   4.904   9.643 -0.5304  0.3274  0.2610
   47CHL1   H7A 5896   3.436   4.799   9.627 -1.3996  0.2328 -1.2788
   47CHL1   H7B 5897   3.290   4.906   9.638 -0.5673 -1.8301 -1.3836
   47CHL1    C8 5898   3.466   4.980   9.523 -0.4783 -0.2109 -0.2547
   47CHL1    H8 5899   3.559   4.924   9.503 -0.2770  1.0696 -3.7473
   47CHL1   C14 5900   3.384   4.968   9.403  0.5489  0.4093  0.1506
   47CHL1   H14 5901   3.286   5.016   9.428  1.5243  1.5823  1.8830
   47CHL1   C15 5902   3.348   4.822   9.357 -0.2384 -0.8158 -0.0952
   47CHL1  H15A 5903   3.434   4.754   9.373  1.2921  1.0965  0.1824
   47CHL1  H15B 5904   3.266   4.777   9.416 -0.4041 -0.4064 -0.0103
   47CHL1   C16 5905   3.325   4.834   9.209  0.0049 -0.1401  0.6008
   47CHL1  H16A 5906   3.403   4.773   9.160  0.8235  0.8130  0.6718
   47CHL1  H16B 5907   3.222   4.801   9.182  0.0418  0.4298 -0.2679
   47CHL1   C17 5908   3.342   4.989   9.174  1.1329 -0.2886  0.1185
   47CHL1   H17 5909   3.242   5.031   9.195  1.8183  0.5458  1.9750
   47CHL1   C13 5910   3.440   5.039   9.275 -0.9444 -0.3374 -0.7542
   47CHL1   C18 5911   3.580   4.975   9.245  0.2065 -0.1550 -0.4281
   47CHL1  H18A 5912   3.632   5.030   9.164 -1.1372  1.1595 -0.4539
   47CHL1  H18B 5913   3.645   4.968   9.335 -0.0592  3.9452  0.2688
   47CHL1  H18C 5914   3.572   4.872   9.205  0.0479 -1.7490  3.2475
   47CHL1   C12 5915   3.460   5.191   9.315 -0.3424  1.1384  0.3073
   47CHL1  H12A 5916   3.521   5.232   9.232  1.4118 -3.6374 -1.1305
   47CHL1  H12B 5917   3.359   5.236   9.320 -1.3489 -0.8016 -1.2285
   47CHL1   C11 5918   3.542   5.215   9.442  0.2090 -0.0724 -0.3191
   47CHL1  H11A 5919   3.647   5.205   9.409  0.3422  1.9583 -0.6428
   47CHL1  H11B 5920   3.536   5.325   9.459 -2.1506 -0.2103  0.0995
   47CHL1    C9 5921   3.496   5.128   9.559 -0.7818 -0.2033 -0.3856
   47CHL1    H9 5922   3.398   5.171   9.590  0.5055  2.9049 -0.1942
   47CHL1   C10 5923   3.579   5.140   9.691  0.1550 -0.2246 -0.5518
   47CHL1   C19 5924   3.723   5.085   9.658  0.8579  0.1308 -0.3651
   47CHL1  H19A 5925   3.786   5.087   9.750  0.5265 -1.1391 -0.0921
   47CHL1  H19B 5926   3.706   4.981   9.624  0.8891 -0.7540  2.1590
   47CHL1  H19C 5927   3.773   5.147   9.580  0.3929  1.0484  0.0425
   47CHL1    C1 5928   3.597   5.292   9.736 -0.2393 -0.2914 -0.1600
   47CHL1   H1A 5929   3.657   5.345   9.659 -0.9685 -0.3169 -0.7596
   47CHL1   H1B 5930   3.493   5.329   9.750 -0.1548 -1.1293  4.3640
   47CHL1    C2 5931   3.674   5.314   9.868  0.6052 -0.2848  0.3649
   47CHL1   H2A 5932   3.664   5.421   9.893  0.1613  0.0785 -1.2251
   47CHL1   H2B 5933   3.779   5.277   9.870  1.2737  1.4244 -0.9013
   47CHL1   C20 5934   3.359   5.016   9.018  0.1215  0.2877 -0.3579
   47CHL1   H20 5935   3.459   4.969   9.002 -0.1563 -0.9658  1.3554
   47CHL1   C21 5936   3.356   5.164   8.992  0.1485  0.0488  0.3569
   47CHL1  H21A 5937   3.420   5.210   9.070  0.1498 -1.4636  1.2777
   47CHL1  H21B 5938   3.257   5.215   8.996 -0.5429 -0.9891 -1.8042
   47CHL1  H21C 5939   3.400   5.182   8.892  0.1113  0.6156  0.4351
   47CHL1   C22 5940   3.260   4.931   8.931 -0.2767 -0.0613 -0.6131
   47CHL1  H22A 5941   3.253   4.823   8.958  0.9143 -0.3466 -1.3470
   47CHL1  H22B 5942   3.163   4.980   8.951  0.4020  0.8461  0.6023
   47CHL1   C23 5943   3.287   4.950   8.778  0.2599  0.7537 -0.0060
   47CHL1  H23A 5944   3.272   5.055   8.743 -1.2884  0.5725  0.0235
   47CHL1  H23B 5945   3.392   4.919   8.760 -0.7380 -3.4022  0.3500
   47CHL1   C24 5946   3.195   4.867   8.687 -0.4823 -0.4927 -0.4826
   47CHL1  H24A 5947   3.202   4.758   8.706  0.8167 -0.2514  0.4924
   47CHL1  H24B 5948   3.092   4.908   8.697  0.0005  0.5387  0.5902
   47CHL1   C25 5949   3.233   4.876   8.541  0.1569  0.0443  0.1927
   47CHL1   H25 5950   3.260   4.983   8.532  1.5941 -0.3360 -0.3039
   47CHL1   C26 5951   3.358   4.794   8.506 -0.3754 -0.2505 -0.1944
   47CHL1  H26A 5952   3.460   4.829   8.532  0.1976 -1.1133 -1.2356
   47CHL1  H26B 5953   3.368   4.771   8.398 -0.4286 -0.0934 -0.2335
   47CHL1  H26C 5954   3.349   4.691   8.545  2.4408 -0.9250 -1.1565
   47CHL1   C27 5955   3.124   4.831   8.450  0.5782  0.0797 -0.5614
   47CHL1  H27A 5956   3.034   4.896   8.455  0.6347  0.0547  1.2206
   47CHL1  H27B 5957   3.161   4.831   8.345 -0.3391  0.9760 -0.9023
   47CHL1  H27C 5958   3.097   4.726   8.471  4.4836 -0.8825  0.4449
   48CHL1    C3 5959   0.320   0.624  10.143  0.0440  0.0892  0.6970
   48CHL1    H3 5960   0.222   0.671  10.120 -1.8716 -2.8780  2.2179
   48CHL1    O3 5961   0.303   0.564  10.271  0.3775 -0.2202 -0.4179
   48CHL1   H3' 5962   0.389   0.532  10.302 -0.2647 -2.3838 -0.6991
   48CHL1    C4 5963   0.361   0.510  10.036  0.3848  0.8751 -0.5180
   48CHL1   H4A 5964   0.436   0.440  10.077  0.8223 -1.4465 -4.7292
   48CHL1   H4B 5965   0.270   0.446  10.028 -0.9224  2.7975 -1.9140
   48CHL1    C5 5966   0.405   0.566   9.906 -0.2570 -0.1647 -0.4627
   48CHL1    C6 5967   0.339   0.520   9.796  0.3317  0.3480 -0.3298
   48CHL1    H6 5968   0.261   0.444   9.813  1.3501 -0.6658  0.0084
   48CHL1    C7 5969   0.387   0.558   9.659  0.4176 -0.0301  0.1380
   48CHL1   H7A 5970   0.414   0.463   9.609 -0.6428 -0.5430  0.4983
   48CHL1   H7B 5971   0.303   0.610   9.608 -1.3891 -1.7642  1.1794
   48CHL1    C8 5972   0.524   0.641   9.657  0.5797  1.1691  0.8084
   48CHL1    H8 5973   0.611   0.573   9.668  0.7285  1.1969 -0.1711
   48CHL1   C14 5974   0.539   0.708   9.522 -0.0022  0.2862  0.3677
   48CHL1   H14 5975   0.454   0.779   9.512  0.7377  1.0766 -0.5665
   48CHL1   C15 5976   0.516   0.614   9.404 -0.2989 -0.3751 -0.0658
   48CHL1  H15A 5977   0.565   0.518   9.429  0.8040  0.5703  1.6159
   48CHL1  H15B 5978   0.411   0.588   9.382 -0.1694 -1.2326  0.3152
   48CHL1   C16 5979   0.578   0.690   9.289 -0.6672 -0.3272  0.3554
   48CHL1  H16A 5980   0.636   0.610   9.238 -3.1666 -1.0945 -1.4579
   48CHL1  H16B 5981   0.504   0.736   9.220 -0.2399 -0.1837 -0.0130
   48CHL1   C17 5982   0.660   0.811   9.351  0.2171  0.0359  0.3890
   48CHL1   H17 5983   0.589   0.896   9.349 -1.1625 -0.9739 -3.9154
   48CHL1   C13 5984   0.679   0.783   9.498  0.5157  0.8709  0.4533
   48CHL1   C18 5985   0.797   0.683   9.509  0.1603  0.3500 -0.3135
   48CHL1  H18A 5986   0.833   0.644   9.606 -1.4362 -0.9957 -0.2143
   48CHL1  H18B 5987   0.775   0.593   9.447  0.1992 -0.4126  0.7634
   48CHL1  H18C 5988   0.888   0.738   9.475  0.6249 -0.5905 -0.6176
   48CHL1   C12 5989   0.686   0.886   9.607 -0.2858  0.5755 -0.2761
   48CHL1  H12A 5990   0.783   0.941   9.606  0.4987 -0.7800 -0.9418
   48CHL1  H12B 5991   0.598   0.950   9.582 -0.7063 -0.9207 -3.0275
   48CHL1   C11 5992   0.669   0.823   9.751  0.2342 -0.5738 -0.7521
   48CHL1  H11A 5993   0.760   0.762   9.768  1.5145  1.2163 -0.9164
   48CHL1  H11B 5994   0.668   0.910   9.821  0.7249 -1.2182  0.0691
   48CHL1    C9 5995   0.531   0.742   9.765 -0.2366 -0.3727 -0.4211
   48CHL1    H9 5996   0.447   0.811   9.745 -0.2285 -0.5396 -1.0854
   48CHL1   C10 5997   0.513   0.674   9.901  0.1226 -0.1588  0.2791
   48CHL1   C19 5998   0.640   0.605   9.950  0.1958 -0.4100 -0.1770
   48CHL1  H19A 5999   0.674   0.522   9.884  0.0591 -0.9180  0.3797
   48CHL1  H19B 6000   0.719   0.679   9.975  0.4549 -0.8480  0.3157
   48CHL1  H19C 6001   0.629   0.571  10.055  2.3646  0.3629  0.3672
   48CHL1    C1 6002   0.472   0.788  10.005  0.2111  0.7940  0.2287
   48CHL1   H1A 6003   0.557   0.859  10.019  1.3648 -0.6920  1.0617
   48CHL1   H1B 6004   0.394   0.853   9.961  0.3569  1.1107  0.4289
   48CHL1    C2 6005   0.421   0.745  10.148 -0.3467 -1.0181  0.2431
   48CHL1   H2A 6006   0.371   0.828  10.203 -0.2276 -0.2007 -0.8559
   48CHL1   H2B 6007   0.511   0.722  10.208 -0.7830  1.3509  1.9875
   48CHL1   C20 6008   0.787   0.853   9.271  0.0101 -0.3841  0.4002
   48CHL1   H20 6009   0.862   0.772   9.285  0.4884  0.1174  0.7724
   48CHL1   C21 6010   0.838   0.995   9.321 -0.1631  0.2139  0.1680
   48CHL1  H21A 6011   0.891   1.004   9.418  1.5635 -0.0633 -0.7138
   48CHL1  H21B 6012   0.751   1.064   9.331 -0.5145  0.1071 -1.8197
   48CHL1  H21C 6013   0.900   1.054   9.250 -1.1042  0.8309 -0.1639
   48CHL1   C22 6014   0.782   0.854   9.116 -0.1083  0.0914  0.3230
   48CHL1  H22A 6015   0.870   0.912   9.081 -1.5425 -0.0864 -4.2814
   48CHL1  H22B 6016   0.786   0.748   9.083  0.4944 -0.2580  1.4561
   48CHL1   C23 6017   0.651   0.921   9.055  0.6998  0.4754  0.7971
   48CHL1  H23A 6018   0.557   0.866   9.078 -0.1551 -0.1064 -3.3992
   48CHL1  H23B 6019   0.624   1.023   9.091  0.6883  1.0585 -0.7907
   48CHL1   C24 6020   0.654   0.926   8.904  0.0738 -0.4230 -0.3237
   48CHL1  H24A 6021   0.743   0.989   8.883 -0.3109  0.4257  0.5241
   48CHL1  H24B 6022   0.672   0.821   8.872 -0.1371 -0.8921  1.0476
   48CHL1   C25 6023   0.535   0.993   8.835 -0.8112 -0.0870  0.6499
   48CHL1   H25 6024   0.441   0.944   8.869 -2.1832  1.2089 -1.1390
   48CHL1   C26 6025   0.528   1.140   8.871 -0.7825 -0.2554 -0.8782
   48CHL1  H26A 6026   0.507   1.153   8.979 -0.7544 -0.6620 -0.8214
   48CHL1  H26B 6027   0.619   1.197   8.843 -0.9127 -0.0084 -0.8026
   48CHL1  H26C 6028   0.454   1.199   8.811  0.3186  1.0389 -1.0133
   48CHL1   C27 6029   0.557   0.978   8.678 -0.1877  0.0165 -0.6528
   48CHL1  H27A 6030   0.485   1.033   8.615  0.2719  0.8942 -0.4340
   48CHL1  H27B 6031   0.660   1.017   8.661 -1.1712  3.4800  0.5119
   48CHL1  H27C 6032   0.551   0.871   8.648  0.7170 -0.4581  0.7453
   49CHL1    C3 6033   5.486   1.306   9.933  0.4336 -0.1428  0.0378
   49CHL1    H3 6034   5.512   1.220   9.868  0.6633  2.4987 -3.6326
   49CHL1    O3 6035   5.479   1.263  10.072  0.1894  0.3169 -0.3027
   49CHL1   H3' 6036   5.472   1.338  10.132 -1.5891 -0.2352  0.2519
   49CHL1    C4 6037   5.600   1.409   9.920  0.2706 -0.3093 -0.1087
   49CHL1   H4A 6038   5.573   1.496   9.984  1.8675 -1.1687  1.8501
   49CHL1   H4B 6039   5.695   1.367   9.959  0.6423 -0.0486 -0.7082
   49CHL1    C5 6040   5.614   1.452   9.776 -0.1886 -0.2285  0.1997
   49CHL1    C6 6041   5.731   1.427   9.707  0.6707  0.1384 -1.2576
   49CHL1    H6 6042   5.825   1.404   9.758  0.2936  1.8787  0.3291
   49CHL1    C7 6043   5.748   1.464   9.561  0.1235  0.2010 -0.1554
   49CHL1   H7A 6044   5.840   1.521   9.536  1.0746 -1.5113 -0.7182
   49CHL1   H7B 6045   5.747   1.373   9.498 -0.1756 -0.6309  1.0171
   49CHL1    C8 6046   5.631   1.547   9.505  0.1252 -0.1315 -0.1007
   49CHL1    H8 6047   5.650   1.655   9.527  1.3114 -0.2800 -0.3484
   49CHL1   C14 6048   5.630   1.533   9.352 -0.0951  0.4144  0.1859
   49CHL1   H14 6049   5.592   1.430   9.332  0.4404  0.1415  0.5547
   49CHL1   C15 6050   5.761   1.535   9.270  0.0442  0.2699  0.4080
   49CHL1  H15A 6051   5.837   1.597   9.322 -0.8979  2.9690 -1.2516
   49CHL1  H15B 6052   5.797   1.431   9.252 -0.7801  0.1754 -0.7742
   49CHL1   C16 6053   5.715   1.594   9.132  0.6446  0.3387 -0.5266
   49CHL1  H16A 6054   5.764   1.692   9.115  2.6777 -0.5046  0.1396
   49CHL1  H16B 6055   5.748   1.515   9.060  1.0392 -0.6883  0.7334
   49CHL1   C17 6056   5.566   1.604   9.139  0.2449  1.0650 -0.0964
   49CHL1   H17 6057   5.531   1.503   9.110  1.9754  0.7454 -1.2205
   49CHL1   C13 6058   5.534   1.628   9.284  0.0512 -0.0859 -0.6219
   49CHL1   C18 6059   5.561   1.781   9.314  0.1822 -0.4182  0.1024
   49CHL1  H18A 6060   5.535   1.821   9.415  3.7403 -0.2147  1.0598
   49CHL1  H18B 6061   5.667   1.810   9.296 -0.2661  1.9805  0.9161
   49CHL1  H18C 6062   5.499   1.847   9.249 -0.6426 -0.8153  0.4755
   49CHL1   C12 6063   5.389   1.589   9.323  0.1573 -0.2379 -0.8899
   49CHL1  H12A 6064   5.311   1.657   9.282  0.0273  0.0190 -0.2331
   49CHL1  H12B 6065   5.369   1.481   9.306 -0.3356  0.1222 -2.9677
   49CHL1   C11 6066   5.384   1.594   9.474  0.6691 -0.1704 -0.7306
   49CHL1  H11A 6067   5.383   1.698   9.513 -0.6030  0.0716 -1.3542
   49CHL1  H11B 6068   5.292   1.547   9.514 -0.1495  0.5200 -1.7716
   49CHL1    C9 6069   5.495   1.514   9.552 -0.7159  0.1970 -0.0772
   49CHL1    H9 6070   5.489   1.410   9.513  0.2146  0.6880 -1.5888
   49CHL1   C10 6071   5.488   1.512   9.710 -0.6218  0.1991 -0.0886
   49CHL1   C19 6072   5.457   1.655   9.747  0.5836  0.5363  0.0015
   49CHL1  H19A 6073   5.348   1.675   9.742  0.4450  0.8718  2.7467
   49CHL1  H19B 6074   5.479   1.670   9.855 -1.7761 -2.9132  1.1440
   49CHL1  H19C 6075   5.500   1.728   9.676  0.7136  0.0966 -0.3724
   49CHL1    C1 6076   5.371   1.412   9.741 -0.6372  0.3276 -0.5751
   49CHL1   H1A 6077   5.272   1.452   9.711 -2.4106 -2.1423  1.5212
   49CHL1   H1B 6078   5.397   1.321   9.683  3.5419 -0.0196  1.4878
   49CHL1    C2 6079   5.352   1.365   9.883  0.2190  0.4122 -0.3623
   49CHL1   H2A 6080   5.273   1.286   9.886  1.6246 -1.0298  0.3299
   49CHL1   H2B 6081   5.314   1.446   9.949 -0.6339 -1.3232  1.3946
   49CHL1   C20 6082   5.488   1.697   9.043  0.7443 -0.0809 -0.0383
   49CHL1   H20 6083   5.420   1.765   9.099  1.3244 -0.1574  0.7619
   49CHL1   C21 6084   5.394   1.604   8.956  0.0901  0.2217 -0.0278
   49CHL1  H21A 6085   5.331   1.546   9.027  0.7379 -1.0988 -0.5090
   49CHL1  H21B 6086   5.453   1.534   8.892  0.7887  0.3196  0.4936
   49CHL1  H21C 6087   5.324   1.660   8.891 -0.2736 -1.4849 -1.1644
   49CHL1   C22 6088   5.575   1.790   8.943 -0.0104  0.6486 -0.5085
   49CHL1  H22A 6089   5.648   1.837   9.012 -0.8007  0.5629  0.4190
   49CHL1  H22B 6090   5.627   1.720   8.874 -0.1443  1.8608 -1.8747
   49CHL1   C23 6091   5.495   1.889   8.864  0.4705  0.4384 -0.7226
   49CHL1  H23A 6092   5.430   1.832   8.794 -0.0111 -0.4337  0.3999
   49CHL1  H23B 6093   5.417   1.933   8.929 -1.5716  0.6433 -3.1797
   49CHL1   C24 6094   5.580   1.968   8.779 -0.2657 -0.7942 -0.1722
   49CHL1  H24A 6095   5.637   2.029   8.852 -1.2340 -0.7342  0.5460
   49CHL1  H24B 6096   5.657   1.917   8.718 -2.6728 -1.4202 -2.9489
   49CHL1   C25 6097   5.522   2.073   8.681  0.3127 -1.0691 -0.0251
   49CHL1   H25 6098   5.602   2.119   8.620 -1.5116  0.0477 -1.7258
   49CHL1   C26 6099   5.420   2.020   8.586  0.3617 -0.0896 -0.6170
   49CHL1  H26A 6100   5.462   1.939   8.522 -1.0154 -1.4276  0.1147
   49CHL1  H26B 6101   5.335   1.981   8.645  1.9618  0.1371  1.9854
   49CHL1  H26C 6102   5.381   2.107   8.529  2.4904  2.8584  2.0809
   49CHL1   C27 6103   5.465   2.193   8.760 -0.0998 -0.4400  0.0773
   49CHL1  H27A 6104   5.544   2.231   8.829 -0.3325  0.8478 -0.3372
   49CHL1  H27B 6105   5.438   2.279   8.694  0.5183  1.1684  1.8081
   49CHL1  H27C 6106   5.373   2.166   8.816  0.0995 -0.9406  0.1689
   50CHL1    C3 6107   0.596   3.952   9.984  0.3070  0.4458  0.6872
   50CHL1    H3 6108   0.687   3.889   9.992 -0.5985 -0.8127  1.6544
   50CHL1    O3 6109   0.524   3.961  10.109 -0.2536 -0.3923  0.1771
   50CHL1   H3' 6110   0.581   4.005  10.173 -1.5545 -0.7663  1.6386
   50CHL1    C4 6111   0.624   4.092   9.920 -0.0979 -0.8573 -0.6904
   50CHL1   H4A 6112   0.532   4.151   9.900 -0.0176 -0.3599  0.3603
   50CHL1   H4B 6113   0.683   4.150   9.994  0.2124 -1.0575 -0.7785
   50CHL1    C5 6114   0.691   4.071   9.788 -0.3722  0.7727 -0.3368
   50CHL1    C6 6115   0.812   4.124   9.765  0.7209  0.0977 -0.0392
   50CHL1    H6 6116   0.848   4.190   9.845  0.8419  0.7163 -0.5962
   50CHL1    C7 6117   0.893   4.114   9.643 -0.2933 -0.6593  0.7521
   50CHL1   H7A 6118   0.934   4.213   9.616 -1.5140  0.3965  2.6140
   50CHL1   H7B 6119   0.978   4.044   9.654 -0.4409 -1.1923 -1.1038
   50CHL1    C8 6120   0.803   4.063   9.525 -0.3178 -0.0782 -0.7225
   50CHL1    H8 6121   0.743   4.148   9.486 -0.9766  0.2204  0.8565
   50CHL1   C14 6122   0.895   4.010   9.414  0.2435  0.3214  0.0468
   50CHL1   H14 6123   0.946   3.919   9.452  0.0937 -1.2466 -3.1974
   50CHL1   C15 6124   1.011   4.102   9.368 -0.1633  0.3773  0.3842
   50CHL1  H15A 6125   0.973   4.205   9.355 -1.7001 -0.3754 -1.8738
   50CHL1  H15B 6126   1.086   4.101   9.450 -1.1314 -0.0078  1.2837
   50CHL1   C16 6127   1.043   4.031   9.239  0.2004 -0.0193  0.3374
   50CHL1  H16A 6128   1.034   4.104   9.156  0.6865 -1.1660 -0.7453
   50CHL1  H16B 6129   1.137   3.974   9.229  0.2750  0.1893 -0.1655
   50CHL1   C17 6130   0.931   3.921   9.207 -0.2750 -0.0794  0.4967
   50CHL1   H17 6131   0.970   3.825   9.246  1.9656 -0.0382 -1.4304
   50CHL1   C13 6132   0.815   3.963   9.296 -0.1517  0.6752 -0.5396
   50CHL1   C18 6133   0.733   4.079   9.236  0.0909  0.3723  0.0959
   50CHL1  H18A 6134   0.695   4.045   9.138  2.0010 -0.8448 -0.2784
   50CHL1  H18B 6135   0.646   4.115   9.295  0.1919 -1.4133  1.4087
   50CHL1  H18C 6136   0.793   4.171   9.221 -0.4819  0.4944 -1.6078
   50CHL1   C12 6137   0.719   3.849   9.342 -0.2698 -0.8219 -0.6091
   50CHL1  H12A 6138   0.660   3.793   9.267 -0.3329 -2.6423  0.7338
   50CHL1  H12B 6139   0.777   3.771   9.396  0.4829 -0.4607 -0.8765
   50CHL1   C11 6140   0.621   3.899   9.454  0.4413 -0.2651 -0.6541
   50CHL1  H11A 6141   0.555   3.979   9.412 -0.2571 -0.5999 -0.2113
   50CHL1  H11B 6142   0.544   3.822   9.477 -0.5788  0.9445  0.1195
   50CHL1    C9 6143   0.705   3.952   9.577 -0.7332 -0.3874  0.5730
   50CHL1    H9 6144   0.766   3.868   9.615  0.3953  0.2031  0.1334
   50CHL1   C10 6145   0.612   3.982   9.693  0.1616  0.5621  0.1607
   50CHL1   C19 6146   0.494   4.061   9.638  0.3109  0.1759  0.5750
   50CHL1  H19A 6147   0.444   4.117   9.719  0.4634  0.6977  0.3140
   50CHL1  H19B 6148   0.519   4.128   9.553  0.7384 -1.1088 -0.3602
   50CHL1  H19C 6149   0.420   3.992   9.592  2.0982 -0.3238 -1.7516
   50CHL1    C1 6150   0.560   3.847   9.757 -0.9365 -0.9730  0.2782
   50CHL1   H1A 6151   0.482   3.809   9.688 -0.9858  1.5680 -1.1952
   50CHL1   H1B 6152   0.639   3.770   9.767 -0.0841 -0.4470 -1.8593
   50CHL1    C2 6153   0.494   3.880   9.897  0.0524  0.1421  0.5903
   50CHL1   H2A 6154   0.471   3.783   9.946  2.5956 -0.7979  0.1205
   50CHL1   H2B 6155   0.397   3.933   9.885 -0.9095 -1.6249  0.2630
   50CHL1   C20 6156   0.907   3.909   9.053  0.4249 -0.2475 -0.2236
   50CHL1   H20 6157   0.871   4.005   9.010  2.8466  0.8277  0.0070
   50CHL1   C21 6158   0.803   3.798   9.025 -0.0140 -0.1277  0.3219
   50CHL1  H21A 6159   0.830   3.703   9.077 -0.9999 -1.2174 -1.0849
   50CHL1  H21B 6160   0.807   3.762   8.920 -0.4822 -0.6929  0.4866
   50CHL1  H21C 6161   0.695   3.820   9.042 -0.2476 -2.0087  1.7337
   50CHL1   C22 6162   1.037   3.874   8.970 -0.2339 -0.8438 -0.1378
   50CHL1  H22A 6163   1.125   3.928   9.011  0.0476 -0.4796 -1.2132
   50CHL1  H22B 6164   1.065   3.767   8.984  3.4262 -0.3379 -2.3059
   50CHL1   C23 6165   1.031   3.893   8.817  0.3561 -0.0837 -0.4480
   50CHL1  H23A 6166   0.938   3.844   8.780  0.9282  0.2593 -2.4688
   50CHL1  H23B 6167   1.016   4.000   8.789  1.0343  0.4304  1.0571
   50CHL1   C24 6168   1.144   3.841   8.731 -0.2369  0.4218  0.1034
   50CHL1  H24A 6169   1.250   3.873   8.739  0.3442 -0.1685 -3.5820
   50CHL1  H24B 6170   1.146   3.734   8.758 -1.9968  0.4116  0.3125
   50CHL1   C25 6171   1.120   3.861   8.581  0.3188 -0.2441  0.5706
   50CHL1   H25 6172   1.014   3.843   8.555  0.6701 -0.4207 -0.7839
   50CHL1   C26 6173   1.172   4.006   8.535 -0.2735  0.1517 -0.1333
   50CHL1  H26A 6174   1.139   4.028   8.431 -1.2253 -0.0807  0.1067
   50CHL1  H26B 6175   1.125   4.088   8.594 -1.9061  0.1261 -1.3396
   50CHL1  H26C 6176   1.283   4.001   8.530 -0.2622  0.2317  0.0393
   50CHL1   C27 6177   1.206   3.775   8.485  0.9910  0.0180  0.1845
   50CHL1  H27A 6178   1.186   3.801   8.379 -0.9988 -2.3445 -0.1035
   50CHL1  H27B 6179   1.314   3.774   8.508  1.0128 -1.1723  0.1131
   50CHL1  H27C 6180   1.167   3.673   8.504 -1.0291  0.9863  1.6881
   51CHL1    C3 6181   1.556   5.256  10.047 -0.8313  0.2508  0.0032
   51CHL1    H3 6182   1.484   5.338  10.063  1.2127  2.2393 -0.5301
   51CHL1    O3 6183   1.595   5.203  10.176  0.5856  0.1383 -0.0511
   51CHL1   H3' 6184   1.514   5.173  10.218  0.6563  0.0868  0.0487
   51CHL1    C4 6185   1.487   5.143   9.971 -0.6421 -0.4518 -0.5402
   51CHL1   H4A 6186   1.548   5.051   9.966 -1.2686 -0.8147 -3.5731
   51CHL1   H4B 6187   1.392   5.119  10.024 -0.9529  2.5813  0.5069
   51CHL1    C5 6188   1.469   5.183   9.822  0.2737 -0.6995 -0.5921
   51CHL1    C6 6189   1.353   5.160   9.755  0.6533  0.4170 -0.1218
   51CHL1    H6 6190   1.275   5.118   9.821  0.9160  0.5957  0.3060
   51CHL1    C7 6191   1.333   5.180   9.612  0.0229  0.1024 -0.9371
   51CHL1   H7A 6192   1.277   5.096   9.564 -1.0287  0.4934 -0.4330
   51CHL1   H7B 6193   1.282   5.278   9.605 -0.0303  0.2381  0.9622
   51CHL1    C8 6194   1.464   5.200   9.530  0.0836  0.4387  0.1002
   51CHL1    H8 6195   1.497   5.095   9.513 -2.6581 -0.2842 -1.3582
   51CHL1   C14 6196   1.441   5.251   9.387  0.5652  0.0154 -0.1443
   51CHL1   H14 6197   1.409   5.356   9.403  0.9347 -0.0143  0.8568
   51CHL1   C15 6198   1.328   5.183   9.301 -0.4732  0.3139 -0.0481
   51CHL1  H15A 6199   1.331   5.076   9.327 -1.5875  0.3147  0.1457
   51CHL1  H15B 6200   1.225   5.220   9.321 -0.6674  0.4985 -1.2809
   51CHL1   C16 6201   1.355   5.223   9.161  0.2117  0.2182  0.8024
   51CHL1  H16A 6202   1.371   5.132   9.100 -1.3269  0.3446  0.1728
   51CHL1  H16B 6203   1.272   5.286   9.123 -0.0125  0.3269  1.4560
   51CHL1   C17 6204   1.497   5.296   9.165  0.1496 -0.6774  0.4930
   51CHL1   H17 6205   1.472   5.404   9.174 -1.2896 -0.8364 -1.1227
   51CHL1   C13 6206   1.567   5.254   9.294  0.2060 -0.1895  0.4240
   51CHL1   C18 6207   1.631   5.114   9.285  0.7250 -0.3955 -0.5930
   51CHL1  H18A 6208   1.695   5.104   9.195  1.6982  2.3080 -0.2806
   51CHL1  H18B 6209   1.687   5.078   9.375  0.1790  0.6025  0.1709
   51CHL1  H18C 6210   1.545   5.046   9.267  0.1218 -0.0061  0.6757
   51CHL1   C12 6211   1.674   5.342   9.361 -0.5979 -0.0731 -0.1593
   51CHL1  H12A 6212   1.775   5.328   9.316 -0.5302  1.7271 -0.6349
   51CHL1  H12B 6213   1.653   5.450   9.345 -1.4732 -0.4171 -1.4239
   51CHL1   C11 6214   1.692   5.318   9.510 -0.1294 -0.0115 -0.9720
   51CHL1  H11A 6215   1.761   5.232   9.520 -0.5173 -0.2555 -0.3534
   51CHL1  H11B 6216   1.745   5.407   9.551 -0.1042 -1.2842  1.9498
   51CHL1    C9 6217   1.568   5.286   9.598 -0.1590 -0.6049 -0.3616
   51CHL1    H9 6218   1.519   5.386   9.601 -1.7438 -1.1960 -3.0369
   51CHL1   C10 6219   1.600   5.235   9.739 -0.3059 -0.1987 -0.2414
   51CHL1   C19 6220   1.693   5.108   9.733 -0.1640  0.1113  0.2129
   51CHL1  H19A 6221   1.638   5.037   9.668 -1.7695 -0.5416  2.1673
   51CHL1  H19B 6222   1.800   5.122   9.706 -0.5639  1.0659 -0.9961
   51CHL1  H19C 6223   1.694   5.054   9.830 -2.2418  0.2832  0.3592
   51CHL1    C1 6224   1.659   5.350   9.828 -0.3702 -0.4913  0.5262
   51CHL1   H1A 6225   1.745   5.393   9.772 -0.5771  0.1424  0.6892
   51CHL1   H1B 6226   1.582   5.429   9.822 -0.2163 -0.4308 -1.4700
   51CHL1    C2 6227   1.688   5.307   9.979  0.1715 -0.4416  0.0344
   51CHL1   H2A 6228   1.719   5.395  10.038 -4.7936  2.2828 -0.8151
   51CHL1   H2B 6229   1.748   5.214   9.968  1.7111  0.6816 -1.5100
   51CHL1   C20 6230   1.584   5.289   9.036  0.1996 -0.2022 -0.0838
   51CHL1   H20 6231   1.614   5.186   9.009  1.9251 -0.3098  2.0445
   51CHL1   C21 6232   1.715   5.373   9.050  0.2409  0.0746  0.3211
   51CHL1  H21A 6233   1.695   5.464   9.109  1.1496 -0.0340  0.8055
   51CHL1  H21B 6234   1.761   5.408   8.955  3.2536 -0.1229  1.6166
   51CHL1  H21C 6235   1.795   5.319   9.106  1.5426 -0.3380 -1.8055
   51CHL1   C22 6236   1.491   5.328   8.916 -0.7171  0.3366 -0.2639
   51CHL1  H22A 6237   1.546   5.316   8.820 -0.2416 -0.9283  0.1356
   51CHL1  H22B 6238   1.408   5.254   8.915  1.1373 -1.8696 -0.2631
   51CHL1   C23 6239   1.438   5.468   8.910 -0.0472  0.0150  0.7145
   51CHL1  H23A 6240   1.381   5.499   9.001 -1.6664 -1.5523  0.2869
   51CHL1  H23B 6241   1.513   5.550   8.902 -1.4299  1.1451 -1.5484
   51CHL1   C24 6242   1.368   5.490   8.774  0.0334  1.1271  0.2800
   51CHL1  H24A 6243   1.442   5.457   8.699  0.6517 -1.0116  1.7452
   51CHL1  H24B 6244   1.280   5.421   8.770  0.3134  0.7492  0.5435
   51CHL1   C25 6245   1.326   5.632   8.743 -0.1351  0.2580 -0.2183
   51CHL1   H25 6246   1.414   5.699   8.750  1.1008 -1.3291  0.1769
   51CHL1   C26 6247   1.278   5.639   8.591  0.7484 -0.5247  0.2678
   51CHL1  H26A 6248   1.191   5.571   8.578 -0.1683  0.6102  0.3327
   51CHL1  H26B 6249   1.249   5.742   8.564  1.1802 -0.1588  1.1268
   51CHL1  H26C 6250   1.357   5.609   8.519 -0.9048 -0.9621 -1.4187
   51CHL1   C27 6251   1.208   5.687   8.827  0.2459  0.5556 -0.3399
   51CHL1  H27A 6252   1.235   5.690   8.935  0.9879 -0.1221 -0.5046
   51CHL1  H27B 6253   1.167   5.782   8.785 -1.1953 -0.3206 -0.9874
   51CHL1  H27C 6254   1.122   5.616   8.822  1.0804 -0.5096  0.0117
   52CHL1    C3 6255   6.168   6.376   9.792  0.2211  0.5130 -0.1642
   52CHL1    H3 6256   6.268   6.333   9.770  0.3534 -0.3477  1.9162
   52CHL1    O3 6257   6.164   6.408   9.929 -0.0445 -0.0838 -0.1432
   52CHL1   H3' 6258   6.158   6.324   9.976 -1.8001  0.6055  0.9755
   52CHL1    C4 6259   6.146   6.501   9.707  0.1465  0.0388 -0.1591
   52CHL1   H4A 6260   6.059   6.554   9.752  1.5237 -0.0069  2.7718
   52CHL1   H4B 6261   6.234   6.567   9.724  0.4337 -0.5294  0.6244
   52CHL1    C5 6262   6.117   6.468   9.559  0.1443 -0.6620 -0.6457
   52CHL1    C6 6263   6.201   6.522   9.471 -0.3403 -0.4932  0.5025
   52CHL1    H6 6264   6.286   6.580   9.509  1.6392 -2.2235 -1.0895
   52CHL1    C7 6265   6.194   6.503   9.321  0.5154 -0.0943 -1.1001
   52CHL1   H7A 6266   6.197   6.601   9.269 -0.7719 -0.4959 -1.9944
   52CHL1   H7B 6267   6.275   6.438   9.280 -0.6349 -2.0282 -0.4572
   52CHL1    C8 6268   6.052   6.448   9.285  0.0447 -0.2833 -0.0884
   52CHL1    H8 6269   5.978   6.529   9.302  0.8305  0.2053  1.1179
   52CHL1   C14 6270   6.064   6.397   9.138  0.7384  0.0360  0.2353
   52CHL1   H14 6271   6.136   6.314   9.152  0.3826 -0.0493  1.7374
   52CHL1   C15 6272   6.109   6.485   9.020  0.1756 -0.1061 -0.0271
   52CHL1  H15A 6273   6.053   6.580   9.005 -1.7341 -1.1456  0.1847
   52CHL1  H15B 6274   6.217   6.511   9.031  0.0216  0.2811  0.6618
   52CHL1   C16 6275   6.076   6.403   8.895 -0.6345 -0.7802  0.3658
   52CHL1  H16A 6276   6.028   6.457   8.811 -0.2269  1.4743  1.5026
   52CHL1  H16B 6277   6.157   6.343   8.848 -0.1637  1.7474 -2.3324
   52CHL1   C17 6278   5.979   6.287   8.940  0.7639  0.2652  0.2010
   52CHL1   H17 6279   6.040   6.195   8.950  1.7692  0.7574 -1.2675
   52CHL1   C13 6280   5.932   6.334   9.083 -0.3646  0.5221  0.2131
   52CHL1   C18 6281   5.823   6.445   9.065 -0.3801 -0.0784  0.8262
   52CHL1  H18A 6282   5.805   6.478   9.169  2.0984  0.6731  1.0807
   52CHL1  H18B 6283   5.857   6.531   9.004 -2.7308  0.3268 -0.0127
   52CHL1  H18C 6284   5.724   6.407   9.029  1.2814 -2.3019 -1.8652
   52CHL1   C12 6285   5.888   6.219   9.178 -0.3709 -0.4317 -1.2158
   52CHL1  H12A 6286   5.781   6.196   9.159 -1.2738  0.3667  2.1816
   52CHL1  H12B 6287   5.947   6.128   9.151 -0.3047 -0.4359 -1.0577
   52CHL1   C11 6288   5.893   6.252   9.328 -0.1689  0.1094  0.3840
   52CHL1  H11A 6289   5.801   6.310   9.348 -1.4136 -1.6207 -0.0607
   52CHL1  H11B 6290   5.883   6.155   9.381 -0.2879 -0.1831 -0.1670
   52CHL1    C9 6291   6.015   6.331   9.379  0.6938  0.4548  0.0868
   52CHL1    H9 6292   6.099   6.259   9.375  1.4416  1.3451 -0.5428
   52CHL1   C10 6293   6.009   6.365   9.533  0.5498 -0.0075 -0.2416
   52CHL1   C19 6294   5.870   6.410   9.572  0.7395 -0.6595 -0.2754
   52CHL1  H19A 6295   5.841   6.499   9.513 -0.0149  0.1144  1.2007
   52CHL1  H19B 6296   5.791   6.333   9.558  0.1726 -0.0468 -0.5170
   52CHL1  H19C 6297   5.866   6.443   9.678  0.2875 -1.4428 -0.0420
   52CHL1    C1 6298   6.041   6.234   9.609  0.3726  0.7323 -0.2536
   52CHL1   H1A 6299   5.963   6.156   9.598 -2.1743  3.3202 -1.8546
   52CHL1   H1B 6300   6.137   6.193   9.572 -0.3405  0.3143 -1.6949
   52CHL1    C2 6301   6.060   6.259   9.761  0.0535  0.1837 -0.2578
   52CHL1   H2A 6302   6.088   6.162   9.809 -0.0631 -1.6003 -3.5075
   52CHL1   H2B 6303   5.967   6.292   9.813  1.4845 -0.7635  3.1865
   52CHL1   C20 6304   5.880   6.248   8.835 -0.4170  0.7115  0.3521
   52CHL1   H20 6305   5.807   6.330   8.816 -0.5306  0.3841 -0.6948
   52CHL1   C21 6306   5.803   6.129   8.888  0.1590  0.6046 -0.0029
   52CHL1  H21A 6307   5.726   6.099   8.813  0.7592  3.0040 -1.6991
   52CHL1  H21B 6308   5.737   6.161   8.972  1.3697  2.8162  0.1914
   52CHL1  H21C 6309   5.868   6.051   8.931 -0.0127  1.0945  1.1729
   52CHL1   C22 6310   5.962   6.219   8.707  0.0058  0.0409 -0.4317
   52CHL1  H22A 6311   6.016   6.307   8.666  0.6456  0.3009  0.9203
   52CHL1  H22B 6312   6.031   6.132   8.717 -1.8413 -1.4096  0.2973
   52CHL1   C23 6313   5.863   6.176   8.590  0.2209  0.5737 -0.1621
   52CHL1  H23A 6314   5.824   6.075   8.615 -0.2745  0.9557  0.6485
   52CHL1  H23B 6315   5.777   6.247   8.584 -0.3100 -0.1356 -1.7517
   52CHL1   C24 6316   5.947   6.187   8.461 -0.7343  0.0828 -0.4706
   52CHL1  H24A 6317   5.976   6.292   8.441 -0.1648  0.4286  1.8420
   52CHL1  H24B 6318   6.043   6.134   8.480  0.3911  1.3517 -2.3127
   52CHL1   C25 6319   5.883   6.122   8.336 -0.0532  0.2477  0.0593
   52CHL1   H25 6320   5.876   6.015   8.365  0.8784 -0.2163 -1.3357
   52CHL1   C26 6321   5.738   6.171   8.312 -0.0338  0.1189  0.5824
   52CHL1  H26A 6322   5.722   6.275   8.278 -1.7453 -0.8976 -2.0293
   52CHL1  H26B 6323   5.706   6.107   8.226  1.5477  1.8696 -1.3932
   52CHL1  H26C 6324   5.680   6.142   8.402  0.7507 -0.1679  1.0050
   52CHL1   C27 6325   5.974   6.132   8.213 -0.4523  0.3548  0.0628
   52CHL1  H27A 6326   6.076   6.145   8.258 -0.2462 -0.7876 -0.0609
   52CHL1  H27B 6327   5.960   6.050   8.140 -3.7668  0.9366 -0.0684
   52CHL1  H27C 6328   5.947   6.220   8.151 -0.7038 -0.5603 -1.1505
   53CHL1    C3 6329   6.441   4.614   9.963  0.0612 -0.0753  0.1221
   53CHL1    H3 6330   6.528   4.683   9.970  0.6242 -0.9243  2.0741
   53CHL1    O3 6331   6.405   4.582  10.095 -0.1076 -0.8072  0.1040
   53CHL1   H3' 6332   6.323   4.536  10.074  1.0649 -2.3047 -1.5431
   53CHL1    C4 6333   6.323   4.678   9.889  0.1298 -0.9727  0.0007
   53CHL1   H4A 6334   6.230   4.619   9.902 -0.2800 -0.3365  0.0084
   53CHL1   H4B 6335   6.313   4.775   9.942  1.4304 -1.3709  1.0338
   53CHL1    C5 6336   6.342   4.699   9.745  0.1556  0.5117  0.4397
   53CHL1    C6 6337   6.304   4.814   9.676  0.0672  0.1669 -0.1507
   53CHL1    H6 6338   6.258   4.892   9.739 -0.8324  0.3139 -0.9725
   53CHL1    C7 6339   6.303   4.834   9.528 -0.5227 -1.0048  0.3365
   53CHL1   H7A 6340   6.206   4.874   9.490 -0.5959 -0.9078  0.6259
   53CHL1   H7B 6341   6.377   4.914   9.508 -0.9426 -0.9540 -1.1113
   53CHL1    C8 6342   6.346   4.709   9.444  0.0393 -0.1374 -0.0166
   53CHL1    H8 6343   6.253   4.655   9.416 -0.5475  0.5113  0.6250
   53CHL1   C14 6344   6.407   4.761   9.317 -0.2259  0.0556  0.0598
   53CHL1   H14 6345   6.499   4.810   9.353 -0.3874  0.3303  0.1018
   53CHL1   C15 6346   6.331   4.870   9.229  0.0440  0.1266 -0.6128
   53CHL1  H15A 6347   6.226   4.836   9.215  0.0579  0.6841 -2.2385
   53CHL1  H15B 6348   6.329   4.973   9.270 -0.6573 -1.7752  4.9285
   53CHL1   C16 6349   6.401   4.860   9.094 -0.1336  0.0232  0.3323
   53CHL1  H16A 6350   6.332   4.846   9.009 -0.2370 -1.7898  0.6685
   53CHL1  H16B 6351   6.452   4.955   9.068  0.3595 -0.6965 -1.4564
   53CHL1   C17 6352   6.502   4.740   9.101 -0.1665 -0.7866  0.1586
   53CHL1   H17 6353   6.595   4.781   9.145 -1.8661  1.3757  1.9370
   53CHL1   C13 6354   6.450   4.658   9.220  0.6854  0.2221 -0.3362
   53CHL1   C18 6355   6.337   4.572   9.167 -0.5323  0.4348  0.7217
   53CHL1  H18A 6356   6.385   4.485   9.118  0.2991  1.6811 -0.7749
   53CHL1  H18B 6357   6.277   4.523   9.247  2.2484 -1.1459  1.9747
   53CHL1  H18C 6358   6.282   4.632   9.091  1.3694 -0.4341 -1.4631
   53CHL1   C12 6359   6.550   4.563   9.299 -0.0109 -0.4053 -0.5448
   53CHL1  H12A 6360   6.556   4.467   9.243  0.8679 -1.1343  0.7430
   53CHL1  H12B 6361   6.655   4.596   9.305 -0.0670 -0.4983  1.8247
   53CHL1   C11 6362   6.500   4.509   9.432 -0.0681  0.3118 -0.1621
   53CHL1  H11A 6363   6.427   4.427   9.414  2.7008 -2.4489  0.4056
   53CHL1  H11B 6364   6.591   4.461   9.474 -0.7995 -0.2217  0.8628
   53CHL1    C9 6365   6.445   4.616   9.523 -0.3339  0.2072  0.0345
   53CHL1    H9 6366   6.527   4.688   9.544  1.0480 -1.4831  0.6434
   53CHL1   C10 6367   6.405   4.577   9.660  0.1071 -0.0213 -0.1579
   53CHL1   C19 6368   6.289   4.473   9.647 -0.3667 -0.0556 -0.6725
   53CHL1  H19A 6369   6.329   4.374   9.617  0.5237  0.2750 -0.6068
   53CHL1  H19B 6370   6.234   4.466   9.743 -0.8387  0.8309 -0.8636
   53CHL1  H19C 6371   6.208   4.504   9.576 -1.4020 -0.3198  0.3557
   53CHL1    C1 6372   6.522   4.513   9.741 -0.1198  0.5668  0.4289
   53CHL1   H1A 6373   6.547   4.415   9.693  2.5683  1.8178 -0.9222
   53CHL1   H1B 6374   6.615   4.566   9.710  1.6155 -1.7393  1.3968
   53CHL1    C2 6375   6.489   4.492   9.884 -0.1077  0.0562  0.1024
   53CHL1   H2A 6376   6.573   4.444   9.939 -1.1326 -3.0024 -0.7605
   53CHL1   H2B 6377   6.405   4.419   9.884 -2.3091  2.3969 -1.6084
   53CHL1   C20 6378   6.523   4.671   8.966  0.2982 -0.6141  0.8944
   53CHL1   H20 6379   6.434   4.608   8.943  0.3702 -1.2021  2.1388
   53CHL1   C21 6380   6.645   4.572   8.974 -0.2135  0.0538 -0.5361
   53CHL1  H21A 6381   6.642   4.514   8.879 -0.6749  3.9229 -3.1454
   53CHL1  H21B 6382   6.630   4.507   9.063 -1.7180  1.3473  0.2096
   53CHL1  H21C 6383   6.740   4.629   8.971  1.0593 -1.9390  0.2703
   53CHL1   C22 6384   6.530   4.777   8.859 -0.1766  0.5515  0.3549
   53CHL1  H22A 6385   6.429   4.817   8.836  0.3028  1.7314  0.2448
   53CHL1  H22B 6386   6.585   4.869   8.890 -2.9626  2.0011  1.3033
   53CHL1   C23 6387   6.576   4.729   8.721 -0.5109 -0.3069 -0.4324
   53CHL1  H23A 6388   6.682   4.697   8.718  0.0421  1.4854 -1.4547
   53CHL1  H23B 6389   6.515   4.639   8.695  0.8306 -1.3584 -0.0119
   53CHL1   C24 6390   6.571   4.833   8.607 -0.1998 -0.1713 -0.4038
   53CHL1  H24A 6391   6.471   4.881   8.605  1.1738  2.9686  0.6908
   53CHL1  H24B 6392   6.641   4.915   8.634  0.5991 -1.0119  0.1652
   53CHL1   C25 6393   6.609   4.783   8.462  0.1482  0.6298 -0.1658
   53CHL1   H25 6394   6.715   4.750   8.467  0.9668  2.7622 -1.5877
   53CHL1   C26 6395   6.508   4.671   8.415 -0.3025 -0.0137 -0.7579
   53CHL1  H26A 6396   6.524   4.653   8.307 -0.0808  1.3416 -0.9693
   53CHL1  H26B 6397   6.523   4.580   8.476 -2.4127 -0.6526 -1.1395
   53CHL1  H26C 6398   6.405   4.707   8.432 -0.3560 -0.8616  0.8785
   53CHL1   C27 6399   6.610   4.902   8.356 -0.0958 -0.5560 -0.4404
   53CHL1  H27A 6400   6.675   4.981   8.399 -0.0597 -1.7139  1.7620
   53CHL1  H27B 6401   6.650   4.872   8.257 -0.5525 -1.5317 -0.3355
   53CHL1  H27C 6402   6.513   4.954   8.341  0.4268  0.7133  0.3876
   54CHL1    C3 6403   0.486   0.078   9.955 -0.2501 -0.3297  0.2833
   54CHL1    H3 6404   0.591   0.049   9.934  0.4125  2.5256 -0.8731
   54CHL1    O3 6405   0.450   0.125  10.085 -0.0732  0.2828 -0.0516
   54CHL1   H3' 6406   0.365   0.167  10.071 -1.4788 -1.6570  1.9495
   54CHL1    C4 6407   0.473   0.197   9.847 -0.0690 -0.2057 -0.6495
   54CHL1   H4A 6408   0.372   0.242   9.859  0.2742  0.3815  0.2161
   54CHL1   H4B 6409   0.531   0.286   9.881 -0.5993 -0.4228  0.9153
   54CHL1    C5 6410   0.495   0.165   9.701 -0.5285 -0.9417  0.2763
   54CHL1    C6 6411   0.582   0.233   9.620 -0.0562  1.0247  0.8645
   54CHL1    H6 6412   0.642   0.320   9.648  2.7842  0.4527 -2.7063
   54CHL1    C7 6413   0.594   0.199   9.475 -0.6429 -0.6675 -0.0791
   54CHL1   H7A 6414   0.613   0.284   9.406  1.2936 -1.3180 -0.4298
   54CHL1   H7B 6415   0.678   0.126   9.462  1.0825  1.1057  0.5794
   54CHL1    C8 6416   0.469   0.133   9.419  0.0200  0.5474  0.1291
   54CHL1    H8 6417   0.385   0.202   9.399 -0.9841  0.0282  2.3053
   54CHL1   C14 6418   0.503   0.079   9.280 -0.3224  0.3486 -1.1648
   54CHL1   H14 6419   0.575  -0.004   9.297 -0.1397  0.8205  0.4594
   54CHL1   C15 6420   0.578   0.162   9.172 -0.4281  0.3961  0.8950
   54CHL1  H15A 6421   0.544   0.268   9.172 -1.6010  0.0471  2.0358
   54CHL1  H15B 6422   0.684   0.186   9.195 -0.3863  0.9591  0.1568
   54CHL1   C16 6423   0.543   0.094   9.041 -0.4687 -0.4727  1.2364
   54CHL1  H16A 6424   0.493   0.164   8.971 -0.2022 -1.3689  0.1176
   54CHL1  H16B 6425   0.639   0.056   8.999 -0.4005  0.3989  0.5792
   54CHL1   C17 6426   0.456  -0.025   9.082  0.0042  0.1314 -0.0828
   54CHL1   H17 6427   0.525  -0.109   9.103  0.6681  0.2474 -1.6547
   54CHL1   C13 6428   0.387   0.009   9.212 -0.1521 -0.2889 -0.6096
   54CHL1   C18 6429   0.270   0.098   9.188 -0.1406  0.0899  0.1644
   54CHL1  H18A 6430   0.301   0.188   9.131 -0.2458  0.5500  0.8231
   54CHL1  H18B 6431   0.187   0.046   9.135  1.7037 -0.3915 -2.4519
   54CHL1  H18C 6432   0.232   0.136   9.285 -0.1452 -1.2182  0.6958
   54CHL1   C12 6433   0.348  -0.113   9.295 -0.1417  0.4826  0.6324
   54CHL1  H12A 6434   0.257  -0.166   9.260  0.7549 -0.1216 -0.8819
   54CHL1  H12B 6435   0.438  -0.178   9.294  0.0667  0.7727 -0.4213
   54CHL1   C11 6436   0.317  -0.068   9.439 -0.4667 -0.3812 -0.3421
   54CHL1  H11A 6437   0.215  -0.023   9.442 -1.1213 -1.8212 -0.3637
   54CHL1  H11B 6438   0.319  -0.165   9.492 -0.9671 -1.6738 -2.5465
   54CHL1    C9 6439   0.422   0.023   9.508 -0.5394 -0.4776 -0.6151
   54CHL1    H9 6440   0.514  -0.038   9.522  1.1743  1.9240 -0.9118
   54CHL1   C10 6441   0.393   0.064   9.657  1.3307 -0.5056 -0.6080
   54CHL1   C19 6442   0.243   0.112   9.664 -0.6235 -1.1626 -0.0980
   54CHL1  H19A 6443   0.223   0.193   9.591 -0.4060 -0.8369  0.1994
   54CHL1  H19B 6444   0.182   0.022   9.642  0.4653 -1.4936 -1.9940
   54CHL1  H19C 6445   0.208   0.143   9.765  0.0364  0.1404 -0.2342
   54CHL1    C1 6446   0.417  -0.055   9.748  0.3306 -0.1979  0.6302
   54CHL1   H1A 6447   0.333  -0.126   9.730 -2.6431  1.7826  4.8931
   54CHL1   H1B 6448   0.509  -0.115   9.730  0.4569 -0.2210  1.3268
   54CHL1    C2 6449   0.397  -0.035   9.901 -0.4222 -0.3318 -0.6082
   54CHL1   H2A 6450   0.424  -0.126   9.959  0.6463 -0.0782 -0.6798
   54CHL1   H2B 6451   0.291  -0.012   9.922 -0.2972 -1.0935  0.9982
   54CHL1   C20 6452   0.365  -0.080   8.963 -0.1669 -0.5337 -0.1570
   54CHL1   H20 6453   0.271  -0.104   9.018 -1.2492  1.1003 -1.2076
   54CHL1   C21 6454   0.407  -0.218   8.917  0.3693  0.2956  0.8207
   54CHL1  H21A 6455   0.499  -0.214   8.855 -2.3153 -2.4201 -3.9838
   54CHL1  H21B 6456   0.321  -0.262   8.862  1.5244 -0.9469 -0.0531
   54CHL1  H21C 6457   0.427  -0.284   9.004  0.8565 -0.1203  0.3927
   54CHL1   C22 6458   0.336   0.021   8.846  0.0449  0.5858  0.5772
   54CHL1  H22A 6459   0.313   0.119   8.893 -1.6290 -0.3125  1.7174
   54CHL1  H22B 6460   0.434   0.031   8.794  0.8855 -0.0881  1.9529
   54CHL1   C23 6461   0.224  -0.013   8.745  0.5535  0.8659  0.2055
   54CHL1  H23A 6462   0.245  -0.116   8.709  0.5726  1.2187 -0.8367
   54CHL1  H23B 6463   0.127  -0.014   8.798  0.6816 -0.5911  0.4692
   54CHL1   C24 6464   0.239   0.074   8.623  0.3336  0.2067 -0.0707
   54CHL1  H24A 6465   0.216   0.174   8.666 -0.4240  0.6321 -1.4247
   54CHL1  H24B 6466   0.345   0.084   8.593  0.6838  0.5593  1.1983
   54CHL1   C25 6467   0.153   0.037   8.505 -0.6604  0.0919  0.5158
   54CHL1   H25 6468   0.179  -0.059   8.456 -1.0462  0.8316 -1.2126
   54CHL1   C26 6469   0.005   0.015   8.544  0.6136 -0.5655 -0.0269
   54CHL1  H26A 6470  -0.029   0.106   8.597  0.8211 -1.4032  1.5903
   54CHL1  H26B 6471  -0.059   0.015   8.452 -0.3839 -0.1802  0.6494
   54CHL1  H26C 6472  -0.022  -0.073   8.606 -0.7598 -1.5117 -1.8539
   54CHL1   C27 6473   0.156   0.144   8.392 -0.1530 -0.3478  0.3868
   54CHL1  H27A 6474   0.260   0.170   8.361  0.8501 -2.2070  2.0062
   54CHL1  H27B 6475   0.093   0.115   8.305 -0.5985  0.9635  0.2435
   54CHL1  H27C 6476   0.105   0.235   8.431 -3.1274 -1.3907 -0.7453
   55CHL1    C3 6477   1.033   3.888   9.986 -0.4016 -0.3320  0.6933
   55CHL1    H3 6478   0.959   3.951   9.931  0.0542 -0.9852 -0.7180
   55CHL1    O3 6479   1.014   3.917  10.123 -0.1616 -0.1173 -0.6320
   55CHL1   H3' 6480   1.102   3.925  10.159 -0.1990 -0.0629 -0.5514
   55CHL1    C4 6481   1.007   3.741   9.965  0.0226  0.0436 -0.0485
   55CHL1   H4A 6482   1.067   3.674  10.030 -1.4471  0.7598  2.1878
   55CHL1   H4B 6483   0.906   3.710  10.002  1.1628  0.2620  3.6461
   55CHL1    C5 6484   1.038   3.705   9.820 -0.1949 -0.4556 -0.5612
   55CHL1    C6 6485   0.944   3.651   9.741 -0.0080  0.7756 -0.1248
   55CHL1    H6 6486   0.842   3.630   9.775  0.6026 -0.2268  1.1529
   55CHL1    C7 6487   0.962   3.598   9.598 -0.2548 -0.1257 -0.2670
   55CHL1   H7A 6488   0.921   3.494   9.595 -3.4751  1.0623 -1.1919
   55CHL1   H7B 6489   0.902   3.651   9.521 -0.5676  1.6353  1.1514
   55CHL1    C8 6490   1.108   3.607   9.552 -0.2597 -0.2462  0.1032
   55CHL1    H8 6491   1.154   3.518   9.601 -0.4001 -0.0675  0.5707
   55CHL1   C14 6492   1.126   3.598   9.404  0.3227  0.3485  0.0295
   55CHL1   H14 6493   1.071   3.690   9.374 -1.7730 -1.6315 -2.7591
   55CHL1   C15 6494   1.053   3.493   9.319 -0.4409  0.5667  0.5356
   55CHL1  H15A 6495   1.058   3.389   9.356  0.2487  0.7889  1.0789
   55CHL1  H15B 6496   0.944   3.514   9.314 -0.7628 -0.7094  1.6405
   55CHL1   C16 6497   1.118   3.507   9.178  0.7414  0.3852 -0.6373
   55CHL1  H16A 6498   1.148   3.405   9.145 -1.3993 -0.2270 -0.8157
   55CHL1  H16B 6499   1.039   3.537   9.106  0.5955  2.0086  0.1722
   55CHL1   C17 6500   1.239   3.605   9.197  0.8755  0.4906 -0.3556
   55CHL1   H17 6501   1.196   3.705   9.177  3.2326  1.8602  1.0461
   55CHL1   C13 6502   1.264   3.609   9.352 -0.1877  0.2700  0.2225
   55CHL1   C18 6503   1.350   3.488   9.397 -0.1105  0.3063  0.4649
   55CHL1  H18A 6504   1.460   3.501   9.389  0.3148 -2.2872  1.2901
   55CHL1  H18B 6505   1.319   3.465   9.501 -2.4240  0.4713 -0.1314
   55CHL1  H18C 6506   1.314   3.400   9.339  0.9809  1.2734 -1.7942
   55CHL1   C12 6507   1.331   3.741   9.405  0.2920 -0.0324 -0.4426
   55CHL1  H12A 6508   1.438   3.755   9.379 -0.1104 -0.6401 -2.6329
   55CHL1  H12B 6509   1.278   3.834   9.379  1.2388  0.8101  0.5410
   55CHL1   C11 6510   1.324   3.744   9.560  0.0428 -0.5858  0.1227
   55CHL1  H11A 6511   1.387   3.662   9.600  0.4806 -0.1090  0.4315
   55CHL1  H11B 6512   1.374   3.841   9.583 -1.7307  0.1266  1.1750
   55CHL1    C9 6513   1.180   3.732   9.610 -0.0618  0.4589 -0.0903
   55CHL1    H9 6514   1.131   3.821   9.566 -0.5514  0.5633  0.6503
   55CHL1   C10 6515   1.174   3.742   9.766  0.1993  0.2841  0.1509
   55CHL1   C19 6516   1.271   3.641   9.838  0.6888  0.3754 -0.2711
   55CHL1  H19A 6517   1.276   3.644   9.949 -1.8161 -2.9649  0.0944
   55CHL1  H19B 6518   1.243   3.534   9.828 -2.7931  0.8679  2.1387
   55CHL1  H19C 6519   1.376   3.648   9.804  0.9917 -0.2662  0.4888
   55CHL1    C1 6520   1.207   3.889   9.809 -0.6140 -0.8426  0.2862
   55CHL1   H1A 6521   1.313   3.917   9.792 -0.4783 -0.5489  1.5125
   55CHL1   H1B 6522   1.155   3.964   9.745 -1.9969 -0.3138  1.9302
   55CHL1    C2 6523   1.169   3.928   9.952  0.0952 -0.2358  0.9419
   55CHL1   H2A 6524   1.184   4.037   9.967 -1.1067  0.1141 -0.1866
   55CHL1   H2B 6525   1.243   3.875  10.016 -0.1832 -1.4598  0.2744
   55CHL1   C20 6526   1.361   3.588   9.105 -0.3720  0.1913 -0.4093
   55CHL1   H20 6527   1.440   3.534   9.162  0.4945 -1.3094 -2.8607
   55CHL1   C21 6528   1.422   3.734   9.085  0.3025  0.1505  0.1302
   55CHL1  H21A 6529   1.527   3.729   9.047  0.9052  0.8919  1.6205
   55CHL1  H21B 6530   1.415   3.800   9.174 -0.1670  1.0064 -0.5294
   55CHL1  H21C 6531   1.359   3.789   9.012  0.9875  3.1748  1.6896
   55CHL1   C22 6532   1.337   3.522   8.967  0.4762 -0.3945  0.4405
   55CHL1  H22A 6533   1.306   3.417   8.986  1.6341 -0.6461  1.0087
   55CHL1  H22B 6534   1.244   3.570   8.929  0.3119  0.2219  1.5897
   55CHL1   C23 6535   1.453   3.531   8.861 -0.1977 -0.4496  0.4345
   55CHL1  H23A 6536   1.524   3.615   8.870  1.8980 -2.0529 -0.4102
   55CHL1  H23B 6537   1.515   3.439   8.858  0.7084  0.1637  0.0728
   55CHL1   C24 6538   1.394   3.531   8.717  0.3638 -0.0923 -0.0009
   55CHL1  H24A 6539   1.297   3.477   8.715  0.0361  0.4587 -2.4559
   55CHL1  H24B 6540   1.366   3.635   8.687 -1.3625 -0.3060  0.7740
   55CHL1   C25 6541   1.468   3.473   8.596  0.9067 -0.2182 -0.1974
   55CHL1   H25 6542   1.490   3.371   8.635  2.4864  0.2799  0.2898
   55CHL1   C26 6543   1.380   3.468   8.475  0.5343  0.0634 -0.4831
   55CHL1  H26A 6544   1.424   3.395   8.405  0.9493 -0.0713 -0.0800
   55CHL1  H26B 6545   1.273   3.442   8.493  0.4049  0.1498 -1.0936
   55CHL1  H26C 6546   1.376   3.566   8.422 -0.6451 -1.0327 -2.5301
   55CHL1   C27 6547   1.600   3.544   8.574  0.4357 -0.4140 -0.4574
   55CHL1  H27A 6548   1.577   3.649   8.547 -0.4059 -0.1801  1.0145
   55CHL1  H27B 6549   1.657   3.556   8.669  1.7557 -0.5257 -1.2154
   55CHL1  H27C 6550   1.663   3.492   8.499  1.9634  1.9318 -0.8828
   56CHL1    C3 6551   0.133   3.245  10.070  0.1602  0.4681 -0.0209
   56CHL1    H3 6552   0.121   3.135  10.052 -2.1358  0.6455  0.0996
   56CHL1    O3 6553   0.088   3.264  10.204  0.3281 -0.3194  0.3768
   56CHL1   H3' 6554   0.056   3.354  10.215 -2.2604 -0.9049 -1.5588
   56CHL1    C4 6555   0.285   3.292  10.071 -0.6378  0.1726  0.6338
   56CHL1   H4A 6556   0.270   3.392  10.119  1.5362  0.7839  0.1610
   56CHL1   H4B 6557   0.322   3.224  10.151 -1.8293  0.4037  1.4178
   56CHL1    C5 6558   0.357   3.290   9.939 -0.3205 -0.4423 -0.7539
   56CHL1    C6 6559   0.464   3.218   9.918  0.1457 -0.2118 -0.7297
   56CHL1    H6 6560   0.507   3.169  10.006 -0.5104  1.7778  0.7771
   56CHL1    C7 6561   0.534   3.199   9.791 -0.2304 -0.0846  0.4366
   56CHL1   H7A 6562   0.643   3.192   9.812 -0.2059 -1.5889 -0.0670
   56CHL1   H7B 6563   0.503   3.103   9.746 -0.0130  0.3966 -0.7819
   56CHL1    C8 6564   0.497   3.317   9.698  0.1490 -0.4264  1.0666
   56CHL1    H8 6565   0.561   3.405   9.721  1.9792 -0.3913 -3.2258
   56CHL1   C14 6566   0.542   3.276   9.559 -0.3741 -0.1989 -0.7597
   56CHL1   H14 6567   0.478   3.191   9.529 -0.7462 -1.1224  2.3126
   56CHL1   C15 6568   0.682   3.222   9.538 -0.6363  0.5594 -0.1966
   56CHL1  H15A 6569   0.768   3.263   9.597  0.0656  1.3669 -1.7353
   56CHL1  H15B 6570   0.689   3.117   9.574  2.1391  0.9197  0.6246
   56CHL1   C16 6571   0.716   3.235   9.391 -0.8050  0.1874  0.4891
   56CHL1  H16A 6572   0.810   3.294   9.388  0.6323 -1.9837 -0.8705
   56CHL1  H16B 6573   0.730   3.141   9.332  2.2848  0.6219  0.3659
   56CHL1   C17 6574   0.601   3.321   9.331  0.0365 -0.4384  0.2409
   56CHL1   H17 6575   0.524   3.246   9.302 -0.2383  0.1967 -0.7282
   56CHL1   C13 6576   0.525   3.383   9.451  0.6579  0.4066 -0.2569
   56CHL1   C18 6577   0.608   3.509   9.490 -0.1928 -0.4476  0.5474
   56CHL1  H18A 6578   0.600   3.550   9.593  0.2711 -2.1275  1.2804
   56CHL1  H18B 6579   0.718   3.493   9.480 -0.3400 -2.4916  1.6834
   56CHL1  H18C 6580   0.582   3.593   9.422 -0.3011 -2.1422 -1.6161
   56CHL1   C12 6581   0.373   3.414   9.438  0.7718 -0.2334 -0.3393
   56CHL1  H12A 6582   0.352   3.499   9.369 -0.1661 -1.8312 -2.1163
   56CHL1  H12B 6583   0.311   3.324   9.417  1.8901 -1.0241 -0.3533
   56CHL1   C11 6584   0.322   3.464   9.580  0.3228  0.9762 -0.1436
   56CHL1  H11A 6585   0.371   3.560   9.608  3.1089 -0.9926  2.4257
   56CHL1  H11B 6586   0.215   3.491   9.580 -0.3352 -1.3576  0.5049
   56CHL1    C9 6587   0.351   3.355   9.689  0.0600  0.1700 -0.2366
   56CHL1    H9 6588   0.300   3.264   9.651  1.2330 -1.0829  1.0750
   56CHL1   C10 6589   0.289   3.371   9.832 -0.1695  0.1487 -0.2885
   56CHL1   C19 6590   0.308   3.522   9.876  0.2094 -0.0776 -0.2069
   56CHL1  H19A 6591   0.413   3.559   9.867  0.3855 -0.7371 -0.9064
   56CHL1  H19B 6592   0.249   3.587   9.809  2.1265 -0.8909 -2.8568
   56CHL1  H19C 6593   0.281   3.537   9.983  0.3282 -0.5082 -0.1152
   56CHL1    C1 6594   0.137   3.334   9.828 -0.2122 -0.8391  0.1197
   56CHL1   H1A 6595   0.090   3.407   9.759  4.9150  1.7736 -1.0989
   56CHL1   H1B 6596   0.131   3.238   9.772 -0.3186 -0.1516 -1.0749
   56CHL1    C2 6597   0.058   3.333   9.961 -0.3590 -0.0929 -0.1998
   56CHL1   H2A 6598  -0.045   3.293   9.948 -0.1339  0.0493 -3.1565
   56CHL1   H2B 6599   0.058   3.437   9.998 -0.0746 -0.9665  2.4852
   56CHL1   C20 6600   0.637   3.409   9.209 -0.3353 -0.2984 -0.6870
   56CHL1   H20 6601   0.704   3.493   9.235 -2.8152  1.7570 -0.4987
   56CHL1   C21 6602   0.507   3.462   9.139  0.0701  1.0888  0.5053
   56CHL1  H21A 6603   0.446   3.534   9.196 -2.5559  0.0163 -0.7971
   56CHL1  H21B 6604   0.445   3.372   9.122  0.9223  0.9799 -2.7991
   56CHL1  H21C 6605   0.527   3.506   9.039  0.8316 -1.8977 -0.7632
   56CHL1   C22 6606   0.707   3.315   9.109 -1.3070 -0.3270  0.9613
   56CHL1  H22A 6607   0.791   3.266   9.164 -1.4501  0.4259  1.8798
   56CHL1  H22B 6608   0.630   3.244   9.073 -0.6354  0.1087 -1.5072
   56CHL1   C23 6609   0.758   3.387   8.978  0.0542  0.4007 -0.1640
   56CHL1  H23A 6610   0.663   3.390   8.919 -0.1831 -1.4534  0.0427
   56CHL1  H23B 6611   0.787   3.492   8.998 -0.1614 -0.1782  3.8415
   56CHL1   C24 6612   0.857   3.308   8.896 -0.7690  0.0477 -0.2125
   56CHL1  H24A 6613   0.955   3.341   8.935 -1.0480  0.2442  0.3330
   56CHL1  H24B 6614   0.851   3.201   8.926  1.7991 -0.0398  0.1665
   56CHL1   C25 6615   0.855   3.330   8.742 -0.4098 -0.6271  0.4568
   56CHL1   H25 6616   0.763   3.284   8.701 -1.6361  0.9839  1.2991
   56CHL1   C26 6617   0.853   3.482   8.717 -0.0727  0.9825  0.6469
   56CHL1  H26A 6618   0.876   3.497   8.609  1.2851 -1.5185  0.5270
   56CHL1  H26B 6619   0.750   3.519   8.735 -0.0555  0.4323  1.9482
   56CHL1  H26C 6620   0.936   3.520   8.780 -0.5226 -0.2926  2.0595
   56CHL1   C27 6621   0.979   3.260   8.687 -0.3628  0.2155 -0.0134
   56CHL1  H27A 6622   0.983   3.280   8.577  1.7627 -1.6181 -0.3239
   56CHL1  H27B 6623   1.072   3.303   8.728 -0.2960  0.2846 -0.2336
   56CHL1  H27C 6624   0.992   3.154   8.715 -0.0352  0.2268 -0.1149
   57CHL1    C3 6625   6.822   4.986  10.092 -0.1417  0.7029 -0.5076
   57CHL1    H3 6626   6.928   5.019  10.091  0.0349  0.1421 -0.3966
   57CHL1    O3 6627   6.773   4.978  10.227  0.2071  0.0128 -0.0549
   57CHL1   H3' 6628   6.687   5.020  10.230  1.0346  1.7609  1.9073
   57CHL1    C4 6629   6.728   5.089  10.021 -0.3154 -0.5468 -0.0164
   57CHL1   H4A 6630   6.626   5.049  10.038 -1.0762  1.2316 -0.1945
   57CHL1   H4B 6631   6.749   5.187  10.069  0.3713 -0.6038 -0.1979
   57CHL1    C5 6632   6.768   5.094   9.876 -0.0718 -0.5957 -0.1180
   57CHL1    C6 6633   6.815   5.205   9.823  0.5910 -0.4827 -0.3561
   57CHL1    H6 6634   6.820   5.298   9.882  2.7330 -0.9657  0.3034
   57CHL1    C7 6635   6.859   5.215   9.682  0.0670  0.2196  0.1287
   57CHL1   H7A 6636   6.819   5.308   9.636  0.6591  1.2513  1.6169
   57CHL1   H7B 6637   6.970   5.209   9.681  0.1094  0.0119  2.1379
   57CHL1    C8 6638   6.815   5.095   9.592 -0.5300 -0.7500  0.7358
   57CHL1    H8 6639   6.706   5.117   9.585  0.0935  2.2127 -1.3537
   57CHL1   C14 6640   6.890   5.103   9.462 -0.2102 -0.0576  0.5112
   57CHL1   H14 6641   6.998   5.087   9.483 -0.0399  0.7489  0.2567
   57CHL1   C15 6642   6.879   5.237   9.384 -0.1254  0.5472  0.1606
   57CHL1  H15A 6643   6.772   5.268   9.389 -0.3752  0.1404 -1.7444
   57CHL1  H15B 6644   6.931   5.326   9.425 -0.5774  0.6770  0.4652
   57CHL1   C16 6645   6.909   5.200   9.236  0.1186 -0.4560  0.4994
   57CHL1  H16A 6646   6.828   5.239   9.171  1.1413  0.1526 -0.4617
   57CHL1  H16B 6647   7.002   5.256   9.209 -0.5794  1.3516  1.6676
   57CHL1   C17 6648   6.928   5.048   9.235 -0.1271  0.1134 -0.3703
   57CHL1   H17 6649   7.037   5.035   9.252  0.1371 -0.8810 -2.4194
   57CHL1   C13 6650   6.851   4.994   9.356  0.2867  0.0773 -0.1439
   57CHL1   C18 6651   6.706   4.993   9.319  0.2933 -0.0766  0.2142
   57CHL1  H18A 6652   6.657   4.993   9.419  1.0254  0.0982  0.5859
   57CHL1  H18B 6653   6.669   5.081   9.263  0.5151 -0.2794 -0.2608
   57CHL1  H18C 6654   6.681   4.906   9.254 -0.1099  1.9411 -2.4890
   57CHL1   C12 6655   6.880   4.861   9.425  0.0344 -0.0736  0.6568
   57CHL1  H12A 6656   6.838   4.783   9.358 -1.0603  1.5615 -0.6528
   57CHL1  H12B 6657   6.990   4.847   9.424  0.0357 -0.0420 -0.0469
   57CHL1   C11 6658   6.827   4.845   9.567 -0.1774  0.7117 -0.2347
   57CHL1  H11A 6659   6.719   4.821   9.550  0.1826 -0.1956 -1.4003
   57CHL1  H11B 6660   6.869   4.752   9.610 -2.5238  0.7652  2.4858
   57CHL1    C9 6661   6.837   4.962   9.662  0.4551  0.5216  0.7409
   57CHL1    H9 6662   6.946   4.957   9.681  0.9138 -1.9637 -1.7893
   57CHL1   C10 6663   6.772   4.962   9.805  0.7342  0.0250  0.2764
   57CHL1   C19 6664   6.623   4.909   9.794  0.1148  0.1121 -0.8031
   57CHL1  H19A 6665   6.582   4.894   9.896 -0.0007  1.7263 -0.5934
   57CHL1  H19B 6666   6.560   4.962   9.720  1.0500  0.5698 -1.2947
   57CHL1  H19C 6667   6.628   4.808   9.748 -0.2073  0.5162 -1.7521
   57CHL1    C1 6668   6.853   4.850   9.893 -0.8425 -0.8196  0.5801
   57CHL1   H1A 6669   6.843   4.753   9.839  1.5580 -0.7731 -0.0323
   57CHL1   H1B 6670   6.958   4.884   9.890 -1.3875  0.8998 -0.0921
   57CHL1    C2 6671   6.828   4.847  10.039  0.2242 -0.4324  0.2107
   57CHL1   H2A 6672   6.905   4.788  10.094  0.9170  1.1917  1.0349
   57CHL1   H2B 6673   6.731   4.798  10.062  0.4229 -0.2312  1.5148
   57CHL1   C20 6674   6.901   4.995   9.094  0.4695  0.0833  0.2181
   57CHL1   H20 6675   6.795   5.021   9.075  1.0140  1.1763 -1.6751
   57CHL1   C21 6676   6.924   4.846   9.086 -0.1530 -0.0611  0.5716
   57CHL1  H21A 6677   6.858   4.792   9.157 -0.0812 -0.5538  0.2706
   57CHL1  H21B 6678   7.020   4.822   9.137  0.4254  0.6611 -0.1615
   57CHL1  H21C 6679   6.919   4.801   8.984  1.7683  1.5243 -0.2936
   57CHL1   C22 6680   6.980   5.075   8.982  0.6426  0.2703 -0.2971
   57CHL1  H22A 6681   6.965   5.184   8.996 -1.1653 -0.2955  3.1454
   57CHL1  H22B 6682   7.087   5.054   9.003  0.7559  0.7017 -0.4370
   57CHL1   C23 6683   6.950   5.041   8.836  0.4241 -0.7078 -1.1615
   57CHL1  H23A 6684   6.991   4.939   8.821  0.2460 -0.4212 -4.3597
   57CHL1  H23B 6685   6.841   5.033   8.818  0.7156 -1.9353 -2.5983
   57CHL1   C24 6686   7.022   5.134   8.743  0.6020  0.4250 -0.5291
   57CHL1  H24A 6687   7.023   5.237   8.785  1.8245 -0.0551  0.6746
   57CHL1  H24B 6688   7.132   5.119   8.747  1.1210  3.6248  2.4811
   57CHL1   C25 6689   6.958   5.133   8.602  0.3189  0.7098  0.1849
   57CHL1   H25 6690   6.851   5.159   8.620  0.4580  0.5125  1.3703
   57CHL1   C26 6691   7.022   5.232   8.507 -0.9203 -0.6843  0.1241
   57CHL1  H26A 6692   7.128   5.247   8.536 -1.2193  2.2262  0.0024
   57CHL1  H26B 6693   7.011   5.212   8.399  1.5904  1.8605 -0.7349
   57CHL1  H26C 6694   6.986   5.334   8.534  1.5124  0.1714  0.4306
   57CHL1   C27 6695   6.960   4.986   8.542 -0.4317 -1.0114 -0.3218
   57CHL1  H27A 6696   7.056   4.937   8.569  0.4323  0.3515 -0.8330
   57CHL1  H27B 6697   6.873   4.933   8.586 -0.8454 -1.1858 -1.3282
   57CHL1  H27C 6698   6.952   4.985   8.432 -0.1725 -3.1642 -0.3522
   58CHL1    C3 6699   4.028   3.664   9.784 -0.1478 -0.1068 -0.7674
   58CHL1    H3 6700   4.098   3.579   9.793  1.1445  1.1357  2.4236
   58CHL1    O3 6701   4.003   3.713   9.919 -0.1690  0.3631 -0.5176
   58CHL1   H3' 6702   3.976   3.805   9.915  0.9722  0.9581  2.6908
   58CHL1    C4 6703   4.092   3.789   9.722  0.2524  0.6977 -0.7661
   58CHL1   H4A 6704   4.019   3.873   9.718 -0.8150 -0.0328  1.7531
   58CHL1   H4B 6705   4.176   3.832   9.781  0.0782 -0.9708  0.7555
   58CHL1    C5 6706   4.136   3.756   9.575  0.3418 -0.2850 -1.0472
   58CHL1    C6 6707   4.260   3.764   9.519  0.4762 -0.4436 -0.0815
   58CHL1    H6 6708   4.345   3.800   9.579  0.3039  0.7397 -0.5298
   58CHL1    C7 6709   4.281   3.732   9.369  1.1388  0.3774 -0.6890
   58CHL1   H7A 6710   4.347   3.810   9.326 -0.2861  2.4469  0.6338
   58CHL1   H7B 6711   4.328   3.632   9.365  0.1603 -0.3205  2.2853
   58CHL1    C8 6712   4.160   3.717   9.282  1.2546 -0.4187  0.5640
   58CHL1    H8 6713   4.109   3.812   9.257  1.6122 -0.6629 -1.2250
   58CHL1   C14 6714   4.193   3.644   9.150 -0.6689  0.7137 -0.5252
   58CHL1   H14 6715   4.227   3.542   9.179  0.6919  0.4996 -2.6685
   58CHL1   C15 6716   4.314   3.703   9.078  0.1366  0.5142 -0.2190
   58CHL1  H15A 6717   4.311   3.814   9.073 -2.1091  0.7031  2.7897
   58CHL1  H15B 6718   4.401   3.669   9.139 -0.3576  0.9653  0.7624
   58CHL1   C16 6719   4.300   3.633   8.942 -0.3880 -0.0245  0.5692
   58CHL1  H16A 6720   4.286   3.713   8.867 -1.4166 -1.4897 -0.8603
   58CHL1  H16B 6721   4.385   3.565   8.917 -2.1795 -1.5908 -1.6655
   58CHL1   C17 6722   4.161   3.553   8.942 -0.0288 -0.2084 -0.6806
   58CHL1   H17 6723   4.167   3.448   8.979  5.5469 -0.0921 -0.3890
   58CHL1   C13 6724   4.078   3.617   9.055  0.4860  0.0915  0.5613
   58CHL1   C18 6725   4.018   3.753   9.007  0.9688 -0.4223 -1.0819
   58CHL1  H18A 6726   4.101   3.811   8.960  2.3265 -1.3519  0.1166
   58CHL1  H18B 6727   3.926   3.748   8.944  0.0813  1.5496 -0.0533
   58CHL1  H18C 6728   3.979   3.805   9.097 -1.7244  1.6798 -3.2687
   58CHL1   C12 6729   3.984   3.525   9.125  1.1064 -0.1188 -0.6149
   58CHL1  H12A 6730   3.888   3.525   9.068  1.0482 -1.8283 -0.5712
   58CHL1  H12B 6731   4.024   3.424   9.145 -2.6161 -1.7926 -0.7573
   58CHL1   C11 6732   3.940   3.582   9.268 -0.0281  0.6581  0.0304
   58CHL1  H11A 6733   3.868   3.662   9.237 -0.3006  0.2203 -0.4863
   58CHL1  H11B 6734   3.883   3.502   9.321  1.7053 -0.1888  0.6713
   58CHL1    C9 6735   4.062   3.627   9.359 -0.4613 -0.9379  0.1126
   58CHL1    H9 6736   4.112   3.535   9.395  0.8904 -0.0333  0.6043
   58CHL1   C10 6737   4.018   3.689   9.495 -0.2514 -0.1312  0.2131
   58CHL1   C19 6738   3.921   3.800   9.471  0.3805 -0.0678  0.1393
   58CHL1  H19A 6739   3.984   3.872   9.415  0.1605  0.5335  0.6535
   58CHL1  H19B 6740   3.839   3.756   9.410  2.0579 -1.4603 -1.1944
   58CHL1  H19C 6741   3.875   3.855   9.557  0.0638  0.6461 -0.4697
   58CHL1    C1 6742   3.945   3.572   9.571 -0.4835 -0.2658  0.6131
   58CHL1   H1A 6743   3.851   3.546   9.518  0.1068 -2.0218  0.3707
   58CHL1   H1B 6744   4.021   3.492   9.581  1.2224  1.1382 -0.4912
   58CHL1    C2 6745   3.901   3.616   9.715 -0.4640 -0.0093 -0.5984
   58CHL1   H2A 6746   3.868   3.520   9.760 -1.8815  0.5161 -0.4417
   58CHL1   H2B 6747   3.819   3.691   9.728  0.9905  1.2062  2.6344
   58CHL1   C20 6748   4.100   3.555   8.799 -0.1316 -0.0377 -0.4119
   58CHL1   H20 6749   4.070   3.659   8.776 -0.8651  0.0058  0.6374
   58CHL1   C21 6750   3.981   3.461   8.785  0.4712  0.0289 -0.5134
   58CHL1  H21A 6751   3.889   3.504   8.829  1.5421  0.7010  1.1787
   58CHL1  H21B 6752   4.015   3.363   8.825  0.1152  0.0969 -0.0314
   58CHL1  H21C 6753   3.943   3.449   8.681 -2.7735  0.1649  0.5543
   58CHL1   C22 6754   4.203   3.524   8.688 -0.2777  0.1213  0.3206
   58CHL1  H22A 6755   4.305   3.558   8.716  0.5286 -0.0079 -2.2407
   58CHL1  H22B 6756   4.214   3.413   8.682 -1.4062 -0.0522  1.1361
   58CHL1   C23 6757   4.161   3.587   8.551 -0.6313 -0.2961  0.0652
   58CHL1  H23A 6758   4.085   3.518   8.508 -2.3835  0.1646  2.2599
   58CHL1  H23B 6759   4.109   3.685   8.553  0.7401  0.4580  0.1476
   58CHL1   C24 6760   4.280   3.604   8.453  0.1092 -0.3469 -0.7663
   58CHL1  H24A 6761   4.259   3.682   8.377 -0.5613  1.4444  1.1567
   58CHL1  H24B 6762   4.369   3.633   8.512 -0.8943  2.0306 -0.2884
   58CHL1   C25 6763   4.320   3.472   8.369  0.3702 -0.3000  0.3820
   58CHL1   H25 6764   4.224   3.418   8.351 -0.4011  1.1202  0.0212
   58CHL1   C26 6765   4.386   3.501   8.232  0.7107 -0.0180 -0.2749
   58CHL1  H26A 6766   4.464   3.576   8.261  1.4903 -0.8860 -0.0623
   58CHL1  H26B 6767   4.431   3.410   8.187 -0.7469 -1.1342  0.4522
   58CHL1  H26C 6768   4.321   3.552   8.157 -1.8727 -0.8467  1.2789
   58CHL1   C27 6769   4.425   3.376   8.442  0.0886  0.0048  0.3169
   58CHL1  H27A 6770   4.371   3.334   8.530 -3.0175  1.3438 -0.8462
   58CHL1  H27B 6771   4.464   3.291   8.382  1.3499  0.4037  0.5454
   58CHL1  H27C 6772   4.502   3.450   8.472 -0.5289  0.1655  1.5793
   59CHL1    C3 6773   2.941   1.689  10.131 -0.8751 -0.7581 -0.1310
   59CHL1    H3 6774   3.039   1.667  10.084 -1.0872 -0.4714 -0.7099
   59CHL1    O3 6775   2.958   1.680  10.272  0.1586 -0.2871  0.3487
   59CHL1   H3' 6776   3.013   1.754  10.296 -1.5796  1.0882  0.3142
   59CHL1    C4 6777   2.896   1.842  10.099  0.1799  0.0332 -0.5794
   59CHL1   H4A 6778   2.816   1.864  10.173 -0.6550  0.9236 -1.7100
   59CHL1   H4B 6779   2.982   1.912  10.112 -1.4689  2.2637 -1.1031
   59CHL1    C5 6780   2.838   1.866   9.961 -0.5616  0.7174  0.6197
   59CHL1    C6 6781   2.880   1.971   9.889  0.1743  0.0433 -0.3149
   59CHL1    H6 6782   2.953   2.038   9.937  1.2239 -1.0538 -0.3279
   59CHL1    C7 6783   2.830   2.009   9.750  0.3473  0.0072 -0.5300
   59CHL1   H7A 6784   2.791   2.113   9.747 -4.1475 -1.4157  1.0118
   59CHL1   H7B 6785   2.922   1.998   9.688 -1.2180 -2.2680 -2.5804
   59CHL1    C8 6786   2.711   1.918   9.699  0.1466 -0.3514  0.9624
   59CHL1    H8 6787   2.611   1.953   9.733  0.4450  1.4423  0.1254
   59CHL1   C14 6788   2.717   1.934   9.547  0.1327  0.5630 -1.3740
   59CHL1   H14 6789   2.817   1.894   9.519 -0.0657 -1.6237  0.7264
   59CHL1   C15 6790   2.694   2.080   9.483  0.1126  0.3663 -1.0808
   59CHL1  H15A 6791   2.615   2.133   9.541 -0.4960 -0.7771 -0.8298
   59CHL1  H15B 6792   2.797   2.122   9.479  0.3224 -0.1322 -1.0154
   59CHL1   C16 6793   2.646   2.036   9.343 -0.1823  0.1241  0.7031
   59CHL1  H16A 6794   2.542   2.072   9.329 -0.7025 -1.7742 -0.6369
   59CHL1  H16B 6795   2.709   2.086   9.266 -2.6081  0.4850 -1.1481
   59CHL1   C17 6796   2.632   1.887   9.332  0.7318  0.5491 -0.1140
   59CHL1   H17 6797   2.730   1.847   9.299  0.5452  0.8179 -1.0253
   59CHL1   C13 6798   2.614   1.839   9.475  0.1138 -0.9193 -0.1329
   59CHL1   C18 6799   2.464   1.872   9.508 -0.2243  0.0204  0.9001
   59CHL1  H18A 6800   2.437   1.973   9.473  0.5218  0.5616  1.8404
   59CHL1  H18B 6801   2.398   1.804   9.449 -1.3924  1.8700 -0.0013
   59CHL1  H18C 6802   2.425   1.868   9.612  0.4306  0.2437  1.1600
   59CHL1   C12 6803   2.653   1.696   9.510 -0.5996  0.3507 -0.3819
   59CHL1  H12A 6804   2.583   1.621   9.469  0.7215  0.0368 -2.1916
   59CHL1  H12B 6805   2.755   1.663   9.479 -0.7337  0.2131 -0.6741
   59CHL1   C11 6806   2.656   1.666   9.665 -0.3695 -0.2077 -0.4405
   59CHL1  H11A 6807   2.549   1.663   9.697  0.0449  2.4121  1.5560
   59CHL1  H11B 6808   2.703   1.567   9.681  4.4087  1.9958  0.8553
   59CHL1    C9 6809   2.742   1.771   9.740 -0.0453  0.0572 -0.1002
   59CHL1    H9 6810   2.840   1.758   9.691 -0.7088 -1.1664 -1.1493
   59CHL1   C10 6811   2.747   1.748   9.895 -0.5905 -1.5661 -0.7532
   59CHL1   C19 6812   2.605   1.756   9.949  0.1351 -0.4088  0.8343
   59CHL1  H19A 6813   2.543   1.669   9.919  1.7390 -1.4787  0.5216
   59CHL1  H19B 6814   2.609   1.759  10.060  0.2125 -1.1193  0.8519
   59CHL1  H19C 6815   2.553   1.844   9.905 -2.4859 -1.3562  1.8660
   59CHL1    C1 6816   2.807   1.612   9.934  0.3364  0.3644 -0.6039
   59CHL1   H1A 6817   2.741   1.537   9.886  0.4858  0.4447 -0.9391
   59CHL1   H1B 6818   2.910   1.598   9.895  0.7090 -0.4058  0.6014
   59CHL1    C2 6819   2.833   1.595  10.087  0.0683 -0.8176  0.0691
   59CHL1   H2A 6820   2.854   1.494  10.127 -1.3924 -0.2658  2.3729
   59CHL1   H2B 6821   2.738   1.628  10.135 -0.4349  0.6032 -1.7812
   59CHL1   C20 6822   2.530   1.850   9.219 -0.3810 -0.1536  0.8246
   59CHL1   H20 6823   2.436   1.907   9.234  0.2052  0.8577  0.7293
   59CHL1   C21 6824   2.494   1.700   9.218 -0.1569 -0.1087  0.6917
   59CHL1  H21A 6825   2.451   1.668   9.315 -0.2025 -0.4803  0.5516
   59CHL1  H21B 6826   2.584   1.636   9.206 -0.2444  0.0601 -1.2814
   59CHL1  H21C 6827   2.423   1.658   9.143 -0.0642  0.8338  0.0612
   59CHL1   C22 6828   2.565   1.894   9.077 -0.1889  0.1427 -0.6098
   59CHL1  H22A 6829   2.583   2.004   9.079  0.2968  0.0602  1.2689
   59CHL1  H22B 6830   2.650   1.833   9.039  0.1212  0.5312 -0.5574
   59CHL1   C23 6831   2.456   1.890   8.972 -0.6626 -0.4056 -0.7829
   59CHL1  H23A 6832   2.428   1.785   8.948 -0.1680 -0.7778  0.2185
   59CHL1  H23B 6833   2.361   1.937   9.006 -1.7327 -1.7561 -1.8113
   59CHL1   C24 6834   2.488   1.950   8.828  1.0304 -0.1291 -0.3685
   59CHL1  H24A 6835   2.504   2.057   8.856 -0.0301 -0.5939  2.2804
   59CHL1  H24B 6836   2.569   1.900   8.771 -0.5575 -2.5772 -0.5797
   59CHL1   C25 6837   2.370   1.930   8.730  0.3238 -0.0275 -0.1772
   59CHL1   H25 6838   2.277   1.936   8.791 -0.4923  1.7736 -1.4990
   59CHL1   C26 6839   2.352   2.047   8.628 -0.2877 -0.4709  0.7263
   59CHL1  H26A 6840   2.450   2.063   8.577 -0.1694 -0.4587  0.9542
   59CHL1  H26B 6841   2.281   2.026   8.546 -0.6554  1.7031  0.4281
   59CHL1  H26C 6842   2.318   2.137   8.683  0.2931  0.8724 -1.0327
   59CHL1   C27 6843   2.362   1.795   8.654  0.4104 -0.6096 -0.0460
   59CHL1  H27A 6844   2.312   1.711   8.708  0.0697 -2.0041 -2.4034
   59CHL1  H27B 6845   2.309   1.795   8.557 -0.9751 -0.4349  0.6830
   59CHL1  H27C 6846   2.465   1.771   8.622  0.6845  0.1597  0.2286
   60CHL1    C3 6847   2.204   0.842  10.161  0.6632  0.3838  0.1391
   60CHL1    H3 6848   2.184   0.733  10.154 -0.0668  0.3970  1.7043
   60CHL1    O3 6849   2.217   0.868  10.303 -0.2270  0.0930 -0.1134
   60CHL1   H3' 6850   2.218   0.963  10.307 -2.1472  0.1279  0.3471
   60CHL1    C4 6851   2.330   0.872  10.088 -0.8068 -0.1997  1.1777
   60CHL1   H4A 6852   2.376   0.972  10.103  0.8140 -1.0432  2.2152
   60CHL1   H4B 6853   2.407   0.812  10.142  3.0298  1.6804 -1.6515
   60CHL1    C5 6854   2.313   0.852   9.938  0.9937  0.4782  0.2197
   60CHL1    C6 6855   2.384   0.762   9.869 -1.0546 -0.5195  0.1572
   60CHL1    H6 6856   2.454   0.691   9.916 -1.3410 -0.6765  0.3531
   60CHL1    C7 6857   2.391   0.756   9.722 -0.0298 -0.0364  0.1924
   60CHL1   H7A 6858   2.495   0.746   9.684  0.2949 -3.2504  1.5887
   60CHL1   H7B 6859   2.342   0.663   9.687 -0.5725  0.5064 -0.5124
   60CHL1    C8 6860   2.317   0.883   9.664  0.4650 -1.2014 -0.1978
   60CHL1    H8 6861   2.396   0.961   9.671 -1.1241  0.5527 -1.0093
   60CHL1   C14 6862   2.273   0.856   9.519 -0.6930 -0.2487 -0.1164
   60CHL1   H14 6863   2.207   0.767   9.522 -0.9101 -0.0508  1.5207
   60CHL1   C15 6864   2.388   0.814   9.430  0.0390  0.6269  0.5152
   60CHL1  H15A 6865   2.484   0.844   9.477  1.3191 -1.9312 -0.3258
   60CHL1  H15B 6866   2.397   0.704   9.424  2.4679  0.6814  1.8480
   60CHL1   C16 6867   2.355   0.874   9.290 -0.0462  0.4929 -0.1504
   60CHL1  H16A 6868   2.432   0.952   9.272 -0.1195  1.0509  1.8165
   60CHL1  H16B 6869   2.361   0.790   9.217 -1.3971  0.4004 -0.1822
   60CHL1   C17 6870   2.207   0.927   9.303  0.9904  0.0537 -0.0802
   60CHL1   H17 6871   2.135   0.844   9.293 -0.4639  1.3392 -0.6223
   60CHL1   C13 6872   2.201   0.967   9.448  0.4120 -0.3988 -0.0861
   60CHL1   C18 6873   2.279   1.098   9.468  0.4341 -0.4680  0.2750
   60CHL1  H18A 6874   2.386   1.107   9.439 -0.2335  0.8960 -1.9912
   60CHL1  H18B 6875   2.233   1.175   9.403  2.9940  1.3933  0.4745
   60CHL1  H18C 6876   2.274   1.134   9.573 -1.4771 -0.2386  0.1399
   60CHL1   C12 6877   2.064   0.975   9.502 -0.2476 -0.9741  0.0723
   60CHL1  H12A 6878   2.017   1.068   9.461  1.8622 -0.7643 -2.1506
   60CHL1  H12B 6879   1.995   0.890   9.487 -0.1227 -1.3949  1.7227
   60CHL1   C11 6880   2.077   0.992   9.654 -0.1356 -0.0999  0.1736
   60CHL1  H11A 6881   2.087   1.100   9.682 -0.5164  0.2412 -0.9440
   60CHL1  H11B 6882   1.978   0.962   9.694 -0.1202  0.1244  0.3835
   60CHL1    C9 6883   2.180   0.902   9.730  0.4423  0.9168  0.4972
   60CHL1    H9 6884   2.133   0.802   9.731 -0.8022  1.4732  2.0648
   60CHL1   C10 6885   2.199   0.943   9.878 -0.9102 -1.1333  0.6021
   60CHL1   C19 6886   2.241   1.087   9.890  0.0362  0.0452  0.3748
   60CHL1  H19A 6887   2.262   1.116   9.996  0.8052  1.7583 -0.2078
   60CHL1  H19B 6888   2.310   1.124   9.812  0.4464 -0.6007  0.4273
   60CHL1  H19C 6889   2.157   1.159   9.875  0.0503 -0.0280 -0.0455
   60CHL1    C1 6890   2.073   0.915   9.961  0.4715 -0.2909  1.0585
   60CHL1   H1A 6891   2.000   0.993   9.930  0.8995 -0.8101 -1.4508
   60CHL1   H1B 6892   2.033   0.815   9.934  0.2160 -1.2143  4.3595
   60CHL1    C2 6893   2.091   0.928  10.112  0.6737  0.1554 -0.1149
   60CHL1   H2A 6894   1.995   0.903  10.162  1.7535  0.2485  2.1349
   60CHL1   H2B 6895   2.108   1.036  10.132  1.2191  0.2470 -1.0418
   60CHL1   C20 6896   2.159   1.021   9.189 -0.3584 -0.1628  0.2149
   60CHL1   H20 6897   2.094   1.095   9.240  1.2317  0.9912  0.6786
   60CHL1   C21 6898   2.075   0.953   9.083 -0.4099  0.2256 -0.6573
   60CHL1  H21A 6899   2.145   0.889   9.025 -0.2528  0.8027 -1.1115
   60CHL1  H21B 6900   2.037   1.030   9.013  2.0208  2.0730 -0.0549
   60CHL1  H21C 6901   1.988   0.895   9.121 -0.6675  0.0321 -1.5227
   60CHL1   C22 6902   2.265   1.109   9.117  0.0473  0.4939 -0.2658
   60CHL1  H22A 6903   2.335   1.150   9.193 -1.3226  1.4633  0.5304
   60CHL1  H22B 6904   2.310   1.049   9.035  1.2614  0.1339  0.6288
   60CHL1   C23 6905   2.188   1.232   9.060 -0.4780 -0.3707  0.2693
   60CHL1  H23A 6906   2.139   1.200   8.965 -1.5809  2.1962 -0.1005
   60CHL1  H23B 6907   2.108   1.270   9.127 -0.0289  0.0595  0.5582
   60CHL1   C24 6908   2.276   1.357   9.028 -0.3578 -0.3340  0.7539
   60CHL1  H24A 6909   2.217   1.449   9.045  0.0417 -0.1951  1.4123
   60CHL1  H24B 6910   2.361   1.356   9.100  0.8192 -0.8846 -0.5881
   60CHL1   C25 6911   2.309   1.357   8.876  0.1372  0.9122  0.2880
   60CHL1   H25 6912   2.211   1.377   8.827  1.6617  0.6572 -3.1964
   60CHL1   C26 6913   2.390   1.482   8.846  0.6768 -0.2215  0.0952
   60CHL1  H26A 6914   2.484   1.481   8.906  2.6956 -0.2114 -2.8513
   60CHL1  H26B 6915   2.412   1.481   8.737 -1.1819  2.5760 -0.4041
   60CHL1  H26C 6916   2.337   1.576   8.870  0.2734 -0.7174  1.2146
   60CHL1   C27 6917   2.368   1.229   8.811  0.2717  0.0603  0.4075
   60CHL1  H27A 6918   2.287   1.154   8.825 -0.8666  1.4512  1.4653
   60CHL1  H27B 6919   2.386   1.238   8.701  1.9962 -0.7922  0.5783
   60CHL1  H27C 6920   2.465   1.191   8.852  0.9073  0.8937 -0.2782
   61CHL1    C3 6921   6.701   0.510  10.052 -0.1253 -0.0238 -0.4464
   61CHL1    H3 6922   6.632   0.589  10.012  0.4828 -0.1552 -1.8319
   61CHL1    O3 6923   6.774   0.564  10.162  0.3478  0.2626 -0.0745
   61CHL1   H3' 6924   6.816   0.494  10.212  0.4953  0.6163  0.3029
   61CHL1    C4 6925   6.618   0.387  10.088  0.9410 -0.3943 -0.6223
   61CHL1   H4A 6926   6.679   0.313  10.145 -0.1177 -0.9979 -0.2293
   61CHL1   H4B 6927   6.539   0.421  10.159  0.6515  2.8721 -2.3299
   61CHL1    C5 6928   6.558   0.317   9.965 -0.1279 -0.1219 -0.4490
   61CHL1    C6 6929   6.430   0.292   9.959 -0.2305  0.1991  0.4502
   61CHL1    H6 6930   6.366   0.326  10.042 -3.9190  0.1697 -2.1138
   61CHL1    C7 6931   6.360   0.224   9.841 -0.3561 -0.6529 -0.4416
   61CHL1   H7A 6932   6.296   0.142   9.879  2.5423 -3.9314 -2.0358
   61CHL1   H7B 6933   6.302   0.307   9.795  1.5167  0.0569 -1.6376
   61CHL1    C8 6934   6.463   0.176   9.732 -0.4014 -0.3933 -0.5327
   61CHL1    H8 6935   6.502   0.075   9.758  0.4748  0.2125  0.6277
   61CHL1   C14 6936   6.394   0.161   9.597 -0.3334  0.1970 -0.6884
   61CHL1   H14 6937   6.371   0.266   9.570 -2.1799  0.0944  0.2809
   61CHL1   C15 6938   6.260   0.089   9.604  0.8318  0.6300 -0.1278
   61CHL1  H15A 6939   6.277  -0.002   9.666  1.2558  0.2472 -0.8001
   61CHL1  H15B 6940   6.183   0.153   9.652  1.5505  1.5752 -0.2056
   61CHL1   C16 6941   6.228   0.059   9.458 -0.1005  0.0014  0.9293
   61CHL1  H16A 6942   6.193  -0.044   9.436  2.3924 -0.5963 -0.6452
   61CHL1  H16B 6943   6.153   0.132   9.422  2.7489  1.6361 -2.3326
   61CHL1   C17 6944   6.359   0.095   9.373  0.1794 -0.5695  0.0881
   61CHL1   H17 6945   6.343   0.201   9.345 -2.2072 -1.0579 -0.6462
   61CHL1   C13 6946   6.475   0.099   9.483  0.3949 -0.2862  0.1162
   61CHL1   C18 6947   6.527  -0.043   9.515  0.3504  0.1609  0.0197
   61CHL1  H18A 6948   6.438  -0.108   9.526  0.3905  0.4828  3.3221
   61CHL1  H18B 6949   6.582  -0.083   9.427  0.1224 -0.3691  0.1143
   61CHL1  H18C 6950   6.604  -0.046   9.596  0.7894 -1.2058 -0.4114
   61CHL1   C12 6951   6.607   0.188   9.461 -0.3299 -0.2616 -0.1009
   61CHL1  H12A 6952   6.682   0.153   9.386 -0.8672 -0.6451 -0.4633
   61CHL1  H12B 6953   6.590   0.291   9.423  2.8405  0.2807 -0.3413
   61CHL1   C11 6954   6.683   0.216   9.595 -0.1330 -0.0991  0.1673
   61CHL1  H11A 6955   6.726   0.121   9.634  0.5366 -0.2411 -0.9071
   61CHL1  H11B 6956   6.763   0.290   9.573  2.5014 -3.0925 -1.1465
   61CHL1    C9 6957   6.586   0.263   9.714 -0.0269 -0.4131  0.3002
   61CHL1    H9 6958   6.543   0.358   9.674  0.1970 -0.2760  0.3838
   61CHL1   C10 6959   6.656   0.294   9.845 -0.6891 -0.3475 -0.7749
   61CHL1   C19 6960   6.756   0.178   9.883  0.3299 -0.2295 -0.4700
   61CHL1  H19A 6961   6.703   0.081   9.890 -1.6562  0.8420  0.3792
   61CHL1  H19B 6962   6.837   0.183   9.807  1.7509 -0.0043  0.9863
   61CHL1  H19C 6963   6.806   0.202   9.980 -2.4464 -0.5243  1.1270
   61CHL1    C1 6964   6.744   0.421   9.820  0.2650 -0.0992 -0.1489
   61CHL1   H1A 6965   6.814   0.401   9.736  0.3787 -1.3498  0.2280
   61CHL1   H1B 6966   6.671   0.497   9.784 -0.2650 -0.6187 -0.1860
   61CHL1    C2 6967   6.804   0.484   9.940  1.2364  0.1539  0.1087
   61CHL1   H2A 6968   6.844   0.582   9.908 -0.2525  0.7249 -0.0374
   61CHL1   H2B 6969   6.887   0.428   9.989  0.6550 -1.3586 -0.5627
   61CHL1   C20 6970   6.386   0.015   9.248  0.3168 -0.1007 -0.6371
   61CHL1   H20 6971   6.376  -0.090   9.283 -0.2240 -0.1587 -0.9650
   61CHL1   C21 6972   6.515   0.061   9.181 -0.9954  0.1235  0.4551
   61CHL1  H21A 6973   6.513   0.168   9.150  1.8000  0.5545  1.5042
   61CHL1  H21B 6974   6.536  -0.006   9.096 -0.4435  0.3405  0.4145
   61CHL1  H21C 6975   6.608   0.049   9.241 -0.4183 -0.7721 -0.5938
   61CHL1   C22 6976   6.263   0.023   9.142  0.2138 -0.6785 -0.2728
   61CHL1  H22A 6977   6.173   0.010   9.205  0.3574  1.8035  0.5883
   61CHL1  H22B 6978   6.260   0.132   9.118 -1.5907 -0.7994 -0.7571
   61CHL1   C23 6979   6.264  -0.054   9.014  0.4102 -0.1237  0.8381
   61CHL1  H23A 6980   6.362  -0.102   8.997  0.1983 -1.0191  1.9895
   61CHL1  H23B 6981   6.193  -0.137   9.036  1.5379 -1.2784  0.2520
   61CHL1   C24 6982   6.219   0.036   8.892  0.1696  0.4043 -0.1719
   61CHL1  H24A 6983   6.111   0.063   8.902 -0.4379 -2.1270  0.9455
   61CHL1  H24B 6984   6.290   0.121   8.884  1.8726 -0.8785  0.6781
   61CHL1   C25 6985   6.237  -0.035   8.747  0.1497  0.3703  0.2324
   61CHL1   H25 6986   6.237  -0.143   8.772 -0.1820  0.9663  3.3042
   61CHL1   C26 6987   6.131   0.009   8.649  0.3206  0.0071 -0.6040
   61CHL1  H26A 6988   6.130   0.120   8.635 -1.7303  0.1144  0.0239
   61CHL1  H26B 6989   6.139  -0.040   8.550  0.0643 -1.2312 -0.0219
   61CHL1  H26C 6990   6.034  -0.017   8.696  0.8031  1.3617  1.2888
   61CHL1   C27 6991   6.371   0.009   8.685  0.5089  0.4024  0.5366
   61CHL1  H27A 6992   6.376   0.118   8.663 -0.0371 -0.2503 -3.5549
   61CHL1  H27B 6993   6.455  -0.014   8.754 -0.8484  0.5056  2.3277
   61CHL1  H27C 6994   6.398  -0.046   8.593  0.0209 -0.8161  1.1026
   62CHL1    C3 6995   6.834   4.355   9.868 -0.5636  0.2241 -0.9365
   62CHL1    H3 6996   6.733   4.388   9.835 -1.7643 -1.3629  0.8986
   62CHL1    O3 6997   6.837   4.322  10.006 -0.0149 -0.0369 -0.2282
   62CHL1   H3' 6998   6.930   4.298  10.014  0.3475  0.8995 -1.3344
   62CHL1    C4 6999   6.878   4.229   9.794  0.5427  0.3934 -0.5495
   62CHL1   H4A 7000   6.974   4.188   9.832  0.2764  0.0965 -0.2046
   62CHL1   H4B 7001   6.797   4.154   9.799 -0.8880  1.9626  3.3411
   62CHL1    C5 7002   6.902   4.261   9.644  0.2172  0.0208  0.3267
   62CHL1    C6 7003   6.833   4.198   9.551 -0.1580  0.5272 -0.2468
   62CHL1    H6 7004   6.768   4.115   9.582  1.2007 -0.9786 -1.2708
   62CHL1    C7 7005   6.843   4.219   9.407  0.2439  0.3072  0.3789
   62CHL1   H7A 7006   6.856   4.122   9.355  1.5270  0.9512 -0.5391
   62CHL1   H7B 7007   6.753   4.266   9.361 -0.3013 -1.4212 -0.3878
   62CHL1    C8 7008   6.968   4.309   9.369 -0.2320 -0.9571  0.2404
   62CHL1    H8 7009   7.058   4.244   9.379  0.1976 -0.1754  1.6726
   62CHL1   C14 7010   6.949   4.371   9.226  0.4301 -0.3768  0.7378
   62CHL1   H14 7011   6.861   4.438   9.223  1.1385  0.5337 -1.1489
   62CHL1   C15 7012   6.901   4.281   9.118  0.8448  0.3887 -0.3179
   62CHL1  H15A 7013   6.959   4.187   9.114  0.6166 -0.0368  3.3682
   62CHL1  H15B 7014   6.792   4.258   9.128  0.5813  1.4206 -0.6400
   62CHL1   C16 7015   6.932   4.361   8.989 -0.0495  0.7506  0.3692
   62CHL1  H16A 7016   7.004   4.300   8.929  1.1105  1.8203  0.6426
   62CHL1  H16B 7017   6.841   4.379   8.928 -0.5135 -1.4466  0.3229
   62CHL1   C17 7018   7.010   4.491   9.032  0.3242  0.2189 -0.2571
   62CHL1   H17 7019   6.942   4.578   9.043 -0.9317 -0.6493 -0.7960
   62CHL1   C13 7020   7.066   4.455   9.173 -0.7441  0.4846  0.3416
   62CHL1   C18 7021   7.186   4.356   9.164  0.2689  0.7892 -0.0488
   62CHL1  H18A 7022   7.214   4.316   9.263 -1.1473 -1.9899 -0.6777
   62CHL1  H18B 7023   7.152   4.279   9.092 -1.2634  0.9817  0.4359
   62CHL1  H18C 7024   7.276   4.404   9.117  1.7258 -2.4632 -0.8423
   62CHL1   C12 7025   7.083   4.568   9.270  0.4442 -0.5166 -0.3962
   62CHL1  H12A 7026   7.171   4.632   9.246  1.6118 -2.5189 -1.7067
   62CHL1  H12B 7027   6.997   4.638   9.270  1.2591  0.5308 -1.1006
   62CHL1   C11 7028   7.104   4.521   9.415 -0.5053  0.1453  0.0429
   62CHL1  H11A 7029   7.197   4.461   9.412 -0.2897  0.4940 -2.4850
   62CHL1  H11B 7030   7.116   4.607   9.483 -2.9513  0.4546  0.1811
   62CHL1    C9 7031   6.990   4.426   9.469 -0.1395  0.2588  0.7828
   62CHL1    H9 7032   6.892   4.478   9.464  0.3044  0.9942 -1.0018
   62CHL1   C10 7033   7.003   4.374   9.613  0.0831 -0.0691 -0.1949
   62CHL1   C19 7034   7.144   4.322   9.641  0.2755  0.1873 -0.0126
   62CHL1  H19A 7035   7.162   4.303   9.749  1.0631 -0.9427 -0.3265
   62CHL1  H19B 7036   7.171   4.230   9.586 -0.8240 -1.7081  2.4273
   62CHL1  H19C 7037   7.221   4.397   9.611  3.0664 -3.1855 -1.9502
   62CHL1    C1 7038   6.966   4.498   9.708 -0.2626 -0.4479 -0.1545
   62CHL1   H1A 7039   7.045   4.576   9.706 -0.5334 -0.1297 -3.1291
   62CHL1   H1B 7040   6.875   4.552   9.671  0.0430 -0.8219 -1.5326
   62CHL1    C2 7041   6.949   4.463   9.850 -0.1992  0.3648 -0.1147
   62CHL1   H2A 7042   6.918   4.554   9.905 -0.4728  0.9719 -1.2430
   62CHL1   H2B 7043   7.036   4.416   9.901 -1.4740 -0.6757  1.1986
   62CHL1   C20 7044   7.109   4.518   8.922  0.1871  0.3182  0.2441
   62CHL1   H20 7045   7.174   4.429   8.910 -0.3491 -0.2987  1.7005
   62CHL1   C21 7046   7.198   4.646   8.948  0.4784  0.8631 -0.1089
   62CHL1  H21A 7047   7.133   4.733   8.973 -1.7910 -0.8283  0.1325
   62CHL1  H21B 7048   7.263   4.668   8.860 -0.4482 -1.1453 -1.3578
   62CHL1  H21C 7049   7.269   4.631   9.032  0.3629  1.7630  0.1640
   62CHL1   C22 7050   7.043   4.543   8.785 -0.5647 -0.5331  0.5255
   62CHL1  H22A 7051   6.944   4.493   8.778 -1.6801  1.5846  0.1881
   62CHL1  H22B 7052   7.021   4.652   8.785  1.3620 -0.0874  2.2270
   62CHL1   C23 7053   7.128   4.505   8.658 -0.2588 -0.0043 -0.0601
   62CHL1  H23A 7054   7.219   4.565   8.679 -1.0330  0.2150  3.3223
   62CHL1  H23B 7055   7.155   4.398   8.670  2.6771  0.9045  2.9495
   62CHL1   C24 7056   7.059   4.523   8.522  0.2584  0.1765  0.2052
   62CHL1  H24A 7057   7.030   4.630   8.509  0.1964  0.0632 -0.6399
   62CHL1  H24B 7058   7.140   4.515   8.446 -0.0651  0.8738 -0.2275
   62CHL1   C25 7059   6.939   4.426   8.490 -0.1382 -0.4334  0.2683
   62CHL1   H25 7060   6.871   4.439   8.577  0.2691 -0.6954  0.6262
   62CHL1   C26 7061   6.864   4.484   8.366 -0.0167  0.4021  0.1149
   62CHL1  H26A 7062   6.929   4.532   8.290 -1.4508  1.2956 -0.6044
   62CHL1  H26B 7063   6.800   4.407   8.318 -0.4645 -0.1184  1.5092
   62CHL1  H26C 7064   6.801   4.566   8.407 -1.1866 -1.7610  2.9494
   62CHL1   C27 7065   6.977   4.285   8.473 -0.2964 -0.5051  0.4998
   62CHL1  H27A 7066   6.883   4.227   8.464  0.5166 -2.0860  1.5398
   62CHL1  H27B 7067   7.050   4.274   8.390 -0.0481  1.1218  0.4796
   62CHL1  H27C 7068   7.032   4.253   8.565  0.6302 -0.8639 -0.1628
   63CHL1    C3 7069   1.651   5.789  10.231  0.4685 -0.5475  0.0700
   63CHL1    H3 7070   1.760   5.786  10.213  0.2019 -2.1029 -1.5218
   63CHL1    O3 7071   1.628   5.795  10.368  0.3637 -0.3509 -0.5563
   63CHL1   H3' 7072   1.665   5.873  10.409  1.9319 -2.4432  2.3566
   63CHL1    C4 7073   1.595   5.924  10.176 -0.3754  0.4733 -1.1782
   63CHL1   H4A 7074   1.494   5.928  10.224 -0.6276  1.8112 -1.8070
   63CHL1   H4B 7075   1.656   6.004  10.221 -2.2039  0.4141  1.7063
   63CHL1    C5 7076   1.591   5.921  10.025  0.2399  0.0153 -0.7666
   63CHL1    C6 7077   1.651   6.007   9.945  0.1793 -0.0777 -0.8342
   63CHL1    H6 7078   1.704   6.095   9.984 -0.3985  0.2719 -0.8242
   63CHL1    C7 7079   1.642   6.011   9.801 -0.0065  0.2776  0.7775
   63CHL1   H7A 7080   1.647   6.112   9.756  0.2487 -0.6055 -1.2625
   63CHL1   H7B 7081   1.724   5.953   9.753  0.8888  2.2089 -0.1088
   63CHL1    C8 7082   1.527   5.935   9.750  0.0673 -0.0275 -0.1672
   63CHL1    H8 7083   1.433   5.986   9.781 -0.9389 -0.9647 -1.5016
   63CHL1   C14 7084   1.529   5.922   9.598  0.1416 -0.3215  0.5191
   63CHL1   H14 7085   1.625   5.871   9.577 -0.7913 -1.6145 -0.8125
   63CHL1   C15 7086   1.536   6.053   9.526  0.2569 -0.1191 -0.0351
   63CHL1  H15A 7087   1.459   6.124   9.564  1.1594 -0.4041  2.5662
   63CHL1  H15B 7088   1.637   6.099   9.530  0.8618 -1.4638  0.9587
   63CHL1   C16 7089   1.512   6.015   9.377  1.2342 -0.0908  0.4476
   63CHL1  H16A 7090   1.431   6.082   9.341  0.1653 -1.2250  0.6654
   63CHL1  H16B 7091   1.606   6.026   9.318  1.4272  1.7130  1.0424
   63CHL1   C17 7092   1.443   5.872   9.385 -0.6524  0.5464 -0.5319
   63CHL1   H17 7093   1.521   5.798   9.357 -1.7863 -0.6168 -0.6940
   63CHL1   C13 7094   1.416   5.840   9.534 -0.1779  0.2253  1.0319
   63CHL1   C18 7095   1.277   5.901   9.569 -0.5936  0.3919 -0.7205
   63CHL1  H18A 7096   1.196   5.841   9.522  0.8086 -2.1479 -0.0591
   63CHL1  H18B 7097   1.257   5.905   9.678 -0.6600 -2.4782 -0.5695
   63CHL1  H18C 7098   1.267   6.006   9.533 -0.8095  0.0763 -1.5986
   63CHL1   C12 7099   1.434   5.698   9.597  0.2005  0.0538  0.0999
   63CHL1  H12A 7100   1.345   5.637   9.568  0.0612 -0.4244  1.4787
   63CHL1  H12B 7101   1.532   5.658   9.565  0.0202  0.6014 -1.2438
   63CHL1   C11 7102   1.427   5.699   9.744 -0.0366 -0.3358  0.3980
   63CHL1  H11A 7103   1.324   5.731   9.766  1.3290  3.9177  1.4844
   63CHL1  H11B 7104   1.437   5.595   9.784  0.6482 -0.5232 -0.2214
   63CHL1    C9 7105   1.529   5.798   9.809  0.3688  0.5112 -0.2682
   63CHL1    H9 7106   1.627   5.748   9.804  0.8776  1.3459  0.9069
   63CHL1   C10 7107   1.518   5.802   9.964  0.0637  0.9989  0.2339
   63CHL1   C19 7108   1.369   5.810  10.013 -0.6757  0.5448  0.1757
   63CHL1  H19A 7109   1.359   5.796  10.123  0.9631  1.2646  0.4471
   63CHL1  H19B 7110   1.327   5.909   9.989 -1.0376  1.1473  2.9137
   63CHL1  H19C 7111   1.304   5.727   9.977  0.2988 -0.5875  0.9365
   63CHL1    C1 7112   1.584   5.672  10.023  0.2985  0.7831  0.4974
   63CHL1   H1A 7113   1.509   5.596   9.991 -0.4897 -0.0224  3.8887
   63CHL1   H1B 7114   1.682   5.650   9.976  0.6792  1.8348  0.7611
   63CHL1    C2 7115   1.590   5.665  10.176 -0.3834 -0.7165 -0.2163
   63CHL1   H2A 7116   1.647   5.575  10.208  0.8411  0.0215 -0.2474
   63CHL1   H2B 7117   1.486   5.658  10.213  0.2471 -0.6209  1.6992
   63CHL1   C20 7118   1.340   5.844   9.275 -0.0254 -0.0433  0.4500
   63CHL1   H20 7119   1.252   5.903   9.307 -0.9417 -2.5925  3.0764
   63CHL1   C21 7120   1.290   5.704   9.268  0.2975  0.3031 -0.4798
   63CHL1  H21A 7121   1.251   5.674   9.169 -0.2470  0.2992 -0.2695
   63CHL1  H21B 7122   1.218   5.683   9.351 -2.6179 -0.0451 -2.9078
   63CHL1  H21C 7123   1.381   5.647   9.295 -0.6652 -0.7955  0.5840
   63CHL1   C22 7124   1.406   5.877   9.136  0.4056 -0.0529  0.0316
   63CHL1  H22A 7125   1.330   5.857   9.057 -0.2056 -0.8020  0.7869
   63CHL1  H22B 7126   1.425   5.986   9.134  1.1692 -0.1680  0.6693
   63CHL1   C23 7127   1.527   5.790   9.086  0.5599  0.1857 -0.8613
   63CHL1  H23A 7128   1.605   5.805   9.164 -0.2465 -1.1276  0.2454
   63CHL1  H23B 7129   1.502   5.682   9.076  0.9073 -0.1314  1.2505
   63CHL1   C24 7130   1.583   5.851   8.954  0.7593 -0.6554 -0.0337
   63CHL1  H24A 7131   1.501   5.841   8.880  0.6293  0.5636 -0.0667
   63CHL1  H24B 7132   1.603   5.959   8.970 -0.0534 -0.7810  2.2147
   63CHL1   C25 7133   1.707   5.765   8.899 -0.5559  0.1252  0.3629
   63CHL1   H25 7134   1.668   5.661   8.900 -0.3587  0.0219 -1.0788
   63CHL1   C26 7135   1.771   5.812   8.768 -0.6196  0.3671  0.0873
   63CHL1  H26A 7136   1.836   5.901   8.780 -2.5787  1.7660  0.8254
   63CHL1  H26B 7137   1.839   5.733   8.730 -0.5165  1.0986 -1.3292
   63CHL1  H26C 7138   1.689   5.842   8.699 -0.9235 -2.4060 -0.8740
   63CHL1   C27 7139   1.823   5.768   9.000  0.0207 -0.2829 -0.6441
   63CHL1  H27A 7140   1.797   5.735   9.103  0.8059 -2.8477 -1.1899
   63CHL1  H27B 7141   1.909   5.702   8.976  0.5492  0.8591 -2.0334
   63CHL1  H27C 7142   1.858   5.873   9.010  0.2355 -0.4214  0.1549
   64CHL1    C3 7143   6.791   5.721   9.859  0.8554 -0.3014 -0.0360
   64CHL1    H3 7144   6.901   5.734   9.872  1.0007 -0.4772 -0.9832
   64CHL1    O3 7145   6.724   5.695   9.983  0.5112  0.0334 -0.0038
   64CHL1   H3' 7146   6.765   5.753  10.047 -0.9813  1.2778 -0.1063
   64CHL1    C4 7147   6.737   5.851   9.783  0.0895  0.5942 -1.0309
   64CHL1   H4A 7148   6.628   5.852   9.805  0.6379  1.5165  2.0079
   64CHL1   H4B 7149   6.775   5.934   9.846  0.6781 -0.7036  0.3741
   64CHL1    C5 7150   6.760   5.860   9.632  0.1884  0.0539  0.2187
   64CHL1    C6 7151   6.809   5.974   9.580  0.1929  0.3370 -0.3219
   64CHL1    H6 7152   6.824   6.060   9.646 -0.5043 -0.4640  0.9094
   64CHL1    C7 7153   6.834   5.993   9.429 -0.1147  0.2677 -0.5610
   64CHL1   H7A 7154   6.781   6.082   9.389 -0.5151  0.3512  0.1293
   64CHL1   H7B 7155   6.943   6.011   9.414  0.0527  0.0817  0.3231
   64CHL1    C8 7156   6.800   5.868   9.345 -0.7109 -0.0445 -0.6237
   64CHL1    H8 7157   6.690   5.877   9.330 -0.8171 -0.2551  0.0204
   64CHL1   C14 7158   6.877   5.878   9.216 -0.1768 -0.5452  0.3948
   64CHL1   H14 7159   6.986   5.864   9.235 -0.1780 -2.9800 -0.9811
   64CHL1   C15 7160   6.867   6.006   9.130 -0.1863 -0.1678 -0.7249
   64CHL1  H15A 7161   6.761   6.038   9.139 -0.6542 -2.1440  2.9649
   64CHL1  H15B 7162   6.919   6.086   9.186  0.0336  0.1642 -1.3948
   64CHL1   C16 7163   6.923   5.960   8.991 -0.3275  0.2347  0.4561
   64CHL1  H16A 7164   6.852   5.990   8.911  1.1490  0.6613 -0.7528
   64CHL1  H16B 7165   7.023   6.005   8.971 -0.6917  0.3777 -1.2594
   64CHL1   C17 7166   6.930   5.803   9.000 -0.2571 -0.3258 -0.3581
   64CHL1   H17 7167   7.036   5.793   9.032 -0.4150 -0.7344  0.0556
   64CHL1   C13 7168   6.846   5.758   9.120  0.9443 -0.3271 -0.2356
   64CHL1   C18 7169   6.697   5.766   9.073  0.1438 -1.0151  0.1078
   64CHL1  H18A 7170   6.653   5.670   9.038  0.7662 -1.8638  1.5789
   64CHL1  H18B 7171   6.627   5.797   9.153 -1.5711 -0.7905 -1.4161
   64CHL1  H18C 7172   6.683   5.835   8.987  0.5438 -1.5341 -0.3810
   64CHL1   C12 7173   6.876   5.621   9.187  0.2520 -0.2213  0.2793
   64CHL1  H12A 7174   6.832   5.533   9.135 -0.6564  0.6048 -0.3875
   64CHL1  H12B 7175   6.987   5.613   9.188  0.3199  0.5973  1.2581
   64CHL1   C11 7176   6.805   5.613   9.324 -0.3268 -0.5289  0.3060
   64CHL1  H11A 7177   6.695   5.598   9.318 -0.9087  2.0633  2.4931
   64CHL1  H11B 7178   6.828   5.514   9.370 -0.6751 -0.7472  0.0131
   64CHL1    C9 7179   6.830   5.735   9.416  0.1393  0.1801 -0.2568
   64CHL1    H9 7180   6.938   5.744   9.440  0.0889  0.9629 -0.2775
   64CHL1   C10 7181   6.752   5.726   9.553 -0.2785  0.5037 -0.0460
   64CHL1   C19 7182   6.599   5.706   9.531 -0.7438  0.2631 -0.4758
   64CHL1  H19A 7183   6.556   5.687   9.632 -0.4072  0.3787 -0.3065
   64CHL1  H19B 7184   6.548   5.795   9.488  0.8191  2.1490  1.3134
   64CHL1  H19C 7185   6.576   5.612   9.478 -0.6682  0.1354 -0.2850
   64CHL1    C1 7186   6.813   5.603   9.635  0.1086 -0.4148  0.1827
   64CHL1   H1A 7187   6.777   5.519   9.571 -0.6797 -0.1431  0.2519
   64CHL1   H1B 7188   6.923   5.614   9.629  0.0766  0.0241  0.3856
   64CHL1    C2 7189   6.772   5.598   9.781  0.5311  0.1036 -0.2781
   64CHL1   H2A 7190   6.825   5.514   9.831 -0.4421 -0.4330 -0.1287
   64CHL1   H2B 7191   6.666   5.569   9.793 -0.0033  0.7305 -2.8350
   64CHL1   C20 7192   6.919   5.739   8.860 -0.2577 -0.4401 -0.1275
   64CHL1   H20 7193   6.833   5.779   8.801 -0.3797  0.1282  0.4150
   64CHL1   C21 7194   6.902   5.575   8.865 -0.5927 -0.1641  0.1297
   64CHL1  H21A 7195   6.805   5.543   8.909  0.3927 -0.1877  2.4074
   64CHL1  H21B 7196   6.982   5.540   8.934  1.0766  1.7481 -0.7245
   64CHL1  H21C 7197   6.913   5.537   8.761  1.2462 -0.6430  0.4728
   64CHL1   C22 7198   7.041   5.780   8.771 -0.4514 -0.3192  0.0506
   64CHL1  H22A 7199   7.073   5.887   8.768  1.1098 -0.7250  1.0211
   64CHL1  H22B 7200   7.134   5.736   8.814  0.0220 -1.4240 -2.0116
   64CHL1   C23 7201   7.025   5.740   8.623  0.6194  0.7752  0.0873
   64CHL1  H23A 7202   6.994   5.634   8.614  1.1239  0.6011  0.4071
   64CHL1  H23B 7203   6.932   5.793   8.591 -1.5838 -3.3053 -1.0274
   64CHL1   C24 7204   7.134   5.779   8.535  0.0674 -0.6691  0.8088
   64CHL1  H24A 7205   7.157   5.884   8.564 -1.8879 -0.0732  0.3598
   64CHL1  H24B 7206   7.214   5.713   8.575  0.3078  0.2720  1.9539
   64CHL1   C25 7207   7.099   5.778   8.387  0.0728  0.6317  0.2915
   64CHL1   H25 7208   7.025   5.857   8.362  1.8721  1.6119 -2.4373
   64CHL1   C26 7209   7.234   5.805   8.313  0.0079 -0.3800  0.0689
   64CHL1  H26A 7210   7.280   5.904   8.334  1.3005 -0.5155 -1.8757
   64CHL1  H26B 7211   7.313   5.731   8.338  1.7031  1.4508  0.3737
   64CHL1  H26C 7212   7.213   5.796   8.204 -0.5105 -0.9162  0.2079
   64CHL1   C27 7213   7.046   5.643   8.337 -0.0020 -0.9804 -0.1637
   64CHL1  H27A 7214   7.047   5.626   8.227  1.5497  0.3178 -0.3849
   64CHL1  H27B 7215   7.114   5.560   8.366 -0.7296 -1.6731 -0.3874
   64CHL1  H27C 7216   6.942   5.625   8.372  0.6605 -1.0909  1.8600
   65CHL1    C3 7217   3.858   2.145   9.973 -0.4929  1.2947  0.6552
   65CHL1    H3 7218   3.786   2.073   9.931  0.7738  2.1807 -3.5270
   65CHL1    O3 7219   3.840   2.197  10.110  0.2309 -0.2492  0.8167
   65CHL1   H3' 7220   3.789   2.278  10.109 -0.5897 -0.7410 -0.8159
   65CHL1    C4 7221   3.997   2.084   9.958 -0.1243 -0.1330 -0.9569
   65CHL1   H4A 7222   4.065   2.168   9.983 -1.3067  0.7265 -0.5517
   65CHL1   H4B 7223   4.012   2.000  10.029 -2.1525 -0.9804 -1.4564
   65CHL1    C5 7224   4.026   2.043   9.819 -0.2571  0.4749  0.2063
   65CHL1    C6 7225   4.056   1.916   9.787 -0.6546  0.5119 -0.2887
   65CHL1    H6 7226   4.070   1.845   9.870  1.2183  1.0377 -0.1038
   65CHL1    C7 7227   4.084   1.865   9.647 -0.2514 -0.4507 -0.6676
   65CHL1   H7A 7228   4.178   1.807   9.641  0.2849  0.2838  0.1996
   65CHL1   H7B 7229   4.000   1.806   9.606 -2.7850  2.4212 -0.0004
   65CHL1    C8 7230   4.104   1.980   9.542 -0.3975  0.2006  0.1020
   65CHL1    H8 7231   4.206   2.017   9.566  0.4073 -2.7312  1.7464
   65CHL1   C14 7232   4.090   1.929   9.394 -0.0691  0.3391  0.1640
   65CHL1   H14 7233   3.991   1.880   9.381  0.5572 -1.2724  1.1195
   65CHL1   C15 7234   4.194   1.828   9.354 -0.0969  0.1375 -0.2463
   65CHL1  H15A 7235   4.297   1.835   9.396 -0.4575  0.9272  0.5258
   65CHL1  H15B 7236   4.156   1.730   9.389  0.5466  0.1517  0.5199
   65CHL1   C16 7237   4.184   1.836   9.200 -0.2421  0.1287 -0.0454
   65CHL1  H16A 7238   4.282   1.862   9.156  0.4379 -2.1582 -0.0171
   65CHL1  H16B 7239   4.163   1.738   9.151 -0.0256  0.3258 -0.5362
   65CHL1   C17 7240   4.079   1.945   9.155 -0.1298 -0.2152 -0.0538
   65CHL1   H17 7241   3.978   1.900   9.157 -0.0260 -0.6533 -2.4338
   65CHL1   C13 7242   4.080   2.038   9.283 -0.5385  0.8828  0.2426
   65CHL1   C18 7243   4.219   2.109   9.282 -0.0765 -0.1352 -0.2714
   65CHL1  H18A 7244   4.313   2.050   9.272  0.7465  1.0873  0.0920
   65CHL1  H18B 7245   4.221   2.194   9.211 -1.4248 -0.3796 -0.6301
   65CHL1  H18C 7246   4.235   2.158   9.380 -0.1205  2.0564 -1.2925
   65CHL1   C12 7247   3.963   2.132   9.305  0.4526  0.1924  0.9892
   65CHL1  H12A 7248   3.976   2.222   9.240  1.7126 -2.6567 -3.0914
   65CHL1  H12B 7249   3.864   2.087   9.283  0.3179  0.0172  1.8879
   65CHL1   C11 7250   3.963   2.181   9.456  1.1743 -0.1826  0.3306
   65CHL1  H11A 7251   4.041   2.260   9.466  0.2616  0.5581  2.0539
   65CHL1  H11B 7252   3.862   2.225   9.468  1.2756 -0.0155  0.5634
   65CHL1    C9 7253   3.990   2.076   9.569 -0.0970 -0.1724  0.2536
   65CHL1    H9 7254   3.897   2.015   9.577 -1.1539  1.3516  0.0323
   65CHL1   C10 7255   4.000   2.145   9.704 -0.5385  0.1850 -1.1563
   65CHL1   C19 7256   4.110   2.250   9.716 -0.8231 -0.3358  0.4157
   65CHL1  H19A 7257   4.132   2.311   9.626 -0.5683  1.3482  1.5785
   65CHL1  H19B 7258   4.101   2.316   9.804  2.4533  1.6369 -0.5416
   65CHL1  H19C 7259   4.209   2.203   9.735  0.4553  2.0965  0.1333
   65CHL1    C1 7260   3.867   2.219   9.730 -0.1358  0.2816  0.9315
   65CHL1   H1A 7261   3.867   2.304   9.658  2.0199  1.1219  1.8218
   65CHL1   H1B 7262   3.791   2.144   9.702 -0.3686 -0.1152  2.5224
   65CHL1    C2 7263   3.846   2.261   9.870  1.0925 -0.3971 -0.9006
   65CHL1   H2A 7264   3.749   2.313   9.886  1.1168 -0.6755  0.2893
   65CHL1   H2B 7265   3.926   2.334   9.898 -1.2442  2.0113 -0.0110
   65CHL1   C20 7266   4.095   2.016   9.022  0.3438 -0.1819  0.6587
   65CHL1   H20 7267   4.160   2.105   9.032  2.3053 -0.9867 -2.9417
   65CHL1   C21 7268   3.955   2.072   8.966  0.7176  0.3329 -0.2153
   65CHL1  H21A 7269   3.917   2.149   9.035  3.2256  0.9309  0.6027
   65CHL1  H21B 7270   3.887   1.986   8.946  3.4795 -2.1048  0.1434
   65CHL1  H21C 7271   3.965   2.124   8.868  0.2703 -0.3245 -0.6240
   65CHL1   C22 7272   4.153   1.927   8.905  0.8828 -0.8089 -0.1028
   65CHL1  H22A 7273   4.249   1.881   8.938  1.0193  0.5779  1.6448
   65CHL1  H22B 7274   4.077   1.850   8.884 -0.8052  0.8928 -0.5003
   65CHL1   C23 7275   4.163   2.014   8.774 -0.1690  0.3149 -0.4041
   65CHL1  H23A 7276   4.063   2.022   8.726 -0.1267  1.0493 -0.3825
   65CHL1  H23B 7277   4.204   2.113   8.803  3.0976 -1.2399  0.7577
   65CHL1   C24 7278   4.268   1.951   8.672  0.0621  0.0794 -0.1352
   65CHL1  H24A 7279   4.365   1.977   8.718  0.9490 -1.0451 -1.2914
   65CHL1  H24B 7280   4.260   1.840   8.682  1.1287  0.1783  2.4026
   65CHL1   C25 7281   4.258   2.006   8.531 -0.2972 -0.0456  0.8100
   65CHL1   H25 7282   4.234   2.114   8.532 -2.0776 -0.0705 -4.8898
   65CHL1   C26 7283   4.393   1.995   8.453  0.5697  0.4981 -0.1014
   65CHL1  H26A 7284   4.372   2.023   8.348  0.4797 -0.9666 -0.4935
   65CHL1  H26B 7285   4.467   2.067   8.493  0.4155  1.8528 -2.1367
   65CHL1  H26C 7286   4.447   1.897   8.455  0.7842  0.4890 -2.5492
   65CHL1   C27 7287   4.142   1.942   8.457  0.2545 -0.4685  0.3888
   65CHL1  H27A 7288   4.130   1.977   8.353 -1.5737  0.1217  0.7681
   65CHL1  H27B 7289   4.169   1.835   8.444  1.9455  0.0911 -1.1348
   65CHL1  H27C 7290   4.044   1.952   8.509  1.0447  1.0291  1.6842
   66CHL1    C3 7291   1.289   0.679  10.364  0.0889  0.8039 -0.3275
   66CHL1    H3 7292   1.230   0.771  10.343  1.2535  1.8963  0.9947
   66CHL1    O3 7293   1.337   0.688  10.495 -0.2012 -0.1055  0.0151
   66CHL1   H3' 7294   1.261   0.674  10.552  0.7910 -0.5633  1.2873
   66CHL1    C4 7295   1.192   0.561  10.346 -0.1119 -0.0297  0.3423
   66CHL1   H4A 7296   1.244   0.473  10.390  0.4983  0.6083  0.8996
   66CHL1   H4B 7297   1.105   0.586  10.410 -0.0646 -1.1137  0.8619
   66CHL1    C5 7298   1.162   0.538  10.200  0.0826  0.1769  0.5754
   66CHL1    C6 7299   1.034   0.537  10.151  0.8350 -0.0484  0.3378
   66CHL1    H6 7300   0.949   0.549  10.220 -1.3543 -1.5542 -1.9458
   66CHL1    C7 7301   0.998   0.503  10.011 -0.5334  0.2940  0.1151
   66CHL1   H7A 7302   0.927   0.418  10.017 -0.2958 -0.0286 -1.3460
   66CHL1   H7B 7303   0.952   0.586   9.953  0.2298  0.1659 -0.6941
   66CHL1    C8 7304   1.115   0.439   9.933 -0.4779 -0.6513 -0.4082
   66CHL1    H8 7305   1.135   0.335   9.966 -1.2885 -0.9682 -0.8782
   66CHL1   C14 7306   1.082   0.446   9.785 -0.4407  0.6889  0.1544
   66CHL1   H14 7307   1.068   0.553   9.761 -2.5357  0.8249  1.7157
   66CHL1   C15 7308   0.957   0.372   9.747  0.0934  0.2496 -0.4979
   66CHL1  H15A 7309   0.919   0.275   9.786 -0.7362  0.2437 -1.2907
   66CHL1  H15B 7310   0.877   0.447   9.758  1.7562  2.0706 -0.3399
   66CHL1   C16 7311   0.972   0.348   9.594  0.3335 -0.2527 -0.2019
   66CHL1  H16A 7312   0.981   0.239   9.576 -0.0619 -0.3289  0.0355
   66CHL1  H16B 7313   0.878   0.383   9.548  1.4989 -0.2223 -2.7143
   66CHL1   C17 7314   1.114   0.405   9.559 -0.1670  0.0854  0.7816
   66CHL1   H17 7315   1.097   0.511   9.534 -0.2853  0.0471  0.7029
   66CHL1   C13 7316   1.192   0.406   9.693  0.4778 -0.2443  0.1445
   66CHL1   C18 7317   1.242   0.261   9.708  0.4524 -0.1498 -0.5342
   66CHL1  H18A 7318   1.169   0.179   9.691  1.1121 -0.6045 -1.1991
   66CHL1  H18B 7319   1.327   0.234   9.643  2.3028  0.0023  1.6779
   66CHL1  H18C 7320   1.277   0.251   9.813 -0.6349  1.8944  0.0909
   66CHL1   C12 7321   1.308   0.510   9.699 -0.1937  0.0884 -0.1344
   66CHL1  H12A 7322   1.396   0.479   9.639 -0.8393  0.9763 -1.6078
   66CHL1  H12B 7323   1.268   0.609   9.668  0.6423  0.2557 -0.7234
   66CHL1   C11 7324   1.354   0.511   9.849 -0.4361  0.8629  1.3895
   66CHL1  H11A 7325   1.412   0.417   9.860  0.9925  1.5942  0.4796
   66CHL1  H11B 7326   1.428   0.595   9.849  1.1477 -0.4850  1.5541
   66CHL1    C9 7327   1.237   0.529   9.949 -0.5874 -0.1690  0.2963
   66CHL1    H9 7328   1.203   0.632   9.924  0.1409 -0.1376 -0.6237
   66CHL1   C10 7329   1.282   0.529  10.103 -0.1191 -0.5571  0.8163
   66CHL1   C19 7330   1.353   0.402  10.136  0.0546  0.7811 -0.2285
   66CHL1  H19A 7331   1.379   0.394  10.244  0.0429  1.3474 -0.1836
   66CHL1  H19B 7332   1.292   0.313  10.107  1.1996 -0.3533  0.7000
   66CHL1  H19C 7333   1.446   0.387  10.076 -1.6397 -0.9970 -2.6108
   66CHL1    C1 7334   1.375   0.652  10.131 -0.0520  0.2126  0.3522
   66CHL1   H1A 7335   1.463   0.649  10.063 -0.1032  1.6072  0.2106
   66CHL1   H1B 7336   1.320   0.743  10.098 -1.2443 -0.4478  0.4366
   66CHL1    C2 7337   1.416   0.668  10.277  0.6290 -0.5353 -0.0050
   66CHL1   H2A 7338   1.473   0.763  10.284 -2.0140  1.1732 -0.0213
   66CHL1   H2B 7339   1.472   0.581  10.317  0.8917 -0.0612  0.6866
   66CHL1   C20 7340   1.176   0.338   9.440  0.5403 -0.3760  0.5433
   66CHL1   H20 7341   1.204   0.233   9.461  2.7857  0.6006  2.9794
   66CHL1   C21 7342   1.307   0.396   9.382  0.4757 -0.7200 -0.0568
   66CHL1  H21A 7343   1.299   0.505   9.361 -0.1770 -0.4161  1.6235
   66CHL1  H21B 7344   1.337   0.353   9.284 -1.9287 -1.3826 -0.5818
   66CHL1  H21C 7345   1.394   0.379   9.449  1.3960  1.5731 -0.5431
   66CHL1   C22 7346   1.083   0.334   9.314  1.1366 -0.6844  0.0094
   66CHL1  H22A 7347   1.134   0.263   9.245  1.3476  1.3601 -2.0704
   66CHL1  H22B 7348   0.986   0.287   9.343 -0.0089  0.2325 -2.1137
   66CHL1   C23 7349   1.060   0.473   9.237  0.3415  0.6021 -0.1660
   66CHL1  H23A 7350   1.033   0.546   9.317 -0.6226 -0.4086  0.4672
   66CHL1  H23B 7351   1.155   0.509   9.193  0.0458  1.5477 -0.0527
   66CHL1   C24 7352   0.951   0.464   9.131  0.5652 -0.1420  0.5446
   66CHL1  H24A 7353   0.863   0.410   9.173  0.3682  1.2736  2.0906
   66CHL1  H24B 7354   0.910   0.563   9.102  0.5809 -0.5597 -0.9723
   66CHL1   C25 7355   0.990   0.383   9.003  0.1428 -0.1706  0.0017
   66CHL1   H25 7356   1.030   0.287   9.042  0.4438 -0.2716 -0.5469
   66CHL1   C26 7357   0.869   0.350   8.918  1.1099 -0.2670 -0.1088
   66CHL1  H26A 7358   0.804   0.440   8.904  0.4502 -0.2438  2.6039
   66CHL1  H26B 7359   0.907   0.336   8.814 -1.6868 -1.0244 -1.1349
   66CHL1  H26C 7360   0.809   0.265   8.955 -1.9211  1.0769 -1.5333
   66CHL1   C27 7361   1.106   0.446   8.930  0.3333 -0.6609 -0.3930
   66CHL1  H27A 7362   1.129   0.382   8.842  2.8704  0.0098 -0.3144
   66CHL1  H27B 7363   1.075   0.551   8.912  0.7383 -0.1646  1.5005
   66CHL1  H27C 7364   1.200   0.458   8.989  0.4119 -2.8378  0.0308
   67CHL1    C3 7365   6.108   1.123  10.290 -0.7292 -0.3680 -0.4073
   67CHL1    H3 7366   6.218   1.109  10.295 -0.7282 -0.1660  0.1940
   67CHL1    O3 7367   6.061   1.101  10.423  0.8592  0.1182 -0.0068
   67CHL1   H3' 7368   5.966   1.096  10.410  0.9176 -1.1504 -0.0277
   67CHL1    C4 7369   6.100   1.272  10.249  0.2659  0.7092 -0.0572
   67CHL1   H4A 7370   5.995   1.296  10.276 -0.7068 -1.6929 -1.3891
   67CHL1   H4B 7371   6.164   1.327  10.322 -1.5615  0.1734  2.0824
   67CHL1    C5 7372   6.139   1.308  10.111  0.6111  0.8652 -0.5374
   67CHL1    C6 7373   6.218   1.406  10.082  1.1040  0.5149  0.0658
   67CHL1    H6 7374   6.253   1.470  10.164  0.0097  1.8876 -0.4939
   67CHL1    C7 7375   6.263   1.451   9.948  0.2070 -0.3228 -0.0361
   67CHL1   H7A 7376   6.240   1.559   9.933  0.8450 -0.2786 -0.7851
   67CHL1   H7B 7377   6.374   1.450   9.946  0.2937 -0.3300  2.2234
   67CHL1    C8 7378   6.187   1.374   9.831 -0.3504 -0.6075  0.1686
   67CHL1    H8 7379   6.085   1.416   9.814 -0.6450 -0.6028  1.7815
   67CHL1   C14 7380   6.272   1.380   9.705 -0.7205  0.0827  0.4486
   67CHL1   H14 7381   6.368   1.328   9.723 -0.8563 -0.4955 -0.3936
   67CHL1   C15 7382   6.303   1.521   9.659  0.0327 -0.3611 -0.2878
   67CHL1  H15A 7383   6.218   1.590   9.640 -1.7648 -2.7049 -1.1343
   67CHL1  H15B 7384   6.379   1.569   9.725 -1.6531 -0.1557  1.5769
   67CHL1   C16 7385   6.359   1.498   9.517  0.0736  0.1151 -0.1732
   67CHL1  H16A 7386   6.300   1.567   9.454 -1.2428 -0.5450  0.3055
   67CHL1  H16B 7387   6.466   1.527   9.507  0.2570 -0.1220  0.9179
   67CHL1   C17 7388   6.340   1.351   9.483 -0.2468  0.2752 -0.1146
   67CHL1   H17 7389   6.426   1.282   9.494  0.1781  0.6475 -1.0054
   67CHL1   C13 7390   6.224   1.307   9.580 -0.2731 -0.8061 -0.0670
   67CHL1   C18 7391   6.089   1.372   9.532 -0.5133 -0.3876 -0.1244
   67CHL1  H18A 7392   6.100   1.477   9.497  0.3737  0.1482  1.6496
   67CHL1  H18B 7393   6.044   1.306   9.454 -0.6959 -0.0743 -0.2864
   67CHL1  H18C 7394   6.014   1.371   9.614 -1.3369 -1.4329 -0.8497
   67CHL1   C12 7395   6.209   1.160   9.622 -0.0898 -0.3371  0.6253
   67CHL1  H12A 7396   6.174   1.088   9.544  0.8201 -1.0788  0.8834
   67CHL1  H12B 7397   6.310   1.127   9.655  0.3506  0.8505  0.4939
   67CHL1   C11 7398   6.118   1.141   9.747  0.1761  0.9496 -0.2592
   67CHL1  H11A 7399   6.012   1.164   9.721 -0.5647 -2.2236 -0.5731
   67CHL1  H11B 7400   6.115   1.031   9.763 -0.5220  0.9335 -0.4696
   67CHL1    C9 7401   6.169   1.229   9.869  0.3281  0.6341  0.1603
   67CHL1    H9 7402   6.273   1.197   9.890 -0.1712 -0.5285  0.9699
   67CHL1   C10 7403   6.086   1.209  10.002  0.1401  0.1960 -0.6901
   67CHL1   C19 7404   5.936   1.237   9.978 -0.2327 -0.5180 -0.9680
   67CHL1  H19A 7405   5.872   1.212  10.066  0.4366 -2.2453 -0.9372
   67CHL1  H19B 7406   5.912   1.341   9.949 -2.8250 -0.5732  0.5781
   67CHL1  H19C 7407   5.908   1.175   9.891 -2.3767 -1.3518  0.2435
   67CHL1    C1 7408   6.108   1.061  10.048 -0.3213 -0.5667  0.5295
   67CHL1   H1A 7409   6.064   0.997   9.968  1.7908  0.2376 -1.3705
   67CHL1   H1B 7410   6.215   1.031  10.052 -0.5678 -1.3408  2.6212
   67CHL1    C2 7411   6.048   1.029  10.188 -0.2558  0.2450  0.1114
   67CHL1   H2A 7412   6.070   0.925  10.222 -1.6558 -0.2034 -0.3161
   67CHL1   H2B 7413   5.938   1.043  10.193 -0.4239 -0.4835 -1.2583
   67CHL1   C20 7414   6.304   1.326   9.335  0.0337  0.3068  0.7992
   67CHL1   H20 7415   6.208   1.369   9.302  0.0022 -1.4182 -1.6303
   67CHL1   C21 7416   6.296   1.177   9.304  0.3571 -0.7332  0.1847
   67CHL1  H21A 7417   6.205   1.139   9.356  0.1647  1.3513  1.5065
   67CHL1  H21B 7418   6.386   1.130   9.350 -0.5905 -0.3239  2.6411
   67CHL1  H21C 7419   6.275   1.166   9.196 -0.3187 -0.8676  0.3271
   67CHL1   C22 7420   6.401   1.399   9.244 -0.7102  0.2819  0.6452
   67CHL1  H22A 7421   6.404   1.509   9.254 -1.3344  0.2517  1.2238
   67CHL1  H22B 7422   6.502   1.352   9.253 -0.3120  0.9375 -0.2632
   67CHL1   C23 7423   6.360   1.379   9.091 -0.6529  0.2443  0.1569
   67CHL1  H23A 7424   6.357   1.273   9.058  3.0571  0.3216 -0.8386
   67CHL1  H23B 7425   6.255   1.413   9.076 -1.8274 -3.2993 -0.6329
   67CHL1   C24 7426   6.466   1.447   8.997  0.0921  0.2119  0.3067
   67CHL1  H24A 7427   6.481   1.550   9.036  0.3948  0.1491  0.3588
   67CHL1  H24B 7428   6.567   1.403   9.007  0.4531  0.4215 -1.9437
   67CHL1   C25 7429   6.444   1.444   8.846  0.7558 -0.0776 -0.2598
   67CHL1   H25 7430   6.448   1.337   8.816  0.7833 -0.4215  0.9005
   67CHL1   C26 7431   6.300   1.492   8.824 -0.5675 -0.6636 -0.7258
   67CHL1  H26A 7432   6.227   1.427   8.877  0.0264  0.3393  1.4475
   67CHL1  H26B 7433   6.285   1.594   8.866 -0.0660 -0.1716 -1.7242
   67CHL1  H26C 7434   6.281   1.495   8.715  0.5032 -0.9974 -0.9292
   67CHL1   C27 7435   6.541   1.532   8.768 -0.7644 -0.1455 -0.3573
   67CHL1  H27A 7436   6.642   1.494   8.791 -1.0509 -1.0741 -0.5753
   67CHL1  H27B 7437   6.522   1.540   8.659  0.3593  0.2682 -0.5361
   67CHL1  H27C 7438   6.551   1.637   8.802  2.3689 -0.6652  0.6529
   68CHL1    C3 7439   4.057   0.833  10.081 -0.3119  0.1991 -0.1674
   68CHL1    H3 7440   4.165   0.860  10.074 -0.7494  2.0107 -0.4018
   68CHL1    O3 7441   4.012   0.839  10.217 -0.5454  0.1156  0.2273
   68CHL1   H3' 7442   4.001   0.933  10.232 -1.0482  0.2338 -0.8531
   68CHL1    C4 7443   3.995   0.939   9.990  0.3737  0.1126  0.4604
   68CHL1   H4A 7444   3.885   0.928   9.995  0.5612 -2.4779  0.1266
   68CHL1   H4B 7445   4.007   1.044  10.025 -4.0722  1.3715 -1.1747
   68CHL1    C5 7446   4.045   0.917   9.845 -0.7624  0.4639 -0.1903
   68CHL1    C6 7447   4.108   1.014   9.780 -0.0716 -0.2052  0.2683
   68CHL1    H6 7448   4.122   1.114   9.824  0.8143 -1.1017  2.1136
   68CHL1    C7 7449   4.148   0.998   9.634 -0.2933 -0.2695  0.3068
   68CHL1   H7A 7450   4.115   1.089   9.580  0.6239 -0.5877 -0.8389
   68CHL1   H7B 7451   4.258   0.984   9.627 -0.1274 -0.5330  2.6557
   68CHL1    C8 7452   4.090   0.872   9.561  0.2292  0.2699  0.2252
   68CHL1    H8 7453   3.983   0.895   9.542 -0.3293 -1.0788  1.5335
   68CHL1   C14 7454   4.174   0.842   9.434 -0.0244  0.0773 -0.2263
   68CHL1   H14 7455   4.282   0.825   9.454 -0.0897 -0.6687 -0.4781
   68CHL1   C15 7456   4.194   0.960   9.334 -0.0217 -0.8524  0.6641
   68CHL1  H15A 7457   4.098   1.015   9.323 -0.2218 -1.7430 -4.1257
   68CHL1  H15B 7458   4.265   1.035   9.373 -1.4426  0.4456  0.8667
   68CHL1   C16 7459   4.221   0.885   9.202  0.0549  0.1820  0.5407
   68CHL1  H16A 7460   4.150   0.912   9.121  1.7765  0.7004 -0.8837
   68CHL1  H16B 7461   4.321   0.911   9.160  0.7093 -2.3301  0.3455
   68CHL1   C17 7462   4.215   0.728   9.232  0.2185  0.1207 -0.6463
   68CHL1   H17 7463   4.316   0.702   9.271  0.0590  0.0731 -0.2620
   68CHL1   C13 7464   4.129   0.722   9.354  0.1902 -0.1727 -0.1845
   68CHL1   C18 7465   3.981   0.729   9.311  0.6910  0.6300 -0.9343
   68CHL1  H18A 7466   3.960   0.801   9.230 -1.7244 -1.4713 -2.3013
   68CHL1  H18B 7467   3.952   0.630   9.271  1.4696 -0.0707  0.1735
   68CHL1  H18C 7468   3.913   0.755   9.395  2.4340  2.4841 -0.0062
   68CHL1   C12 7469   4.145   0.595   9.444 -0.3453 -0.2844 -0.7042
   68CHL1  H12A 7470   4.102   0.510   9.388 -2.5392  0.1640  0.1946
   68CHL1  H12B 7471   4.252   0.576   9.467 -0.4305 -1.4188 -1.1962
   68CHL1   C11 7472   4.062   0.618   9.575 -0.4301 -0.1146 -0.4803
   68CHL1  H11A 7473   3.952   0.622   9.565 -0.4768  0.8856  0.3193
   68CHL1  H11B 7474   4.088   0.535   9.645 -0.6401  0.1318 -0.1107
   68CHL1    C9 7475   4.100   0.751   9.648 -0.1056  0.3750 -0.3278
   68CHL1    H9 7476   4.208   0.750   9.672 -0.0408  0.8801 -0.5877
   68CHL1   C10 7477   4.024   0.773   9.786 -0.1735  0.8612 -0.7405
   68CHL1   C19 7478   3.866   0.760   9.764  0.2641 -0.0615  0.3361
   68CHL1  H19A 7479   3.823   0.793   9.861  2.3390  2.0326  0.6398
   68CHL1  H19B 7480   3.824   0.828   9.687  0.8521  0.2205  0.2613
   68CHL1  H19C 7481   3.831   0.658   9.738 -0.5493  0.3924 -0.4318
   68CHL1    C1 7482   4.067   0.670   9.891 -0.2697  0.3375  0.2812
   68CHL1   H1A 7483   4.026   0.572   9.857  1.3106 -0.6824  1.1602
   68CHL1   H1B 7484   4.178   0.672   9.885 -0.1608 -0.5373  1.5848
   68CHL1    C2 7485   4.029   0.693  10.032  0.0190 -0.2442  0.3067
   68CHL1   H2A 7486   4.085   0.625  10.101 -0.1441 -0.4043  0.2813
   68CHL1   H2B 7487   3.919   0.698  10.038  0.0325  1.2780 -0.3241
   68CHL1   C20 7488   4.190   0.636   9.117  0.1588  0.3324 -0.6426
   68CHL1   H20 7489   4.142   0.544   9.156  3.1444 -1.7123 -1.4693
   68CHL1   C21 7490   4.329   0.613   9.059  0.7345  0.4032 -0.2041
   68CHL1  H21A 7491   4.374   0.705   9.016 -0.7917  0.7059 -1.2445
   68CHL1  H21B 7492   4.323   0.543   8.973 -0.3068  1.4789 -1.0321
   68CHL1  H21C 7493   4.384   0.565   9.143 -0.4411 -0.9173 -0.1524
   68CHL1   C22 7494   4.099   0.689   8.994 -0.7671  0.2554  0.6109
   68CHL1  H22A 7495   4.008   0.736   9.037 -1.2207  0.8582 -0.9752
   68CHL1  H22B 7496   4.158   0.774   8.954 -1.3599  0.9025  1.0908
   68CHL1   C23 7497   4.047   0.582   8.895 -0.3542 -0.2998 -0.3907
   68CHL1  H23A 7498   4.134   0.516   8.873 -1.0773 -1.1011 -0.8803
   68CHL1  H23B 7499   3.970   0.521   8.947 -1.7165 -1.3981 -3.4767
   68CHL1   C24 7500   3.989   0.658   8.772 -0.0662  0.0299  0.6945
   68CHL1  H24A 7501   3.934   0.749   8.804 -0.8263  0.3898 -1.4679
   68CHL1  H24B 7502   4.079   0.693   8.718 -0.5444 -3.9404 -3.2559
   68CHL1   C25 7503   3.898   0.575   8.683  0.3105  0.0650 -0.3023
   68CHL1   H25 7504   3.937   0.472   8.675  0.1111 -0.0796  0.5124
   68CHL1   C26 7505   3.763   0.569   8.759  0.0273  0.4023 -0.3202
   68CHL1  H26A 7506   3.708   0.666   8.759  0.0987  0.5506  2.7582
   68CHL1  H26B 7507   3.700   0.493   8.707 -1.6384  1.5457 -0.0638
   68CHL1  H26C 7508   3.779   0.558   8.869 -1.7071  0.2004 -0.0478
   68CHL1   C27 7509   3.875   0.638   8.540 -0.1549 -0.4276 -0.4545
   68CHL1  H27A 7510   3.825   0.737   8.538 -0.5090 -0.6087 -2.2139
   68CHL1  H27B 7511   3.971   0.642   8.484  0.0252  1.0676 -0.0877
   68CHL1  H27C 7512   3.807   0.571   8.483 -0.7585 -0.1427 -0.0852
   69CHL1    C3 7513   3.631   4.217   6.707  0.1515  0.2281 -0.1262
   69CHL1    H3 7514   3.534   4.271   6.702 -0.0561 -0.2316 -2.3723
   69CHL1    O3 7515   3.661   4.158   6.580 -0.5317  0.0948  0.2327
   69CHL1   H3' 7516   3.754   4.172   6.562 -0.6991  2.1719  0.7235
   69CHL1    C4 7517   3.728   4.329   6.746 -0.1658 -0.2803 -0.4579
   69CHL1   H4A 7518   3.831   4.297   6.719  0.1525  0.2759  0.0806
   69CHL1   H4B 7519   3.701   4.412   6.676 -0.3496  1.1588  1.2496
   69CHL1    C5 7520   3.715   4.371   6.891  0.6411 -0.3084 -0.2885
   69CHL1    C6 7521   3.710   4.501   6.932  0.3644  0.0165 -0.0347
   69CHL1    H6 7522   3.715   4.585   6.861 -3.2240 -1.2837 -2.0985
   69CHL1    C7 7523   3.706   4.545   7.073  0.3512 -0.4733 -0.4036
   69CHL1   H7A 7524   3.764   4.639   7.084 -0.9437  0.2797  0.2817
   69CHL1   H7B 7525   3.605   4.586   7.096  1.4721  1.5758  1.2455
   69CHL1    C8 7526   3.746   4.432   7.171 -0.1129  0.5400 -0.4030
   69CHL1    H8 7527   3.856   4.416   7.163 -0.3205 -0.0368 -3.9581
   69CHL1   C14 7528   3.712   4.478   7.311  0.1167  0.5051 -0.3489
   69CHL1   H14 7529   3.602   4.493   7.306  0.0078 -0.2217 -0.3053
   69CHL1   C15 7530   3.774   4.609   7.362 -0.0186  0.2578  0.0601
   69CHL1  H15A 7531   3.881   4.609   7.333  0.0400  5.3903 -0.6803
   69CHL1  H15B 7532   3.723   4.704   7.333  0.2764  0.2093 -0.6316
   69CHL1   C16 7533   3.779   4.601   7.519  0.1327  1.1924 -0.3885
   69CHL1  H16A 7534   3.884   4.603   7.556 -0.1708  0.6785  0.5262
   69CHL1  H16B 7535   3.720   4.684   7.563 -2.3647 -0.0855 -1.1044
   69CHL1   C17 7536   3.718   4.458   7.552  0.1005  0.2843 -0.0614
   69CHL1   H17 7537   3.610   4.481   7.564 -0.1405 -0.3883 -0.7855
   69CHL1   C13 7538   3.743   4.378   7.422 -0.1599  0.2090 -0.8771
   69CHL1   C18 7539   3.891   4.329   7.417  0.3653 -0.2593 -1.5689
   69CHL1  H18A 7540   3.915   4.278   7.321  2.1729 -1.4649 -0.5357
   69CHL1  H18B 7541   3.958   4.415   7.437 -0.6775 -0.1382  1.9808
   69CHL1  H18C 7542   3.897   4.251   7.496 -2.2340  1.4864  0.4946
   69CHL1   C12 7543   3.650   4.260   7.399 -0.2489  0.0596 -0.3579
   69CHL1  H12A 7544   3.664   4.175   7.469 -0.3291  0.9100  0.7172
   69CHL1  H12B 7545   3.548   4.302   7.401 -0.8963 -1.3431 -1.8576
   69CHL1   C11 7546   3.672   4.198   7.258  0.8659 -0.1142  1.0414
   69CHL1  H11A 7547   3.776   4.161   7.259  0.8156 -0.3304 -0.3833
   69CHL1  H11B 7548   3.597   4.117   7.244 -0.5393  1.6546 -3.6151
   69CHL1    C9 7549   3.661   4.309   7.143 -0.4755 -0.2000 -0.0115
   69CHL1    H9 7550   3.557   4.346   7.135  0.3525  2.2534 -0.2594
   69CHL1   C10 7551   3.700   4.256   7.000 -0.5983 -0.0696 -0.1980
   69CHL1   C19 7552   3.849   4.194   7.009 -0.0835  0.7587  0.4698
   69CHL1  H19A 7553   3.930   4.261   7.047  1.5099 -1.3415  0.9156
   69CHL1  H19B 7554   3.850   4.093   7.055  0.8204  0.6975  0.3281
   69CHL1  H19C 7555   3.881   4.160   6.908  0.8272  0.5389  0.8277
   69CHL1    C1 7556   3.590   4.166   6.952 -0.2501  0.8555  0.0932
   69CHL1   H1A 7557   3.581   4.069   7.006  1.8600 -1.8987 -3.9829
   69CHL1   H1B 7558   3.494   4.221   6.963  0.8175  2.7268  0.5493
   69CHL1    C2 7559   3.604   4.109   6.811 -0.1550  0.0159  0.3703
   69CHL1   H2A 7560   3.507   4.059   6.789 -1.4410  2.8664 -0.8519
   69CHL1   H2B 7561   3.691   4.040   6.796 -1.3729 -1.2755 -1.0152
   69CHL1   C20 7562   3.777   4.416   7.687 -0.4289  0.1198 -0.1666
   69CHL1   H20 7563   3.887   4.417   7.672 -0.6795 -0.7321 -2.4317
   69CHL1   C21 7564   3.732   4.275   7.728 -0.4033 -0.8780  0.6930
   69CHL1  H21A 7565   3.764   4.200   7.653 -0.6063 -0.4410  0.1575
   69CHL1  H21B 7566   3.625   4.269   7.758 -0.9093 -0.0429 -0.8259
   69CHL1  H21C 7567   3.780   4.244   7.823  2.1445 -0.2443 -0.3159
   69CHL1   C22 7568   3.744   4.519   7.795  0.2877 -0.1104  0.4401
   69CHL1  H22A 7569   3.812   4.607   7.792  0.4953 -0.3053 -1.1591
   69CHL1  H22B 7570   3.642   4.562   7.790  0.2335  0.5506  3.9992
   69CHL1   C23 7571   3.742   4.472   7.943 -0.5103 -0.0106  0.1709
   69CHL1  H23A 7572   3.667   4.390   7.952  0.4185 -0.9210 -0.1117
   69CHL1  H23B 7573   3.842   4.427   7.962  0.5022  1.8713 -0.4408
   69CHL1   C24 7574   3.692   4.576   8.035 -0.2122  0.4760  0.1864
   69CHL1  H24A 7575   3.762   4.662   8.026  1.9725 -1.1562  0.6182
   69CHL1  H24B 7576   3.588   4.609   8.014  0.3418  1.4118 -1.1782
   69CHL1   C25 7577   3.700   4.535   8.182  1.2608  0.1403 -0.2373
   69CHL1   H25 7578   3.624   4.455   8.194  0.1288  1.1853 -0.3040
   69CHL1   C26 7579   3.841   4.496   8.229  0.8885 -0.9953 -0.2224
   69CHL1  H26A 7580   3.858   4.391   8.199 -3.3021 -1.8534 -0.2104
   69CHL1  H26B 7581   3.918   4.567   8.191 -0.6894 -1.2369 -4.4479
   69CHL1  H26C 7582   3.852   4.512   8.338  3.2229 -0.2097 -0.5287
   69CHL1   C27 7583   3.652   4.658   8.263  0.6470 -0.7475  0.2002
   69CHL1  H27A 7584   3.733   4.733   8.247  0.6780 -0.3588  1.9856
   69CHL1  H27B 7585   3.558   4.690   8.214  0.9804  3.2711  1.7958
   69CHL1  H27C 7586   3.652   4.640   8.372  2.2803  0.0571  0.3631
   70CHL1    C3 7587   2.912   2.555   6.888  0.3548 -0.2540  0.4182
   70CHL1    H3 7588   3.009   2.609   6.884 -0.1611  0.7439  0.9945
   70CHL1    O3 7589   2.850   2.558   6.757  0.2375 -0.7309  0.2302
   70CHL1   H3' 7590   2.801   2.641   6.752 -0.2046 -0.8899  1.5215
   70CHL1    C4 7591   2.944   2.408   6.925 -0.2989 -0.6966 -0.2281
   70CHL1   H4A 7592   2.857   2.339   6.916  0.7156 -2.0342 -0.0559
   70CHL1   H4B 7593   3.020   2.376   6.850 -0.6194 -0.0238 -0.8644
   70CHL1    C5 7594   3.001   2.399   7.067  0.3165 -0.3122 -0.2133
   70CHL1    C6 7595   3.123   2.347   7.101  0.1507  0.0593 -0.0415
   70CHL1    H6 7596   3.173   2.288   7.022 -0.5431 -0.4265 -0.1353
   70CHL1    C7 7597   3.180   2.348   7.241  0.4455  0.3186  0.1998
   70CHL1   H7A 7598   3.230   2.250   7.260  1.4919  0.7739 -0.1525
   70CHL1   H7B 7599   3.261   2.423   7.233 -0.7625  1.4908 -1.9495
   70CHL1    C8 7600   3.077   2.372   7.350  0.4635  0.5466  0.2339
   70CHL1    H8 7601   3.013   2.284   7.369  1.6040 -0.4226 -0.3115
   70CHL1   C14 7602   3.150   2.400   7.475 -0.4065 -0.4134 -0.5848
   70CHL1   H14 7603   3.203   2.497   7.460 -1.6050  0.0742 -1.8022
   70CHL1   C15 7604   3.251   2.292   7.522 -0.5982 -0.1839 -0.0417
   70CHL1  H15A 7605   3.218   2.186   7.517  1.2092 -0.7283 -1.6032
   70CHL1  H15B 7606   3.348   2.305   7.469  0.8688 -1.2643  2.2129
   70CHL1   C16 7607   3.275   2.323   7.670  0.3466 -0.3973  0.5466
   70CHL1  H16A 7608   3.249   2.236   7.734 -0.4030 -1.3453 -0.9757
   70CHL1  H16B 7609   3.379   2.360   7.681  0.5550 -1.2320  1.5442
   70CHL1   C17 7610   3.182   2.444   7.703  0.2510  0.6565  0.4231
   70CHL1   H17 7611   3.239   2.536   7.680 -0.2722  0.6732 -0.9281
   70CHL1   C13 7612   3.071   2.433   7.601  0.1175 -0.1533 -0.1612
   70CHL1   C18 7613   2.975   2.321   7.640  0.2947  0.3920 -0.0450
   70CHL1  H18A 7614   2.904   2.358   7.717 -3.0738  0.6920 -3.0381
   70CHL1  H18B 7615   2.912   2.303   7.551 -2.2253  0.3064  1.6572
   70CHL1  H18C 7616   3.023   2.225   7.667 -0.3297 -0.5422 -2.1090
   70CHL1   C12 7617   2.997   2.567   7.567  0.1976  0.0936  0.5532
   70CHL1  H12A 7618   2.936   2.599   7.654  0.4519  0.3797  0.6275
   70CHL1  H12B 7619   3.069   2.650   7.549 -0.5893  0.5115 -0.7946
   70CHL1   C11 7620   2.911   2.549   7.431 -0.6173 -0.0278  0.7708
   70CHL1  H11A 7621   2.828   2.478   7.452  0.0321 -1.6121 -1.6289
   70CHL1  H11B 7622   2.883   2.651   7.397  1.3335  1.5650  3.5443
   70CHL1    C9 7623   2.998   2.491   7.315 -0.0845 -0.6062  0.6007
   70CHL1    H9 7624   3.077   2.566   7.293  0.0360 -0.3191  1.9426
   70CHL1   C10 7625   2.920   2.478   7.174 -0.5841 -0.0758 -0.5770
   70CHL1   C19 7626   2.796   2.404   7.209 -0.4978  0.8580 -0.2758
   70CHL1  H19A 7627   2.825   2.313   7.265 -0.1397 -0.1456 -1.9901
   70CHL1  H19B 7628   2.726   2.464   7.271  0.2177  1.8164 -0.3664
   70CHL1  H19C 7629   2.738   2.348   7.132  0.0416  0.1278 -0.1636
   70CHL1    C1 7630   2.877   2.617   7.126 -0.1060 -0.0005 -0.4426
   70CHL1   H1A 7631   2.808   2.675   7.191  1.0891  2.9791 -1.6232
   70CHL1   H1B 7632   2.964   2.686   7.119 -0.3912  0.4105 -0.0268
   70CHL1    C2 7633   2.811   2.618   6.984 -0.1338 -0.4657 -0.1770
   70CHL1   H2A 7634   2.785   2.721   6.949  0.3432 -0.7716 -1.4971
   70CHL1   H2B 7635   2.714   2.564   6.986  0.4138 -1.5566  3.3131
   70CHL1   C20 7636   3.157   2.444   7.846  0.0115 -0.4187  0.0844
   70CHL1   H20 7637   3.083   2.364   7.867 -3.1715  2.4125  0.6116
   70CHL1   C21 7638   3.089   2.575   7.897 -0.0286 -0.5028  0.3586
   70CHL1  H21A 7639   3.152   2.657   7.856 -0.0086 -1.0706 -0.7690
   70CHL1  H21B 7640   3.090   2.573   8.008  0.6936 -1.1467  0.3517
   70CHL1  H21C 7641   2.982   2.573   7.868 -0.3911 -2.3297  1.6080
   70CHL1   C22 7642   3.286   2.425   7.933  0.2012 -0.3037  1.1632
   70CHL1  H22A 7643   3.240   2.410   8.033  2.1700  0.4908  2.2499
   70CHL1  H22B 7644   3.334   2.328   7.905  1.4834  0.5091  0.4596
   70CHL1   C23 7645   3.400   2.536   7.931  0.5252  1.0876  0.1165
   70CHL1  H23A 7646   3.409   2.544   7.820 -0.8283 -0.0139 -0.1001
   70CHL1  H23B 7647   3.352   2.631   7.961 -0.0894  1.2168 -1.2205
   70CHL1   C24 7648   3.526   2.491   8.009  0.2095  0.0889 -0.2154
   70CHL1  H24A 7649   3.511   2.506   8.118  0.1837 -2.8526  0.2617
   70CHL1  H24B 7650   3.538   2.382   7.993 -0.8137  0.1023 -1.1254
   70CHL1   C25 7651   3.653   2.570   7.970  0.0708  0.3827 -0.1059
   70CHL1   H25 7652   3.627   2.678   7.977 -0.8013  0.4203 -2.7682
   70CHL1   C26 7653   3.767   2.540   8.071 -0.2876 -0.6306  0.5667
   70CHL1  H26A 7654   3.854   2.600   8.039 -0.9871 -0.3994 -0.9702
   70CHL1  H26B 7655   3.734   2.562   8.175 -2.0565  1.2089 -0.3166
   70CHL1  H26C 7656   3.799   2.433   8.066 -1.3451 -0.8908 -2.6745
   70CHL1   C27 7657   3.693   2.535   7.833  0.3930 -0.2424  0.2115
   70CHL1  H27A 7658   3.609   2.563   7.767  2.3716  2.5378 -1.3302
   70CHL1  H27B 7659   3.785   2.591   7.804 -0.7306  2.9457  2.2304
   70CHL1  H27C 7660   3.703   2.425   7.825 -1.8231 -0.4815  0.1107
   71CHL1    C3 7661   1.594   3.607   6.715 -0.2783  0.4366 -0.1011
   71CHL1    H3 7662   1.509   3.565   6.657  0.4569 -0.4612 -0.5618
   71CHL1    O3 7663   1.701   3.650   6.628 -0.5794 -0.0575  0.2572
   71CHL1   H3' 7664   1.761   3.576   6.618 -0.6392  0.0341 -0.8036
   71CHL1    C4 7665   1.537   3.729   6.781 -0.1038 -0.5802 -0.4182
   71CHL1   H4A 7666   1.621   3.794   6.813  0.3697  0.0173 -2.7043
   71CHL1   H4B 7667   1.484   3.793   6.708  2.4353  2.1111 -0.0665
   71CHL1    C5 7668   1.441   3.698   6.895 -0.2414 -0.1704 -0.0390
   71CHL1    C6 7669   1.311   3.741   6.902 -0.1650 -0.1501 -0.2148
   71CHL1    H6 7670   1.276   3.806   6.820 -0.7896 -0.5380 -0.2533
   71CHL1    C7 7671   1.225   3.729   7.031  0.5512  0.0130 -0.0720
   71CHL1   H7A 7672   1.188   3.829   7.061 -0.1740 -0.5218  0.8682
   71CHL1   H7B 7673   1.137   3.665   7.010  1.4620 -1.0779 -0.6625
   71CHL1    C8 7674   1.309   3.677   7.152  0.1952  0.0917 -0.5711
   71CHL1    H8 7675   1.376   3.760   7.183 -0.9640  1.8137 -2.4285
   71CHL1   C14 7676   1.215   3.626   7.257 -0.1148  0.1130  0.0098
   71CHL1   H14 7677   1.157   3.541   7.216  0.1600 -0.2798  0.4288
   71CHL1   C15 7678   1.099   3.726   7.298  0.0163  0.4923  0.3225
   71CHL1  H15A 7679   1.156   3.819   7.316  0.6491  0.2501 -0.3635
   71CHL1  H15B 7680   1.020   3.743   7.221 -1.4765 -0.2206  1.6174
   71CHL1   C16 7681   1.048   3.670   7.431  0.0030  0.5352 -0.3823
   71CHL1  H16A 7682   1.065   3.758   7.497 -3.5144  0.6490  0.5724
   71CHL1  H16B 7683   0.939   3.656   7.416  0.0373  1.0809 -1.1820
   71CHL1   C17 7684   1.141   3.549   7.462  0.2282  0.1539  0.1658
   71CHL1   H17 7685   1.091   3.456   7.428 -0.0856  0.2393  0.3793
   71CHL1   C13 7686   1.272   3.571   7.386 -0.3902  0.0664  0.5345
   71CHL1   C18 7687   1.369   3.670   7.452 -0.2206  0.1436 -0.4733
   71CHL1  H18A 7688   1.323   3.768   7.476  0.7372  0.3426  0.6688
   71CHL1  H18B 7689   1.411   3.626   7.545 -1.9415 -1.2235 -0.2789
   71CHL1  H18C 7690   1.454   3.700   7.387 -2.6818  2.1368 -2.9974
   71CHL1   C12 7691   1.354   3.452   7.343  0.0786  0.7368  0.7199
   71CHL1  H12A 7692   1.425   3.421   7.423  0.1401  1.2346  0.8616
   71CHL1  H12B 7693   1.289   3.368   7.313  1.1916  0.5987 -1.4410
   71CHL1   C11 7694   1.451   3.480   7.216  0.8552  1.0457 -0.1382
   71CHL1  H11A 7695   1.537   3.520   7.274  0.0056 -1.2461  2.9815
   71CHL1  H11B 7696   1.488   3.378   7.192  0.7761  0.7774  0.8266
   71CHL1    C9 7697   1.391   3.558   7.100 -0.2549 -0.4732  0.1129
   71CHL1    H9 7698   1.329   3.482   7.047  0.0586 -0.2666 -0.5678
   71CHL1   C10 7699   1.503   3.597   6.997 -0.3537 -0.3443  0.0528
   71CHL1   C19 7700   1.620   3.667   7.069  0.2419 -0.3659  0.1080
   71CHL1  H19A 7701   1.681   3.593   7.126  1.9501  0.3954 -0.6790
   71CHL1  H19B 7702   1.685   3.725   7.001  0.9527 -0.9380  0.2850
   71CHL1  H19C 7703   1.586   3.739   7.147  1.9151  0.0195  0.5272
   71CHL1    C1 7704   1.548   3.470   6.922 -0.2404 -0.0317  0.5968
   71CHL1   H1A 7705   1.599   3.404   6.995  0.2865  0.4505  0.6751
   71CHL1   H1B 7706   1.454   3.419   6.892 -0.1770  0.0778  0.2021
   71CHL1    C2 7707   1.645   3.505   6.811 -0.6545 -0.3305 -0.1207
   71CHL1   H2A 7708   1.681   3.416   6.755  2.7509  0.2250  0.9248
   71CHL1   H2B 7709   1.739   3.548   6.853  0.3012  0.3376 -2.7524
   71CHL1   C20 7710   1.160   3.521   7.613  0.6648  0.1149 -0.2016
   71CHL1   H20 7711   1.229   3.596   7.658  1.3628 -1.0085  0.6290
   71CHL1   C21 7712   1.229   3.385   7.633 -0.0326  0.5773 -0.0614
   71CHL1  H21A 7713   1.339   3.400   7.628  0.0025  0.3575  0.0425
   71CHL1  H21B 7714   1.207   3.308   7.557  0.5552  0.4582 -0.1121
   71CHL1  H21C 7715   1.193   3.334   7.725 -0.6597  0.3356 -0.4350
   71CHL1   C22 7716   1.018   3.522   7.685 -0.5865  0.2930  0.7729
   71CHL1  H22A 7717   0.988   3.625   7.657 -0.6754 -0.5220 -2.6560
   71CHL1  H22B 7718   0.951   3.456   7.626 -0.7042  1.5056 -0.5296
   71CHL1   C23 7719   0.999   3.499   7.833 -0.0245  0.1757 -0.1833
   71CHL1  H23A 7720   0.899   3.542   7.854 -0.4903 -0.1733 -1.5701
   71CHL1  H23B 7721   0.996   3.394   7.868  0.3224  0.9951  2.5883
   71CHL1   C24 7722   1.095   3.585   7.916 -1.3384 -0.5956  0.5454
   71CHL1  H24A 7723   1.195   3.535   7.912 -1.0367 -0.1835  2.2789
   71CHL1  H24B 7724   1.107   3.684   7.868  0.8461 -0.8609  0.4392
   71CHL1   C25 7725   1.053   3.606   8.055 -0.8578 -1.0128  0.3373
   71CHL1   H25 7726   0.942   3.609   8.063 -0.8723 -2.4527  0.8460
   71CHL1   C26 7727   1.097   3.493   8.150 -0.4742  0.0645 -0.4930
   71CHL1  H26A 7728   1.054   3.505   8.252  1.1613 -0.5594  0.3030
   71CHL1  H26B 7729   1.054   3.398   8.111 -2.3080  0.1642  1.1153
   71CHL1  H26C 7730   1.208   3.484   8.157 -0.4624 -0.6501 -1.4237
   71CHL1   C27 7731   1.100   3.740   8.106  0.7287 -0.5214 -0.3023
   71CHL1  H27A 7732   1.077   3.815   8.027  0.8058  0.4586  0.5882
   71CHL1  H27B 7733   1.047   3.789   8.191  1.1524 -0.7393  0.0872
   71CHL1  H27C 7734   1.207   3.758   8.129  0.3339  0.6625  0.7283
   72CHL1    C3 7735   2.368   2.566   7.031  0.1246  0.0728  0.5663
   72CHL1    H3 7736   2.473   2.567   6.995 -0.6706 -0.5512 -1.9596
   72CHL1    O3 7737   2.282   2.628   6.935 -0.1690 -0.7058  0.0793
   72CHL1   H3' 7738   2.194   2.611   6.969 -0.6975  0.6031 -0.5807
   72CHL1    C4 7739   2.329   2.416   7.047 -0.3128  0.5000 -0.8597
   72CHL1   H4A 7740   2.219   2.398   7.049 -0.2221 -0.1513 -1.2021
   72CHL1   H4B 7741   2.369   2.382   6.949  0.2332  2.1981 -1.2531
   72CHL1    C5 7742   2.392   2.355   7.169  0.4199 -0.4011  0.4138
   72CHL1    C6 7743   2.454   2.235   7.160 -0.1932  0.7381 -0.0707
   72CHL1    H6 7744   2.448   2.183   7.063 -0.9741  1.9801 -0.7083
   72CHL1    C7 7745   2.533   2.170   7.274 -0.5659 -0.1144 -0.4287
   72CHL1   H7A 7746   2.528   2.059   7.269 -1.7878 -0.2021  1.4875
   72CHL1   H7B 7747   2.638   2.202   7.289 -0.5653 -0.8227  1.3607
   72CHL1    C8 7748   2.472   2.217   7.413  0.0214  0.6390  0.0264
   72CHL1    H8 7749   2.370   2.173   7.408  0.5235 -0.7127  1.1972
   72CHL1   C14 7750   2.559   2.162   7.530  0.2027 -0.5527 -0.3320
   72CHL1   H14 7751   2.657   2.211   7.509 -0.2353  1.2939  1.5921
   72CHL1   C15 7752   2.579   2.013   7.547  0.6238  0.5386 -0.3830
   72CHL1  H15A 7753   2.487   1.961   7.514  0.6961  0.8676 -1.1289
   72CHL1  H15B 7754   2.651   1.979   7.469  2.0154 -0.4145  1.2757
   72CHL1   C16 7755   2.615   1.986   7.693  0.2752 -0.6601  0.0017
   72CHL1  H16A 7756   2.528   1.936   7.742  0.1571  0.2501  0.7493
   72CHL1  H16B 7757   2.698   1.913   7.695 -0.5961 -1.7103 -0.7822
   72CHL1   C17 7758   2.629   2.132   7.755 -0.0713 -0.0176 -0.8022
   72CHL1   H17 7759   2.733   2.169   7.741  0.7289 -1.1034  1.6297
   72CHL1   C13 7760   2.527   2.211   7.669  0.4026  0.6127  0.1091
   72CHL1   C18 7761   2.383   2.179   7.709  0.3013 -0.7615 -0.2171
   72CHL1  H18A 7762   2.325   2.222   7.624 -0.3666  1.7988  1.4385
   72CHL1  H18B 7763   2.359   2.070   7.711  0.2560 -0.7519 -0.2334
   72CHL1  H18C 7764   2.351   2.208   7.811 -2.7446  0.8809 -1.5106
   72CHL1   C12 7765   2.542   2.368   7.659 -0.5010  0.6353  0.2868
   72CHL1  H12A 7766   2.531   2.416   7.759  2.3829  0.5587  0.7147
   72CHL1  H12B 7767   2.646   2.398   7.634 -0.1242  0.2273  1.3105
   72CHL1   C11 7768   2.448   2.436   7.557  0.4546 -0.1844 -0.2899
   72CHL1  H11A 7769   2.342   2.433   7.590  0.2920 -0.1829 -0.8109
   72CHL1  H11B 7770   2.475   2.543   7.539 -3.8449  0.8854 -1.7507
   72CHL1    C9 7771   2.460   2.371   7.416  0.1055  0.8729  0.4230
   72CHL1    H9 7772   2.563   2.400   7.384  0.6348 -2.3034 -1.2483
   72CHL1   C10 7773   2.376   2.435   7.299 -0.4048  0.1806  0.5354
   72CHL1   C19 7774   2.234   2.436   7.346  0.4612 -0.3136 -0.3548
   72CHL1  H19A 7775   2.222   2.502   7.434 -0.2125 -2.5676  1.3409
   72CHL1  H19B 7776   2.171   2.477   7.264  0.7909  1.8745  0.4445
   72CHL1  H19C 7777   2.211   2.329   7.369 -0.2692 -0.0708  0.0828
   72CHL1    C1 7778   2.426   2.577   7.273 -0.8473  0.3875  0.2815
   72CHL1   H1A 7779   2.396   2.634   7.364 -2.6239 -1.4586  0.9471
   72CHL1   H1B 7780   2.535   2.590   7.259 -0.4718  1.7401  3.4393
   72CHL1    C2 7781   2.350   2.649   7.165 -0.2346  0.3257 -0.0012
   72CHL1   H2A 7782   2.393   2.749   7.144 -0.8227  0.5654 -0.0835
   72CHL1   H2B 7783   2.243   2.659   7.194  0.1197 -2.4520  2.8417
   72CHL1   C20 7784   2.599   2.130   7.910  0.4177  0.2949  0.4605
   72CHL1   H20 7785   2.502   2.080   7.930  1.3389 -1.8743 -0.1588
   72CHL1   C21 7786   2.593   2.278   7.967  0.2496 -0.6434 -0.3466
   72CHL1  H21A 7787   2.676   2.339   7.927  1.9819 -1.2077  2.1125
   72CHL1  H21B 7788   2.600   2.285   8.078 -1.3212  1.1224 -0.3107
   72CHL1  H21C 7789   2.490   2.312   7.943 -0.6529 -1.8202  1.5440
   72CHL1   C22 7790   2.704   2.046   7.978  0.4411 -0.1509 -0.2288
   72CHL1  H22A 7791   2.680   2.060   8.085 -0.9950  0.8790 -0.6401
   72CHL1  H22B 7792   2.674   1.944   7.946  0.5334 -0.5512  0.9243
   72CHL1   C23 7793   2.850   2.087   7.966  0.2533  0.0882 -0.3741
   72CHL1  H23A 7794   2.902   2.018   7.897  1.4433 -1.1092  1.6517
   72CHL1  H23B 7795   2.870   2.182   7.912  0.9832  0.4454  0.4998
   72CHL1   C24 7796   2.923   2.094   8.102 -0.1495 -0.7215 -0.2319
   72CHL1  H24A 7797   2.906   2.000   8.159 -0.2508  0.8985  2.5976
   72CHL1  H24B 7798   3.029   2.102   8.070 -0.4833  0.4988 -1.0849
   72CHL1   C25 7799   2.896   2.213   8.192 -0.2391  0.1736 -0.4489
   72CHL1   H25 7800   2.787   2.222   8.208 -0.0666 -0.0783  1.1040
   72CHL1   C26 7801   2.951   2.169   8.328 -0.1106 -0.3733  0.3343
   72CHL1  H26A 7802   2.882   2.090   8.363  0.5344 -1.6358 -1.0994
   72CHL1  H26B 7803   3.057   2.138   8.315  0.0535  0.6675 -0.9727
   72CHL1  H26C 7804   2.953   2.254   8.399  1.8532  1.7136 -2.0374
   72CHL1   C27 7805   2.965   2.344   8.148 -0.2381 -0.5107 -0.3929
   72CHL1  H27A 7806   2.976   2.413   8.235  0.7966 -3.2792  1.8167
   72CHL1  H27B 7807   3.058   2.326   8.090  0.4917  4.5570 -1.2643
   72CHL1  H27C 7808   2.897   2.394   8.075 -1.5150 -0.1449  0.9836
   73CHL1    C3 7809   3.852   5.035   6.960 -0.5979 -0.2886 -0.2110
   73CHL1    H3 7810   3.743   5.025   6.978 -1.0507  0.7344 -2.0425
   73CHL1    O3 7811   3.877   5.063   6.823  0.4375  0.0031 -0.4734
   73CHL1   H3' 7812   3.964   5.028   6.802  0.3185 -0.0252 -0.9243
   73CHL1    C4 7813   3.904   5.158   7.045 -0.6148  0.5690  1.2666
   73CHL1   H4A 7814   3.992   5.200   6.992 -1.5081 -1.1232 -1.8102
   73CHL1   H4B 7815   3.834   5.243   7.031 -2.1036 -0.5033  1.9092
   73CHL1    C5 7816   3.944   5.150   7.193 -0.5023  0.3159 -0.7237
   73CHL1    C6 7817   3.917   5.250   7.280 -0.5817 -0.2898 -0.1673
   73CHL1    H6 7818   3.875   5.347   7.251  0.8931  1.4953  2.9951
   73CHL1    C7 7819   3.938   5.237   7.425  0.2206 -0.0342  0.7074
   73CHL1   H7A 7820   3.991   5.318   7.479  3.8016 -2.4283  1.1665
   73CHL1   H7B 7821   3.831   5.239   7.457 -0.6082 -2.0022 -1.6214
   73CHL1    C8 7822   4.016   5.113   7.474  0.3988  0.5035 -0.2501
   73CHL1    H8 7823   4.119   5.137   7.439  0.3960 -0.8260 -1.2913
   73CHL1   C14 7824   3.999   5.080   7.619  0.0358 -0.1024  0.1417
   73CHL1   H14 7825   3.895   5.042   7.636  0.0939 -0.9344 -1.2548
   73CHL1   C15 7826   4.009   5.198   7.724  0.1357  0.3484  0.5051
   73CHL1  H15A 7827   4.090   5.268   7.691  2.6606 -3.2265 -1.5177
   73CHL1  H15B 7828   3.915   5.256   7.729 -0.7650 -1.0486  0.0724
   73CHL1   C16 7829   4.039   5.128   7.858  0.2264  0.2369 -0.4171
   73CHL1  H16A 7830   4.128   5.172   7.908 -0.1319 -0.1169  0.5630
   73CHL1  H16B 7831   3.953   5.133   7.929  2.6434 -1.2524  2.9192
   73CHL1   C17 7832   4.052   4.974   7.825  0.9023  0.5316  0.3130
   73CHL1   H17 7833   3.945   4.942   7.821  1.1086 -0.0671 -1.5858
   73CHL1   C13 7834   4.083   4.969   7.668 -0.5963  0.1300  0.2077
   73CHL1   C18 7835   4.232   4.993   7.636 -0.3933  0.0112  0.5735
   73CHL1  H18A 7836   4.293   4.901   7.655 -0.4358 -0.4157 -1.2291
   73CHL1  H18B 7837   4.245   5.039   7.536 -0.4996  0.9450  0.9840
   73CHL1  H18C 7838   4.253   5.076   7.707 -3.4941 -0.2471  1.9604
   73CHL1   C12 7839   4.043   4.836   7.601  0.1018  0.3020  0.2103
   73CHL1  H12A 7840   4.102   4.747   7.631  0.3350  0.8181  1.3129
   73CHL1  H12B 7841   3.938   4.818   7.629 -0.3060  2.0592 -0.0530
   73CHL1   C11 7842   4.048   4.858   7.444 -0.6244  0.1042 -0.6058
   73CHL1  H11A 7843   4.156   4.854   7.418 -0.4026 -0.4415  0.3458
   73CHL1  H11B 7844   4.000   4.769   7.398  0.3790 -0.7162 -0.1229
   73CHL1    C9 7845   3.978   4.988   7.397  1.1704  0.0542  0.4985
   73CHL1    H9 7846   3.868   4.975   7.408  1.3444 -4.0670 -0.8107
   73CHL1   C10 7847   3.998   5.011   7.245 -0.0231  0.4950  0.5972
   73CHL1   C19 7848   4.149   5.003   7.203  0.3958 -0.1827  0.6381
   73CHL1  H19A 7849   4.156   4.896   7.175 -1.2095 -1.0774  3.2713
   73CHL1  H19B 7850   4.161   5.056   7.106 -0.5295 -0.6535  0.2555
   73CHL1  H19C 7851   4.222   5.041   7.278  1.9605 -1.1278 -0.3305
   73CHL1    C1 7852   3.915   4.908   7.164  0.0532  0.1752 -0.4182
   73CHL1   H1A 7853   3.957   4.807   7.183 -0.3609 -0.4230 -2.4290
   73CHL1   H1B 7854   3.812   4.897   7.204  0.6142 -0.8810  0.8072
   73CHL1    C2 7855   3.923   4.912   7.008  0.0039 -0.2684  0.5666
   73CHL1   H2A 7856   3.856   4.827   6.984 -0.4014 -0.1437  1.2314
   73CHL1   H2B 7857   4.021   4.895   6.959 -1.4233 -0.7300 -2.2832
   73CHL1   C20 7858   4.138   4.884   7.916 -0.1684 -0.2541 -0.2398
   73CHL1   H20 7859   4.157   4.791   7.858 -1.6651 -0.3367 -0.6314
   73CHL1   C21 7860   4.057   4.843   8.038 -0.0850  0.3596 -0.0877
   73CHL1  H21A 7861   4.113   4.762   8.090 -0.3328 -0.1710 -0.6283
   73CHL1  H21B 7862   3.962   4.790   8.017 -0.3509  0.9684 -0.4487
   73CHL1  H21C 7863   4.032   4.929   8.103  2.2575  1.0471 -0.0116
   73CHL1   C22 7864   4.272   4.949   7.958  0.8251 -0.1118 -0.0975
   73CHL1  H22A 7865   4.314   5.003   7.870 -2.3784 -0.3915 -1.9428
   73CHL1  H22B 7866   4.250   5.033   8.027 -1.3402 -0.2190 -0.6007
   73CHL1   C23 7867   4.376   4.847   8.009 -0.4342 -0.1408  0.6439
   73CHL1  H23A 7868   4.330   4.809   8.102 -0.5548 -1.2635  0.1448
   73CHL1  H23B 7869   4.392   4.758   7.944 -0.5140 -0.7670  1.4595
   73CHL1   C24 7870   4.508   4.912   8.051 -0.1519 -0.2462  0.7923
   73CHL1  H24A 7871   4.531   4.989   7.974 -0.4702 -1.6788 -0.8127
   73CHL1  H24B 7872   4.501   4.969   8.145 -0.3711  0.0445  0.5991
   73CHL1   C25 7873   4.619   4.811   8.044 -0.1784 -0.7762  0.9846
   73CHL1   H25 7874   4.623   4.755   7.948  3.5452  0.7731  0.0763
   73CHL1   C26 7875   4.760   4.876   8.071 -0.1043  0.1097  0.3607
   73CHL1  H26A 7876   4.799   4.935   7.985  3.4120 -1.1426  0.8991
   73CHL1  H26B 7877   4.752   4.950   8.153  0.1843  1.3232 -0.6777
   73CHL1  H26C 7878   4.841   4.804   8.096  1.3587  0.7888 -2.0570
   73CHL1   C27 7879   4.603   4.713   8.158  0.2184  0.5883 -0.3573
   73CHL1  H27A 7880   4.626   4.772   8.249 -0.5996  0.1170  0.1641
   73CHL1  H27B 7881   4.497   4.682   8.171 -0.4079  2.8497  0.3421
   73CHL1  H27C 7882   4.658   4.617   8.147 -1.1769 -0.2385 -0.3445
   74CHL1    C3 7883   2.134   4.594   6.965 -0.6785  0.4591 -0.0551
   74CHL1    H3 7884   2.036   4.622   7.010 -0.7618 -1.0571  0.7772
   74CHL1    O3 7885   2.127   4.649   6.838 -0.0871  0.1559  0.4280
   74CHL1   H3' 7886   2.216   4.680   6.817 -0.5873 -0.0173 -2.3010
   74CHL1    C4 7887   2.252   4.661   7.046 -0.1236 -0.5561 -0.7218
   74CHL1   H4A 7888   2.349   4.633   6.999  0.4387 -1.2323  0.7643
   74CHL1   H4B 7889   2.249   4.772   7.040  2.3166 -0.3029  0.9523
   74CHL1    C5 7890   2.248   4.607   7.186  0.4073 -0.1577  0.0734
   74CHL1    C6 7891   2.220   4.691   7.283 -0.3664  0.0287 -0.1953
   74CHL1    H6 7892   2.204   4.795   7.252 -0.8433  0.4610  1.4180
   74CHL1    C7 7893   2.202   4.648   7.426 -0.1607 -0.5358  0.3802
   74CHL1   H7A 7894   2.249   4.718   7.499  1.3840 -2.7190  1.6135
   74CHL1   H7B 7895   2.092   4.646   7.441 -0.6457  1.8809 -1.9502
   74CHL1    C8 7896   2.249   4.500   7.451  0.3395 -0.7452 -0.3376
   74CHL1    H8 7897   2.360   4.503   7.458  0.2961 -0.9273  0.5259
   74CHL1   C14 7898   2.195   4.451   7.588 -0.7373 -0.4895  0.4584
   74CHL1   H14 7899   2.085   4.448   7.576 -0.7956  1.5908  0.0034
   74CHL1   C15 7900   2.212   4.540   7.712 -0.4660 -0.1854 -0.6780
   74CHL1  H15A 7901   2.315   4.582   7.715 -0.4289 -0.3069  0.3039
   74CHL1  H15B 7902   2.139   4.622   7.724 -0.2584 -0.3201  2.4706
   74CHL1   C16 7903   2.197   4.438   7.830  0.3720  0.6743  0.3289
   74CHL1  H16A 7904   2.293   4.434   7.886  1.8097  1.5474 -1.9564
   74CHL1  H16B 7905   2.109   4.451   7.898 -0.3986  0.1667 -0.5458
   74CHL1   C17 7906   2.189   4.295   7.761 -0.0753  0.3551 -0.1589
   74CHL1   H17 7907   2.083   4.268   7.741 -0.2570  1.9342 -1.4772
   74CHL1   C13 7908   2.251   4.310   7.622 -0.0442  0.0134  0.5669
   74CHL1   C18 7909   2.405   4.317   7.638  0.7579  0.5268 -0.6753
   74CHL1  H18A 7910   2.437   4.214   7.663 -0.0014  0.2665 -0.7376
   74CHL1  H18B 7911   2.468   4.329   7.547 -0.8388 -2.4458 -2.3474
   74CHL1  H18C 7912   2.440   4.378   7.724 -0.5173 -1.4171  1.3258
   74CHL1   C12 7913   2.199   4.222   7.507 -0.1846  0.1000 -0.8206
   74CHL1  H12A 7914   2.218   4.117   7.537  0.2459  0.5228  0.4707
   74CHL1  H12B 7915   2.088   4.224   7.520 -0.0415  1.6311  0.5694
   74CHL1   C11 7916   2.248   4.263   7.370  0.5550 -0.2039 -0.3667
   74CHL1  H11A 7917   2.359   4.260   7.371  0.5583 -0.3024  0.6689
   74CHL1  H11B 7918   2.214   4.193   7.291  0.3750  2.4601 -2.8095
   74CHL1    C9 7919   2.209   4.413   7.340  0.2511  0.6906 -0.0718
   74CHL1    H9 7920   2.098   4.424   7.343  0.3021  0.9858  1.6016
   74CHL1   C10 7921   2.249   4.454   7.193 -0.6807  0.8098  0.2036
   74CHL1   C19 7922   2.386   4.395   7.139 -0.0859  0.3560  0.4270
   74CHL1  H19A 7923   2.469   4.422   7.208  0.1618  0.4717  0.0865
   74CHL1  H19B 7924   2.378   4.284   7.144  0.0282  0.4069  2.8157
   74CHL1  H19C 7925   2.419   4.408   7.034  1.0696 -0.9609  0.5954
   74CHL1    C1 7926   2.143   4.381   7.100  0.2695 -0.8504 -0.1983
   74CHL1   H1A 7927   2.166   4.272   7.106  2.2827 -0.4642 -0.0275
   74CHL1   H1B 7928   2.042   4.398   7.143  0.1844 -1.7863 -0.0159
   74CHL1    C2 7929   2.151   4.442   6.960  0.2684 -0.1401 -0.4032
   74CHL1   H2A 7930   2.071   4.407   6.890  1.1255  0.2541 -1.6206
   74CHL1   H2B 7931   2.248   4.414   6.914  1.3653  2.8940 -0.1703
   74CHL1   C20 7932   2.252   4.186   7.849  1.1219 -0.2911  0.1893
   74CHL1   H20 7933   2.354   4.222   7.875  0.7553 -0.2546  1.6577
   74CHL1   C21 7934   2.257   4.048   7.778 -0.2774 -0.0123  0.2146
   74CHL1  H21A 7935   2.336   4.032   7.701 -1.7163 -0.7493 -1.1752
   74CHL1  H21B 7936   2.158   4.024   7.733 -0.3300  1.0573 -0.2654
   74CHL1  H21C 7937   2.283   3.974   7.857  0.3941 -0.0612 -0.0516
   74CHL1   C22 7938   2.174   4.178   7.990  0.2963 -0.3671  0.5180
   74CHL1  H22A 7939   2.174   4.285   8.019  0.0646 -0.0085 -0.7390
   74CHL1  H22B 7940   2.071   4.147   7.964  0.7400 -1.5135  0.0624
   74CHL1   C23 7941   2.230   4.077   8.089 -0.4833  0.0883 -0.2252
   74CHL1  H23A 7942   2.214   3.968   8.072  3.5454 -1.0833  2.1712
   74CHL1  H23B 7943   2.341   4.080   8.082 -0.5996  0.5683 -2.4783
   74CHL1   C24 7944   2.207   4.106   8.233  0.0424 -0.1029 -0.3316
   74CHL1  H24A 7945   2.261   4.201   8.253  1.3792 -0.9212  0.1245
   74CHL1  H24B 7946   2.099   4.128   8.242  0.0851 -0.2176  0.4812
   74CHL1   C25 7947   2.250   4.006   8.334  0.3742  0.8293 -0.5197
   74CHL1   H25 7948   2.357   3.987   8.310  0.5746 -0.1886  1.0374
   74CHL1   C26 7949   2.234   4.062   8.480 -0.1316  0.1866 -0.0720
   74CHL1  H26A 7950   2.136   4.024   8.515 -0.6511  1.7689  0.2845
   74CHL1  H26B 7951   2.310   4.018   8.549  1.0179 -2.0498 -2.5708
   74CHL1  H26C 7952   2.234   4.173   8.481  1.4778  0.2056  0.1622
   74CHL1   C27 7953   2.187   3.863   8.326  0.2801 -0.4398 -0.5121
   74CHL1  H27A 7954   2.209   3.814   8.423 -0.0950  0.2067 -0.0899
   74CHL1  H27B 7955   2.078   3.884   8.330  0.5777  1.0957  0.7563
   74CHL1  H27C 7956   2.220   3.808   8.236  0.8668  0.9544 -1.1856
   75CHL1    C3 7957   4.163   5.996   6.561  0.4503 -0.0703 -0.3098
   75CHL1    H3 7958   4.122   5.893   6.564  1.9392 -0.6606  1.2973
   75CHL1    O3 7959   4.211   6.012   6.426 -0.5216 -0.4548  0.0571
   75CHL1   H3' 7960   4.258   6.096   6.433  0.4326 -0.9273 -0.5371
   75CHL1    C4 7961   4.053   6.100   6.600 -0.9703  0.6955  0.2969
   75CHL1   H4A 7962   4.084   6.200   6.562  2.6041 -0.2297  0.4190
   75CHL1   H4B 7963   3.965   6.072   6.538  0.7636 -1.1984 -1.4370
   75CHL1    C5 7964   4.028   6.112   6.749  0.4558  0.9704  0.0844
   75CHL1    C6 7965   3.899   6.113   6.794  0.6965  0.0341  0.3263
   75CHL1    H6 7966   3.815   6.098   6.724  2.1398  0.2419 -1.5417
   75CHL1    C7 7967   3.875   6.139   6.939  0.3009  0.5018 -0.0611
   75CHL1   H7A 7968   3.790   6.210   6.953  0.2097  0.0816  1.6903
   75CHL1   H7B 7969   3.843   6.045   6.988 -0.6395  1.5120  1.3401
   75CHL1    C8 7970   3.996   6.190   7.022  0.1822  0.5123  0.4602
   75CHL1    H8 7971   4.012   6.297   6.995  0.2733  0.2300 -0.6911
   75CHL1   C14 7972   3.972   6.177   7.171 -0.7767  0.9630  0.6645
   75CHL1   H14 7973   3.977   6.068   7.186 -1.1492  1.0457  1.4373
   75CHL1   C15 7974   3.844   6.219   7.235  0.6267 -0.0991  0.5005
   75CHL1  H15A 7975   3.795   6.305   7.185 -0.0531  0.0974  1.4549
   75CHL1  H15B 7976   3.763   6.143   7.235 -0.8199  1.3439  1.8452
   75CHL1   C16 7977   3.870   6.230   7.386  0.7739  0.4995 -0.5557
   75CHL1  H16A 7978   3.864   6.335   7.419  2.9306 -0.0909  2.0158
   75CHL1  H16B 7979   3.808   6.167   7.453  0.3107 -0.6230 -1.9732
   75CHL1   C17 7980   4.016   6.179   7.404  0.3638 -0.4859  0.6362
   75CHL1   H17 7981   4.000   6.070   7.410 -3.1898 -0.0360  1.9264
   75CHL1   C13 7982   4.085   6.220   7.269 -0.1453  0.3802  0.1692
   75CHL1   C18 7983   4.109   6.372   7.267  0.5049  0.2656  0.1209
   75CHL1  H18A 7984   4.125   6.400   7.161 -1.5235 -0.8918 -0.5431
   75CHL1  H18B 7985   4.021   6.429   7.302  0.3744  0.6679 -0.8331
   75CHL1  H18C 7986   4.196   6.403   7.329  0.9589  0.2146 -0.4756
   75CHL1   C12 7987   4.208   6.142   7.234 -0.8047  0.5184 -0.2824
   75CHL1  H12A 7988   4.292   6.173   7.301  0.7986 -2.2535 -0.8311
   75CHL1  H12B 7989   4.193   6.032   7.249  0.5813  0.3381 -0.0883
   75CHL1   C11 7990   4.243   6.156   7.083  0.7180 -0.1495 -0.0206
   75CHL1  H11A 7991   4.279   6.260   7.063  1.0863 -0.3998 -0.6941
   75CHL1  H11B 7992   4.327   6.085   7.065  3.3878  2.7020  0.1357
   75CHL1    C9 7993   4.126   6.117   6.990 -0.0590 -0.0727 -0.3141
   75CHL1    H9 7994   4.096   6.013   7.015  0.6396 -0.2624 -0.2535
   75CHL1   C10 7995   4.156   6.123   6.836  0.8124 -0.8507  0.2926
   75CHL1   C19 7996   4.225   6.253   6.814 -0.6535 -0.2180  0.0887
   75CHL1  H19A 7997   4.237   6.264   6.704 -1.7605 -0.4551 -0.0636
   75CHL1  H19B 7998   4.186   6.344   6.864 -2.3520 -0.5366 -0.5918
   75CHL1  H19C 7999   4.329   6.230   6.847 -0.8414  0.3791  1.1365
   75CHL1    C1 8000   4.250   6.004   6.803  0.2446  0.2142  0.2831
   75CHL1   H1A 8001   4.346   6.012   6.859  0.3097 -2.3122  0.6635
   75CHL1   H1B 8002   4.205   5.904   6.824  0.4129 -0.1995 -1.2328
   75CHL1    C2 8003   4.283   6.005   6.656 -1.1372 -1.0636 -0.4017
   75CHL1   H2A 8004   4.349   5.917   6.645 -3.4566 -3.1868  1.3428
   75CHL1   H2B 8005   4.345   6.095   6.635 -0.6340 -1.2995  0.0483
   75CHL1   C20 8006   4.078   6.238   7.531  0.0455  0.4495 -0.0057
   75CHL1   H20 8007   4.086   6.349   7.542  0.6424  0.3103  1.0780
   75CHL1   C21 8008   4.223   6.188   7.558  0.1008  0.3196  0.1781
   75CHL1  H21A 8009   4.301   6.232   7.493 -0.1994 -0.1527 -0.5072
   75CHL1  H21B 8010   4.220   6.078   7.542 -1.6750  0.3584  0.0829
   75CHL1  H21C 8011   4.259   6.194   7.663  2.5991 -2.0247 -0.4079
   75CHL1   C22 8012   4.000   6.202   7.667 -0.1819 -0.1037 -0.0612
   75CHL1  H22A 8013   4.056   6.262   7.743  0.3448 -1.8249  0.9772
   75CHL1  H22B 8014   3.893   6.228   7.675  0.5755  2.9963  1.5988
   75CHL1   C23 8015   4.019   6.053   7.717 -0.2051 -0.7769 -0.1541
   75CHL1  H23A 8016   4.000   5.989   7.628 -1.4785  0.5522 -0.8926
   75CHL1  H23B 8017   4.122   6.037   7.755  0.1953  0.7458 -0.5124
   75CHL1   C24 8018   3.910   6.016   7.819  0.9008  0.2534 -0.4920
   75CHL1  H24A 8019   3.915   6.091   7.901  3.7331 -1.2179  0.8399
   75CHL1  H24B 8020   3.811   6.027   7.770  0.0367 -2.3957  0.5002
   75CHL1   C25 8021   3.924   5.884   7.900  0.2306 -0.4013  0.7925
   75CHL1   H25 8022   3.835   5.880   7.966 -0.3589  4.4014  0.6387
   75CHL1   C26 8023   3.936   5.757   7.818 -0.2827 -0.9284 -0.0914
   75CHL1  H26A 8024   3.835   5.726   7.783 -0.3124 -0.3696 -0.5064
   75CHL1  H26B 8025   3.992   5.771   7.723 -0.4986 -0.4708 -0.1506
   75CHL1  H26C 8026   3.971   5.673   7.882  2.2079 -0.6396 -0.9769
   75CHL1   C27 8027   4.053   5.891   7.987  0.5441  0.0820  0.5137
   75CHL1  H27A 8028   4.029   5.967   8.065 -2.6331  0.1540 -0.3895
   75CHL1  H27B 8029   4.069   5.798   8.046  1.0994 -1.4391 -1.8770
   75CHL1  H27C 8030   4.137   5.911   7.918 -1.0543 -1.1919 -1.9760
   76CHL1    C3 8031   1.274   0.376   7.157  0.2534  0.4338 -0.0212
   76CHL1    H3 8032   1.240   0.482   7.152 -1.8591 -0.2441 -1.1439
   76CHL1    O3 8033   1.310   0.333   7.023  0.0103 -0.7571 -0.0842
   76CHL1   H3' 8034   1.232   0.353   6.971  0.3785 -0.9563 -0.7314
   76CHL1    C4 8035   1.381   0.344   7.251 -0.0385  0.4991  0.5868
   76CHL1   H4A 8036   1.398   0.235   7.244 -1.1019  0.3292  0.4305
   76CHL1   H4B 8037   1.473   0.394   7.215 -0.3459  0.3698 -0.4172
   76CHL1    C5 8038   1.349   0.371   7.392 -0.4963  0.6398  0.2192
   76CHL1    C6 8039   1.430   0.445   7.470  0.2958 -0.2677 -0.1717
   76CHL1    H6 8040   1.508   0.498   7.414 -0.6811  1.2462 -0.1643
   76CHL1    C7 8041   1.415   0.475   7.614  0.0049  0.7195 -0.2545
   76CHL1   H7A 8042   1.507   0.485   7.676 -0.8713  0.4066  1.1411
   76CHL1   H7B 8043   1.359   0.571   7.623 -0.5329  0.4999 -1.0589
   76CHL1    C8 8044   1.316   0.377   7.682 -0.3815  0.3978 -1.0216
   76CHL1    H8 8045   1.370   0.282   7.700 -0.3111  0.7290  0.6102
   76CHL1   C14 8046   1.259   0.440   7.810  0.1630  0.0821  0.0845
   76CHL1   H14 8047   1.198   0.528   7.781  0.5381  0.1656 -0.4660
   76CHL1   C15 8048   1.364   0.495   7.911 -0.3528  0.4118  0.3660
   76CHL1  H15A 8049   1.457   0.435   7.922  1.3997  2.9274  0.1199
   76CHL1  H15B 8050   1.403   0.592   7.872  0.0577  0.2358  0.3324
   76CHL1   C16 8051   1.289   0.503   8.042  0.1677  0.1533 -0.1537
   76CHL1  H16A 8052   1.344   0.432   8.108 -0.4655  0.7316  1.0249
   76CHL1  H16B 8053   1.301   0.596   8.101  1.1300  0.2861 -0.5402
   76CHL1   C17 8054   1.152   0.444   8.017  0.5077 -0.4668 -0.7266
   76CHL1   H17 8055   1.083   0.523   7.980 -0.8090 -2.8508 -3.8659
   76CHL1   C13 8056   1.168   0.351   7.896 -0.2584 -0.3666  0.3023
   76CHL1   C18 8057   1.243   0.221   7.942 -0.1496 -0.5565 -0.2934
   76CHL1  H18A 8058   1.297   0.169   7.860  0.7905  1.6743 -1.1714
   76CHL1  H18B 8059   1.316   0.243   8.022  0.6757 -1.1967 -0.8434
   76CHL1  H18C 8060   1.171   0.148   7.987 -1.1278  1.0022  0.7464
   76CHL1   C12 8061   1.044   0.328   7.804 -0.0552  0.1972 -0.0856
   76CHL1  H12A 8062   0.956   0.274   7.847  1.2093 -0.0799  2.3649
   76CHL1  H12B 8063   1.011   0.434   7.791 -0.2556  0.1582  0.0807
   76CHL1   C11 8064   1.080   0.268   7.665 -0.4802  0.6104 -0.4256
   76CHL1  H11A 8065   1.106   0.163   7.691 -0.7174  1.1152  2.0968
   76CHL1  H11B 8066   0.993   0.267   7.595 -0.5793 -1.8225 -0.3261
   76CHL1    C9 8067   1.191   0.353   7.597 -0.2597 -0.4508  0.1655
   76CHL1    H9 8068   1.142   0.452   7.582  0.0391  0.1479  2.6407
   76CHL1   C10 8069   1.227   0.305   7.455  0.4055 -0.6671 -0.3971
   76CHL1   C19 8070   1.260   0.160   7.471  0.1910  0.6519 -1.1263
   76CHL1  H19A 8071   1.282   0.117   7.371 -0.6988  0.9471 -1.4658
   76CHL1  H19B 8072   1.358   0.155   7.522  1.1389  1.1222 -2.8317
   76CHL1  H19C 8073   1.188   0.086   7.514  1.8487 -0.1119  0.4735
   76CHL1    C1 8074   1.113   0.322   7.352 -0.7860 -0.2554  0.3612
   76CHL1   H1A 8075   1.022   0.261   7.373 -0.1598 -0.7219  1.7736
   76CHL1   H1B 8076   1.085   0.430   7.350 -0.8847 -0.2908 -0.6673
   76CHL1    C2 8077   1.153   0.295   7.204  0.1927  0.7952  0.1924
   76CHL1   H2A 8078   1.061   0.310   7.143 -0.9560 -1.3920  1.2657
   76CHL1   H2B 8079   1.183   0.189   7.192  0.8990  0.7813  1.8224
   76CHL1   C20 8080   1.085   0.375   8.146 -0.2366 -0.0356  0.3207
   76CHL1   H20 8081   1.164   0.304   8.177  0.7639  0.3289 -1.3040
   76CHL1   C21 8082   0.950   0.297   8.118  0.0714 -0.0239 -0.8040
   76CHL1  H21A 8083   0.880   0.368   8.069 -3.2163 -0.8944  2.2579
   76CHL1  H21B 8084   0.899   0.262   8.210  1.0419 -1.5434 -0.8190
   76CHL1  H21C 8085   0.977   0.210   8.055 -2.2736 -0.0574 -1.8732
   76CHL1   C22 8086   1.071   0.466   8.270 -0.4762 -0.3842 -0.0982
   76CHL1  H22A 8087   1.034   0.410   8.358 -0.4988  0.4468  0.4370
   76CHL1  H22B 8088   1.171   0.508   8.295 -1.9208  1.3560  3.5214
   76CHL1   C23 8089   0.974   0.582   8.242  0.4171 -0.7091  0.2586
   76CHL1  H23A 8090   1.002   0.636   8.149 -1.7781 -0.5807 -0.3749
   76CHL1  H23B 8091   0.868   0.555   8.226 -0.4527  1.8765  1.0302
   76CHL1   C24 8092   0.976   0.692   8.357 -0.5567  0.2981  0.5510
   76CHL1  H24A 8093   1.084   0.715   8.372 -0.1386 -0.2554 -1.3165
   76CHL1  H24B 8094   0.921   0.783   8.325 -1.9259  0.0542  2.1001
   76CHL1   C25 8095   0.909   0.643   8.486  0.3083 -0.5384  0.4066
   76CHL1   H25 8096   0.966   0.550   8.510  2.5189  0.3115 -1.1580
   76CHL1   C26 8097   0.934   0.743   8.599 -0.3885  0.2087  0.5511
   76CHL1  H26A 8098   0.895   0.697   8.692 -2.1912 -0.7179 -0.6160
   76CHL1  H26B 8099   1.042   0.772   8.597 -0.6512  1.4135 -3.2897
   76CHL1  H26C 8100   0.883   0.842   8.588  1.0346  1.0619  1.2867
   76CHL1   C27 8101   0.753   0.630   8.464  0.6086 -0.5134  0.0700
   76CHL1  H27A 8102   0.695   0.640   8.558  1.4135  1.5440  0.4068
   76CHL1  H27B 8103   0.739   0.728   8.413 -1.5379 -0.9867 -0.3523
   76CHL1  H27C 8104   0.742   0.538   8.404  1.6575 -0.2294 -0.6019
   77CHL1    C3 8105   3.010   5.364   6.821  0.5482  0.8706  0.4324
   77CHL1    H3 8106   3.095   5.291   6.830 -0.7108 -0.4066  3.0304
   77CHL1    O3 8107   2.984   5.394   6.680  0.4176 -0.0109 -0.2281
   77CHL1   H3' 8108   2.921   5.329   6.650  1.1311 -0.9895  0.3350
   77CHL1    C4 8109   2.884   5.305   6.879  0.7924 -0.5946 -0.0447
   77CHL1   H4A 8110   2.793   5.367   6.864 -1.4238 -3.4733  0.7424
   77CHL1   H4B 8111   2.849   5.207   6.840 -1.8479 -0.4810  1.8067
   77CHL1    C5 8112   2.898   5.291   7.034  0.6348  0.8371  1.2683
   77CHL1    C6 8113   2.880   5.164   7.079  0.2915 -0.3779  0.1466
   77CHL1    H6 8114   2.833   5.091   7.011 -2.4355  1.0248  0.3761
   77CHL1    C7 8115   2.904   5.116   7.222  0.2519  0.1967 -0.0693
   77CHL1   H7A 8116   2.810   5.078   7.267 -0.1502  2.6172  1.3362
   77CHL1   H7B 8117   2.976   5.032   7.235  1.0848  0.7791 -0.7895
   77CHL1    C8 8118   2.934   5.239   7.317 -0.1136  0.1123  0.7276
   77CHL1    H8 8119   2.832   5.280   7.333 -1.5486 -2.3149 -1.4314
   77CHL1   C14 8120   3.001   5.187   7.445  0.0139 -0.0365  0.8460
   77CHL1   H14 8121   3.099   5.148   7.412 -0.0426  1.9045 -1.9430
   77CHL1   C15 8122   2.923   5.077   7.524 -0.1692 -0.6344  0.2069
   77CHL1  H15A 8123   2.817   5.098   7.548 -0.5262 -1.1545 -0.8615
   77CHL1  H15B 8124   2.919   4.980   7.469  0.0363 -1.5885  1.8103
   77CHL1   C16 8125   2.996   5.076   7.652 -0.6153 -0.5532 -0.0966
   77CHL1  H16A 8126   2.923   5.064   7.735  1.0649 -1.3014  1.3364
   77CHL1  H16B 8127   3.067   4.992   7.633 -0.3976 -0.1320 -1.1647
   77CHL1   C17 8128   3.070   5.210   7.669 -0.3574 -0.2214 -0.5421
   77CHL1   H17 8129   3.175   5.186   7.639 -0.1138 -1.3040  1.0352
   77CHL1   C13 8130   3.021   5.296   7.552  0.0247  0.2531  0.1646
   77CHL1   C18 8131   2.896   5.374   7.593  0.2685 -0.6839  0.2742
   77CHL1  H18A 8132   2.829   5.315   7.659 -0.2098  1.1628  1.5067
   77CHL1  H18B 8133   2.928   5.455   7.662  3.8644 -1.4066 -0.3468
   77CHL1  H18C 8134   2.830   5.400   7.507 -0.0113 -0.2706  0.6092
   77CHL1   C12 8135   3.124   5.390   7.487  0.2727 -0.3008 -0.1767
   77CHL1  H12A 8136   3.151   5.461   7.568 -0.3565 -1.2259  0.8683
   77CHL1  H12B 8137   3.211   5.328   7.456  0.5512 -0.2004  0.4003
   77CHL1   C11 8138   3.063   5.452   7.361  0.0764  0.0456  0.0070
   77CHL1  H11A 8139   2.977   5.511   7.400 -0.1253 -1.6930  2.4718
   77CHL1  H11B 8140   3.126   5.533   7.318  0.2513  0.1820  0.5083
   77CHL1    C9 8141   3.025   5.343   7.248  0.1785 -0.1977  0.8026
   77CHL1    H9 8142   3.119   5.290   7.220 -0.8941 -1.7606 -0.0004
   77CHL1   C10 8143   2.965   5.396   7.119 -0.5506  1.3696 -0.1547
   77CHL1   C19 8144   2.858   5.503   7.151 -0.1053 -0.3428 -0.0852
   77CHL1  H19A 8145   2.780   5.472   7.224 -2.8220  1.9843 -1.7554
   77CHL1  H19B 8146   2.908   5.597   7.183  2.3015 -0.7738 -2.2496
   77CHL1  H19C 8147   2.801   5.537   7.062  0.7348  1.0946 -0.1001
   77CHL1    C1 8148   3.079   5.466   7.041 -0.2464 -0.6971 -0.0775
   77CHL1   H1A 8149   3.093   5.560   7.098  3.6022 -2.1838  1.7864
   77CHL1   H1B 8150   3.174   5.409   7.047 -0.4802 -1.1634 -0.6750
   77CHL1    C2 8151   3.059   5.489   6.895 -0.9134 -0.3280  0.5209
   77CHL1   H2A 8152   3.148   5.524   6.840  0.4089 -0.5160  2.4486
   77CHL1   H2B 8153   2.984   5.568   6.874 -1.9841 -2.0219 -2.5850
   77CHL1   C20 8154   3.094   5.268   7.806 -0.1730  0.3525 -0.1108
   77CHL1   H20 8155   3.110   5.377   7.794 -0.3804  0.5232  1.0469
   77CHL1   C21 8156   3.227   5.214   7.861  0.1101  0.0314  0.0394
   77CHL1  H21A 8157   3.311   5.209   7.789  1.8465  0.4217  1.9242
   77CHL1  H21B 8158   3.211   5.110   7.895  1.5960  0.5184  2.5145
   77CHL1  H21C 8159   3.271   5.271   7.947 -2.0769  0.5830  0.8477
   77CHL1   C22 8160   2.986   5.242   7.913  0.1349  0.3028  0.5898
   77CHL1  H22A 8161   2.886   5.253   7.865 -0.6094  0.6496  2.1621
   77CHL1  H22B 8162   3.001   5.136   7.939  0.1699  0.2667  0.4228
   77CHL1   C23 8163   2.987   5.338   8.029 -0.8704 -0.3538  0.0786
   77CHL1  H23A 8164   3.079   5.334   8.092 -2.3073  0.8534  2.4016
   77CHL1  H23B 8165   2.980   5.442   7.990  0.4081 -0.7327 -1.2539
   77CHL1   C24 8166   2.878   5.314   8.138 -0.0891 -0.2938  0.0361
   77CHL1  H24A 8167   2.774   5.312   8.099  0.5288 -0.1698 -1.7067
   77CHL1  H24B 8168   2.896   5.212   8.179 -2.3152 -1.4986 -1.7170
   77CHL1   C25 8169   2.882   5.425   8.250 -0.3701  0.6661 -0.3757
   77CHL1   H25 8170   2.990   5.437   8.274 -0.4362 -0.9120  0.8851
   77CHL1   C26 8171   2.825   5.553   8.199  0.4239  0.0170  0.1644
   77CHL1  H26A 8172   2.719   5.542   8.168  1.1761 -2.0334 -1.9822
   77CHL1  H26B 8173   2.843   5.629   8.278 -0.1079 -0.0337  0.3363
   77CHL1  H26C 8174   2.877   5.590   8.109  0.2342 -0.0532  0.0253
   77CHL1   C27 8175   2.812   5.392   8.381 -0.2596  0.1383 -0.1436
   77CHL1  H27A 8176   2.821   5.477   8.451 -2.7324  1.1261 -0.9077
   77CHL1  H27B 8177   2.706   5.358   8.374  0.2221 -1.2281 -1.7756
   77CHL1  H27C 8178   2.864   5.303   8.422 -0.6234  0.0043  0.0327
   78CHL1    C3 8179   2.903   0.874   6.675 -0.3577  0.2431  0.2630
   78CHL1    H3 8180   2.853   0.784   6.635 -1.4428  0.7957  0.3488
   78CHL1    O3 8181   2.955   0.957   6.570  0.0653  0.6920  0.4102
   78CHL1   H3' 8182   3.018   0.900   6.527 -0.2467  1.9174 -1.8207
   78CHL1    C4 8183   2.803   0.957   6.755 -0.2956  0.5473 -0.1365
   78CHL1   H4A 8184   2.859   1.049   6.782  1.7056 -0.4787 -0.5968
   78CHL1   H4B 8185   2.723   0.972   6.680  0.7355 -0.3143 -1.4561
   78CHL1    C5 8186   2.771   0.887   6.887 -0.0002  0.1032  0.3873
   78CHL1    C6 8187   2.639   0.870   6.919 -0.0625  0.1879 -0.1696
   78CHL1    H6 8188   2.560   0.900   6.848 -1.0348 -1.5727  0.1134
   78CHL1    C7 8189   2.590   0.806   7.045  0.1936  0.4846  0.0536
   78CHL1   H7A 8190   2.516   0.877   7.090 -1.4053 -0.5288 -0.8926
   78CHL1   H7B 8191   2.534   0.713   7.021  0.8657  0.4064 -1.2674
   78CHL1    C8 8192   2.705   0.792   7.153 -0.1959  0.5803 -0.0248
   78CHL1    H8 8193   2.724   0.897   7.183  0.0448 -0.0043  1.9784
   78CHL1   C14 8194   2.679   0.694   7.263 -0.4379 -0.2435  0.0792
   78CHL1   H14 8195   2.679   0.595   7.212 -1.5278 -0.5788  0.6925
   78CHL1   C15 8196   2.543   0.697   7.322 -0.4399  0.4400 -0.0886
   78CHL1  H15A 8197   2.515   0.804   7.320  0.4439  0.6770 -2.0067
   78CHL1  H15B 8198   2.475   0.640   7.255  0.0150 -1.2207  0.8130
   78CHL1   C16 8199   2.561   0.640   7.471 -0.1929  0.3087  1.4225
   78CHL1  H16A 8200   2.542   0.715   7.550  0.1189  0.4896  1.3267
   78CHL1  H16B 8201   2.491   0.555   7.488 -1.2221  0.3647 -1.8613
   78CHL1   C17 8202   2.709   0.590   7.475  0.0529 -0.1950  0.3121
   78CHL1   H17 8203   2.711   0.488   7.430  0.4455  0.0740 -0.2943
   78CHL1   C13 8204   2.776   0.690   7.377 -0.1684  0.1936 -0.4663
   78CHL1   C18 8205   2.796   0.820   7.442  0.7940  0.1861  0.1874
   78CHL1  H18A 8206   2.708   0.843   7.506 -0.6311 -0.4651 -1.4571
   78CHL1  H18B 8207   2.888   0.822   7.505 -0.8410  1.4807  2.6704
   78CHL1  H18C 8208   2.785   0.909   7.376 -0.3719 -0.0419  0.0522
   78CHL1   C12 8209   2.912   0.645   7.322  0.1715 -0.2805 -0.3387
   78CHL1  H12A 8210   2.985   0.656   7.406  0.6505  0.7537 -0.8742
   78CHL1  H12B 8211   2.902   0.546   7.273  0.3134 -0.5864  0.2271
   78CHL1   C11 8212   2.945   0.743   7.209 -0.1876  0.2108  0.0301
   78CHL1  H11A 8213   2.972   0.834   7.266  0.3585 -1.2819  2.2948
   78CHL1  H11B 8214   3.040   0.717   7.157  0.1679  2.8884 -0.8102
   78CHL1    C9 8215   2.844   0.751   7.100 -0.2276 -0.4355  0.0529
   78CHL1    H9 8216   2.839   0.653   7.048  0.6411 -0.0943 -0.7043
   78CHL1   C10 8217   2.881   0.839   6.980 -0.5255 -0.1641  0.4321
   78CHL1   C19 8218   2.957   0.969   7.033 -0.1828  0.6434 -0.2023
   78CHL1  H19A 8219   3.052   0.946   7.087  0.6731 -0.6624 -2.1399
   78CHL1  H19B 8220   2.996   1.034   6.951  3.5825 -1.7042 -0.5334
   78CHL1  H19C 8221   2.888   1.015   7.107  0.4804 -1.3251  1.7377
   78CHL1    C1 8222   2.979   0.763   6.888 -0.0658  0.1186  0.7373
   78CHL1   H1A 8223   3.065   0.740   6.955 -0.8156 -1.2198  1.2570
   78CHL1   H1B 8224   2.931   0.667   6.861 -0.2604  0.0127  1.4386
   78CHL1    C2 8225   3.023   0.830   6.758  0.4334  0.5914  0.6455
   78CHL1   H2A 8226   3.062   0.746   6.696 -0.9865  0.8902 -0.6949
   78CHL1   H2B 8227   3.098   0.912   6.768 -0.8971  2.1537 -1.3806
   78CHL1   C20 8228   2.771   0.566   7.617 -0.4586 -0.2140  0.9305
   78CHL1   H20 8229   2.818   0.654   7.667 -1.1944 -0.2003  1.6179
   78CHL1   C21 8230   2.877   0.452   7.609  0.3300 -0.3589 -0.6840
   78CHL1  H21A 8231   2.950   0.474   7.528  0.7578  1.1612  0.0776
   78CHL1  H21B 8232   2.817   0.362   7.582  0.5643 -0.5095 -0.7037
   78CHL1  H21C 8233   2.935   0.435   7.702 -1.6842  2.3357  1.2046
   78CHL1   C22 8234   2.667   0.527   7.723  0.2599  0.6767 -0.0931
   78CHL1  H22A 8235   2.592   0.609   7.719 -1.4543 -0.7875  0.5928
   78CHL1  H22B 8236   2.621   0.436   7.679  0.5523  0.8884 -0.8516
   78CHL1   C23 8237   2.723   0.517   7.874  0.5293  0.9835  0.7923
   78CHL1  H23A 8238   2.784   0.426   7.892 -0.1901  0.4264  0.4748
   78CHL1  H23B 8239   2.800   0.596   7.889  0.1634  1.3063  0.9954
   78CHL1   C24 8240   2.608   0.543   7.973  0.0718 -0.1222  0.0850
   78CHL1  H24A 8241   2.569   0.641   7.937  1.0034 -0.0980 -0.9152
   78CHL1  H24B 8242   2.535   0.460   7.971 -0.4367  0.3375 -0.7152
   78CHL1   C25 8243   2.654   0.557   8.119  0.0338 -0.6548 -0.4241
   78CHL1   H25 8244   2.744   0.620   8.131 -1.7455  1.7918  1.2849
   78CHL1   C26 8245   2.545   0.592   8.216  0.0055 -0.3687 -0.5100
   78CHL1  H26A 8246   2.462   0.520   8.197 -0.6762  0.0493  0.7809
   78CHL1  H26B 8247   2.583   0.592   8.320 -0.0439 -0.3819 -0.4925
   78CHL1  H26C 8248   2.496   0.685   8.179 -1.0588 -1.3789 -1.7570
   78CHL1   C27 8249   2.718   0.422   8.170  0.1615 -0.3252  0.8507
   78CHL1  H27A 8250   2.760   0.430   8.272  1.2104  1.0296  0.3387
   78CHL1  H27B 8251   2.634   0.349   8.169 -0.0580 -0.0739  0.0654
   78CHL1  H27C 8252   2.794   0.381   8.100 -1.0734 -1.9795  0.3906
   79CHL1    C3 8253   3.136   6.605   7.049 -0.6102  0.7780 -0.0624
   79CHL1    H3 8254   3.241   6.568   7.059  0.0412  2.6120  0.2855
   79CHL1    O3 8255   3.114   6.632   6.912  0.0465 -0.2392  0.2975
   79CHL1   H3' 8256   3.026   6.672   6.912 -1.0083 -2.4166  0.6577
   79CHL1    C4 8257   3.044   6.492   7.087  0.1377 -0.7112  0.3156
   79CHL1   H4A 8258   2.936   6.508   7.066  0.1266  0.1471  0.9325
   79CHL1   H4B 8259   3.084   6.407   7.030  2.4363  0.4919  0.0152
   79CHL1    C5 8260   3.034   6.469   7.236 -0.3160  0.5076 -0.2571
   79CHL1    C6 8261   3.045   6.340   7.278  0.3806  0.1390 -0.9565
   79CHL1    H6 8262   3.087   6.269   7.206  1.4863 -0.9849  0.7144
   79CHL1    C7 8263   3.037   6.293   7.421 -0.3191  0.5660 -0.4706
   79CHL1   H7A 8264   2.956   6.221   7.443  0.6346 -0.1931  0.6612
   79CHL1   H7B 8265   3.135   6.257   7.460 -1.5008 -1.8168  0.4420
   79CHL1    C8 8266   2.989   6.415   7.510 -0.8460  0.3705 -0.4742
   79CHL1    H8 8267   2.879   6.416   7.498 -0.7778 -1.3525 -1.7609
   79CHL1   C14 8268   3.037   6.388   7.663  0.1660 -0.3182 -0.3814
   79CHL1   H14 8269   3.147   6.404   7.665  0.3164 -1.2450  1.6265
   79CHL1   C15 8270   3.000   6.249   7.720 -0.7426 -0.2629 -0.2113
   79CHL1  H15A 8271   2.898   6.216   7.692 -1.3468 -1.4231  2.9419
   79CHL1  H15B 8272   3.084   6.186   7.684  0.5617  1.1480  0.2426
   79CHL1   C16 8273   3.000   6.268   7.867  0.3964  0.1418  0.6244
   79CHL1  H16A 8274   2.896   6.237   7.892  0.0949  0.1028 -0.6487
   79CHL1  H16B 8275   3.082   6.209   7.913  0.5016 -0.9236 -0.8652
   79CHL1   C17 8276   3.024   6.417   7.892  0.0565 -0.3405  0.5848
   79CHL1   H17 8277   3.133   6.425   7.911  0.9156 -0.3518 -3.4720
   79CHL1   C13 8278   2.985   6.494   7.758  0.3003  0.8975 -0.7334
   79CHL1   C18 8279   2.832   6.508   7.752  0.5617  0.1752  0.4501
   79CHL1  H18A 8280   2.782   6.419   7.796  1.3769 -0.4149  0.1992
   79CHL1  H18B 8281   2.799   6.590   7.820 -2.9731 -0.8629  0.2063
   79CHL1  H18C 8282   2.795   6.530   7.650  1.1695  1.4503  0.4902
   79CHL1   C12 8283   3.052   6.629   7.720 -0.2033 -0.3995 -0.1996
   79CHL1  H12A 8284   3.011   6.716   7.774  1.9662  0.4889  0.1119
   79CHL1  H12B 8285   3.158   6.631   7.752 -0.9398  1.5534  2.4298
   79CHL1   C11 8286   3.035   6.660   7.569 -0.1922  1.1058 -0.0235
   79CHL1  H11A 8287   2.928   6.690   7.569 -0.2741  0.8088  0.1180
   79CHL1  H11B 8288   3.097   6.748   7.537 -0.6603  1.2004 -0.6971
   79CHL1    C9 8289   3.055   6.542   7.465  0.4876  0.0383 -0.5866
   79CHL1    H9 8290   3.164   6.520   7.461  0.3075 -0.7458 -1.3786
   79CHL1   C10 8291   3.027   6.594   7.326 -1.1655  1.1102  0.5876
   79CHL1   C19 8292   2.876   6.637   7.315  0.2463 -0.0146 -1.1122
   79CHL1  H19A 8293   2.810   6.560   7.360  0.4522 -0.0787 -0.9161
   79CHL1  H19B 8294   2.849   6.731   7.368 -0.6672 -1.0449  0.3261
   79CHL1  H19C 8295   2.832   6.636   7.213 -3.8561 -0.6147  0.4907
   79CHL1    C1 8296   3.129   6.694   7.284  0.3811 -0.2483 -0.2993
   79CHL1   H1A 8297   3.127   6.783   7.350  3.6603 -1.8000  2.1697
   79CHL1   H1B 8298   3.232   6.654   7.297  0.2730 -0.0825  1.2557
   79CHL1    C2 8299   3.111   6.729   7.135  0.5401 -0.4834 -0.3709
   79CHL1   H2A 8300   3.178   6.809   7.097 -1.4911  0.3015 -2.4890
   79CHL1   H2B 8301   3.004   6.755   7.121  1.0075  1.0408 -1.2836
   79CHL1   C20 8302   2.960   6.461   8.020 -0.4303  0.0797 -0.5462
   79CHL1   H20 8303   2.849   6.455   8.017 -0.4582 -1.5488  1.7584
   79CHL1   C21 8304   2.988   6.616   8.035 -0.8400 -0.4721 -0.4941
   79CHL1  H21A 8305   3.098   6.635   8.039 -1.1881  1.5485  2.5334
   79CHL1  H21B 8306   2.950   6.652   8.133 -1.0236  0.2508 -0.8246
   79CHL1  H21C 8307   2.938   6.680   7.959  0.9073  0.3103 -1.0318
   79CHL1   C22 8308   2.997   6.389   8.153 -0.0974  0.1734  0.2117
   79CHL1  H22A 8309   2.916   6.405   8.227 -0.4465 -1.1035  0.1232
   79CHL1  H22B 8310   3.006   6.279   8.137  0.1107  0.2625 -0.3292
   79CHL1   C23 8311   3.132   6.416   8.207  0.3883 -0.0582 -0.0245
   79CHL1  H23A 8312   3.205   6.432   8.126 -1.6559 -0.8681 -2.1233
   79CHL1  H23B 8313   3.104   6.505   8.269 -0.7580 -0.8733  0.6762
   79CHL1   C24 8314   3.182   6.310   8.298 -0.2244  0.2932 -0.6473
   79CHL1  H24A 8315   3.103   6.278   8.369  0.2992  1.5891  0.5596
   79CHL1  H24B 8316   3.213   6.225   8.233 -1.1663 -0.2161 -0.4534
   79CHL1   C25 8317   3.319   6.356   8.373 -0.1636 -0.1049 -0.0540
   79CHL1   H25 8318   3.306   6.447   8.434  1.5093  0.2583 -0.1689
   79CHL1   C26 8319   3.374   6.248   8.467 -0.4874 -0.5325  0.0667
   79CHL1  H26A 8320   3.481   6.268   8.490 -1.0280  0.4505  1.8766
   79CHL1  H26B 8321   3.320   6.248   8.564  0.8381  3.6580  1.0355
   79CHL1  H26C 8322   3.368   6.150   8.416  2.0526  0.0469 -1.5392
   79CHL1   C27 8323   3.433   6.386   8.267  0.9413 -0.3192 -0.5841
   79CHL1  H27A 8324   3.522   6.428   8.320  0.3192  2.0469 -1.2879
   79CHL1  H27B 8325   3.458   6.299   8.203  0.5693  0.7661 -2.2945
   79CHL1  H27C 8326   3.393   6.463   8.197  1.1907  0.5493  0.2113
   80CHL1    C3 8327   2.342   5.140   6.893 -0.0437  0.1987  0.8213
   80CHL1    H3 8328   2.256   5.071   6.908 -0.4163  0.4396 -0.1392
   80CHL1    O3 8329   2.346   5.177   6.755 -0.2722 -0.6548 -0.1757
   80CHL1   H3' 8330   2.436   5.201   6.732  0.0815  0.1333  1.8408
   80CHL1    C4 8331   2.318   5.270   6.979  0.0777 -0.1237  0.1113
   80CHL1   H4A 8332   2.395   5.348   6.967 -1.1367  1.2664  1.0223
   80CHL1   H4B 8333   2.222   5.311   6.941  1.3665  1.9144 -1.1177
   80CHL1    C5 8334   2.307   5.237   7.122 -0.3806 -0.3541 -0.4008
   80CHL1    C6 8335   2.198   5.277   7.193 -0.5449  0.1251  0.4028
   80CHL1    H6 8336   2.108   5.318   7.146 -0.0066  1.0757  0.1844
   80CHL1    C7 8337   2.185   5.240   7.340 -0.3834  0.4692 -0.2308
   80CHL1   H7A 8338   2.133   5.319   7.398 -0.4753 -0.6558  1.2905
   80CHL1   H7B 8339   2.121   5.151   7.357 -0.9250  1.4364  4.0450
   80CHL1    C8 8340   2.324   5.216   7.408  0.1540  0.2099  0.4469
   80CHL1    H8 8341   2.376   5.312   7.426 -0.1023  0.3401  0.5029
   80CHL1   C14 8342   2.298   5.147   7.542  0.0089 -0.2105  0.0416
   80CHL1   H14 8343   2.236   5.056   7.528 -0.5762 -0.6352  4.1760
   80CHL1   C15 8344   2.208   5.221   7.644 -0.0220  0.3524 -0.1241
   80CHL1  H15A 8345   2.248   5.325   7.647  1.1887 -0.0686 -0.8221
   80CHL1  H15B 8346   2.101   5.226   7.616  0.2499  0.7878 -1.1277
   80CHL1   C16 8347   2.247   5.159   7.783 -0.1581 -0.2727 -0.3989
   80CHL1  H16A 8348   2.290   5.242   7.843 -1.5069  0.6770 -0.7007
   80CHL1  H16B 8349   2.154   5.119   7.828  1.0448  0.1864  2.6833
   80CHL1   C17 8350   2.350   5.045   7.741 -0.6470 -0.1500 -0.1784
   80CHL1   H17 8351   2.281   4.965   7.707 -3.5248  2.1308 -0.1255
   80CHL1   C13 8352   2.419   5.091   7.616 -0.4062  0.2075 -0.4950
   80CHL1   C18 8353   2.509   5.214   7.648 -0.7524 -0.1279 -0.3115
   80CHL1  H18A 8354   2.618   5.205   7.628 -0.3926  4.0992 -1.1808
   80CHL1  H18B 8355   2.471   5.306   7.598  0.0004 -0.1661 -0.9702
   80CHL1  H18C 8356   2.511   5.223   7.759  0.5168  0.4745 -0.3721
   80CHL1   C12 8357   2.497   4.993   7.528 -0.3393 -0.3140 -0.6011
   80CHL1  H12A 8358   2.589   4.962   7.582 -0.7865  0.5355  0.7038
   80CHL1  H12B 8359   2.429   4.906   7.516 -1.4716  0.5793 -0.8419
   80CHL1   C11 8360   2.532   5.050   7.388  0.3573  0.4028  0.0967
   80CHL1  H11A 8361   2.610   5.127   7.411  0.0454  0.5219  0.7804
   80CHL1  H11B 8362   2.581   4.970   7.328 -0.4346  0.2913 -0.4076
   80CHL1    C9 8363   2.403   5.111   7.323 -0.2878 -0.9625  0.3624
   80CHL1    H9 8364   2.328   5.031   7.305 -0.3550 -0.5918 -1.1744
   80CHL1   C10 8365   2.433   5.175   7.179 -0.1062 -0.1302 -0.1504
   80CHL1   C19 8366   2.554   5.276   7.180  0.2770  0.4984  0.5144
   80CHL1  H19A 8367   2.645   5.234   7.227 -1.5603 -1.3273  2.6732
   80CHL1  H19B 8368   2.590   5.289   7.075  2.7190  0.9899  1.3532
   80CHL1  H19C 8369   2.535   5.374   7.228 -2.9488  0.0252  0.3922
   80CHL1    C1 8370   2.465   5.048   7.087  0.6132 -0.1587 -0.3192
   80CHL1   H1A 8371   2.558   4.999   7.124  0.3579 -0.5525 -0.1856
   80CHL1   H1B 8372   2.382   4.975   7.100 -0.9296  1.1310 -2.4054
   80CHL1    C2 8373   2.472   5.077   6.937  0.0859 -0.0450 -0.8284
   80CHL1   H2A 8374   2.495   4.981   6.886 -0.5978 -0.8425  0.3217
   80CHL1   H2B 8375   2.555   5.148   6.919 -0.3654  0.6803 -0.1065
   80CHL1   C20 8376   2.449   4.995   7.853  0.9338 -0.8294 -0.4426
   80CHL1   H20 8377   2.554   5.005   7.819  0.3081 -1.0265 -2.5347
   80CHL1   C21 8378   2.430   4.844   7.879  0.4820 -1.2907 -0.0056
   80CHL1  H21A 8379   2.492   4.806   7.962  1.9088  0.2206 -0.3315
   80CHL1  H21B 8380   2.460   4.784   7.790  1.1062 -0.0108 -0.6846
   80CHL1  H21C 8381   2.327   4.814   7.910  0.4944 -0.5063  0.8267
   80CHL1   C22 8382   2.451   5.074   7.989 -1.1454  0.2912  0.6545
   80CHL1  H22A 8383   2.549   5.049   8.035 -0.4169 -0.7577 -1.3237
   80CHL1  H22B 8384   2.466   5.178   7.954 -1.6005  0.2803  0.4171
   80CHL1   C23 8385   2.336   5.064   8.087  0.2238  0.4751 -0.0399
   80CHL1  H23A 8386   2.270   5.152   8.074 -0.5145  0.5424  3.2866
   80CHL1  H23B 8387   2.278   4.973   8.064  0.5583  0.5596 -1.2913
   80CHL1   C24 8388   2.389   5.069   8.232  0.7225 -0.3626  0.1858
   80CHL1  H24A 8389   2.463   4.987   8.241 -0.0906 -1.1626 -0.3161
   80CHL1  H24B 8390   2.436   5.168   8.250 -0.0367 -0.1298  0.9454
   80CHL1   C25 8391   2.272   5.057   8.330  0.4737  0.8020  0.7053
   80CHL1   H25 8392   2.317   5.059   8.431 -1.0433 -0.4666  1.4504
   80CHL1   C26 8393   2.177   5.173   8.331 -0.6868 -0.5963  0.9698
   80CHL1  H26A 8394   2.114   5.157   8.421 -0.5333  2.6626  1.7639
   80CHL1  H26B 8395   2.226   5.271   8.349 -0.8768 -0.1361 -0.8002
   80CHL1  H26C 8396   2.102   5.189   8.251 -0.2390  0.3646  0.7357
   80CHL1   C27 8397   2.212   4.912   8.321 -0.3026 -0.4049 -0.4292
   80CHL1  H27A 8398   2.145   4.905   8.233 -2.6747 -0.8184  1.3284
   80CHL1  H27B 8399   2.303   4.849   8.307  1.7685  2.1322  0.5570
   80CHL1  H27C 8400   2.153   4.885   8.411  0.5797 -0.8275  0.0391
   81CHL1    C3 8401   6.808   6.861   6.794  0.3174 -0.2321 -0.1582
   81CHL1    H3 8402   6.737   6.947   6.797  1.3468  0.6169  0.4253
   81CHL1    O3 8403   6.855   6.835   6.661 -0.2771 -0.6556 -0.3246
   81CHL1   H3' 8404   6.917   6.763   6.676  2.4450  1.6236  0.2476
   81CHL1    C4 8405   6.917   6.917   6.894  0.2486  0.7233  0.1848
   81CHL1   H4A 8406   7.004   6.848   6.898 -0.8267 -0.6189  1.4562
   81CHL1   H4B 8407   6.961   7.011   6.855 -0.7087  0.5565 -1.4308
   81CHL1    C5 8408   6.866   6.921   7.034 -0.5179  0.0533  0.5357
   81CHL1    C6 8409   6.876   7.037   7.092 -0.5978 -0.5862 -0.3022
   81CHL1    H6 8410   6.907   7.128   7.040 -2.6842  0.0428 -0.5389
   81CHL1    C7 8411   6.838   7.052   7.239 -0.2742  0.5974  0.4684
   81CHL1   H7A 8412   6.898   7.130   7.289  0.6670  1.9894 -2.5988
   81CHL1   H7B 8413   6.731   7.080   7.253 -0.8936 -1.5434  0.3510
   81CHL1    C8 8414   6.833   6.912   7.317 -0.5300  0.6806 -0.1604
   81CHL1    H8 8415   6.938   6.882   7.336 -0.7936 -1.1653 -1.3501
   81CHL1   C14 8416   6.740   6.924   7.440 -1.0556 -0.1001 -0.2424
   81CHL1   H14 8417   6.640   6.956   7.403 -0.9358  0.5874  0.0189
   81CHL1   C15 8418   6.791   7.037   7.546 -0.2768  0.5167 -0.6931
   81CHL1  H15A 8419   6.898   7.016   7.568 -0.5532 -0.5155 -0.2664
   81CHL1  H15B 8420   6.765   7.138   7.508 -0.2345  1.2989  1.2663
   81CHL1   C16 8421   6.728   6.987   7.680  0.0623  0.3540  0.3888
   81CHL1  H16A 8422   6.805   6.984   7.759 -0.5469 -2.1567  0.9838
   81CHL1  H16B 8423   6.661   7.071   7.709 -1.7786 -0.5711 -0.9420
   81CHL1   C17 8424   6.649   6.861   7.649 -0.1631 -0.0347  0.8540
   81CHL1   H17 8425   6.554   6.904   7.609  0.4921 -1.2243 -2.2030
   81CHL1   C13 8426   6.721   6.799   7.523 -0.0097 -0.5331 -0.2534
   81CHL1   C18 8427   6.843   6.728   7.567 -0.2062 -0.1371  0.4332
   81CHL1  H18A 8428   6.910   6.705   7.482  0.4700  1.4297  0.5150
   81CHL1  H18B 8429   6.906   6.784   7.640  1.7571 -0.3244 -1.0397
   81CHL1  H18C 8430   6.814   6.636   7.622 -1.3178  0.2830  0.5667
   81CHL1   C12 8431   6.639   6.704   7.440 -0.4001  0.1190 -0.3258
   81CHL1  H12A 8432   6.629   6.613   7.502  1.2194 -0.2252 -0.5166
   81CHL1  H12B 8433   6.539   6.749   7.420  0.5958  1.9350 -1.5817
   81CHL1   C11 8434   6.714   6.682   7.305 -0.4759 -0.3219 -0.3207
   81CHL1  H11A 8435   6.801   6.617   7.329 -1.0852 -1.9459 -2.2662
   81CHL1  H11B 8436   6.656   6.616   7.237 -0.1370  1.7604 -2.7827
   81CHL1    C9 8437   6.755   6.810   7.227 -0.3629 -0.1500 -0.4049
   81CHL1    H9 8438   6.660   6.865   7.210 -0.5111 -0.3287 -0.1548
   81CHL1   C10 8439   6.819   6.787   7.093  0.5422 -0.0350  0.1345
   81CHL1   C19 8440   6.930   6.689   7.104 -0.2666 -0.0136 -0.1957
   81CHL1  H19A 8441   6.969   6.657   7.005 -0.6369 -1.0246 -0.0243
   81CHL1  H19B 8442   7.009   6.721   7.175 -0.3519 -1.5238  0.6255
   81CHL1  H19C 8443   6.888   6.600   7.155  0.5624  0.0846  0.6902
   81CHL1    C1 8444   6.711   6.735   6.989  0.3091  0.1542 -0.0612
   81CHL1   H1A 8445   6.672   6.634   7.015  0.5538 -0.0203 -0.3688
   81CHL1   H1B 8446   6.623   6.801   7.006 -0.1838 -0.6047  0.4150
   81CHL1    C2 8447   6.750   6.729   6.844 -0.1185  0.2148  0.2159
   81CHL1   H2A 8448   6.663   6.693   6.786  0.1544 -0.7774  0.4111
   81CHL1   H2B 8449   6.822   6.644   6.839 -0.0901  0.2765 -0.6408
   81CHL1   C20 8450   6.615   6.770   7.769  0.0492 -0.3592 -0.0405
   81CHL1   H20 8451   6.584   6.677   7.715  0.4199  0.9389 -2.6851
   81CHL1   C21 8452   6.488   6.843   7.826  0.4255 -0.3256  0.2450
   81CHL1  H21A 8453   6.402   6.845   7.755 -0.3646  1.8948  1.1610
   81CHL1  H21B 8454   6.512   6.947   7.855 -2.1974  0.4095  0.0602
   81CHL1  H21C 8455   6.437   6.785   7.906 -2.7957 -0.8576 -1.9555
   81CHL1   C22 8456   6.720   6.741   7.882  0.1744  0.5852 -0.0835
   81CHL1  H22A 8457   6.820   6.710   7.847  1.0651  0.5865  2.2655
   81CHL1  H22B 8458   6.741   6.842   7.925  0.7698  0.2550  0.4079
   81CHL1   C23 8459   6.660   6.655   7.993  0.2185 -0.6648 -0.2430
   81CHL1  H23A 8460   6.579   6.705   8.051  0.3281 -2.1346  1.2563
   81CHL1  H23B 8461   6.613   6.561   7.957  2.1785 -2.7277  2.1961
   81CHL1   C24 8462   6.769   6.623   8.093 -0.2352  0.1034  0.3468
   81CHL1  H24A 8463   6.834   6.559   8.030  1.3721 -0.5088  2.5085
   81CHL1  H24B 8464   6.821   6.718   8.119  1.3397 -0.4781 -0.5643
   81CHL1   C25 8465   6.723   6.536   8.207  0.3139 -0.8435 -0.7339
   81CHL1   H25 8466   6.632   6.583   8.251  1.1258 -0.7563  0.9703
   81CHL1   C26 8467   6.693   6.387   8.162  0.2904  0.4316  0.5031
   81CHL1  H26A 8468   6.670   6.333   8.256  0.5299  0.6490  0.6923
   81CHL1  H26B 8469   6.610   6.380   8.088  1.7442 -0.0853 -1.1426
   81CHL1  H26C 8470   6.788   6.347   8.121  0.2609  0.0843  0.7705
   81CHL1   C27 8471   6.820   6.518   8.319 -0.1523 -0.2468 -0.0822
   81CHL1  H27A 8472   6.775   6.476   8.411 -0.3639  0.3312  0.0863
   81CHL1  H27B 8473   6.918   6.473   8.294  0.2434  0.1152  0.7744
   81CHL1  H27C 8474   6.852   6.623   8.341  0.8950 -0.7443  0.8886
   82CHL1    C3 8475   0.513   0.039   7.121  0.0460 -0.5847 -0.2727
   82CHL1    H3 8476   0.576  -0.051   7.101  0.5080  0.1061 -2.1308
   82CHL1    O3 8477   0.486   0.113   7.002  0.9455  0.3968 -0.4960
   82CHL1   H3' 8478   0.572   0.150   6.982  1.0810  0.6068  0.4581
   82CHL1    C4 8479   0.380  -0.012   7.170  0.7848  0.2298  0.0698
   82CHL1   H4A 8480   0.305   0.069   7.165  0.6035  0.0669  0.1305
   82CHL1   H4B 8481   0.338  -0.089   7.101  1.3622 -1.3166  1.3700
   82CHL1    C5 8482   0.385  -0.067   7.314  0.0242 -1.1096 -0.3489
   82CHL1    C6 8483   0.354  -0.191   7.347 -0.5523 -0.4444 -0.3496
   82CHL1    H6 8484   0.324  -0.261   7.268  0.4706 -1.5206  0.1774
   82CHL1    C7 8485   0.362  -0.247   7.484 -0.5469 -0.3345  0.7843
   82CHL1   H7A 8486   0.294  -0.333   7.499  1.2734 -1.9564  0.2084
   82CHL1   H7B 8487   0.464  -0.292   7.489  0.0006  0.6353 -0.8953
   82CHL1    C8 8488   0.365  -0.139   7.595 -0.6564 -0.2676  0.1396
   82CHL1    H8 8489   0.272  -0.078   7.595  1.5070  3.3516  0.8419
   82CHL1   C14 8490   0.385  -0.193   7.736 -0.4594  0.1414  0.3199
   82CHL1   H14 8491   0.485  -0.241   7.728  0.8031  2.7788 -1.5362
   82CHL1   C15 8492   0.283  -0.296   7.792 -0.5642  0.2857 -0.1553
   82CHL1  H15A 8493   0.179  -0.260   7.808 -1.4357  0.0183 -4.0532
   82CHL1  H15B 8494   0.282  -0.393   7.737  1.1127 -0.2909  0.7791
   82CHL1   C16 8495   0.331  -0.309   7.936 -0.7827  0.3226  0.3511
   82CHL1  H16A 8496   0.243  -0.324   8.003 -1.1784 -2.3647 -0.6264
   82CHL1  H16B 8497   0.406  -0.391   7.945 -1.3657 -0.4187 -1.2026
   82CHL1   C17 8498   0.413  -0.179   7.974  0.0250 -0.0289  0.4624
   82CHL1   H17 8499   0.517  -0.215   7.991  0.0924  0.0789  0.2776
   82CHL1   C13 8500   0.398  -0.092   7.854 -0.1713 -0.6418  0.7964
   82CHL1   C18 8501   0.273   0.003   7.872  0.8902 -0.0648 -0.5096
   82CHL1  H18A 8502   0.295   0.101   7.920 -2.2341  1.6728 -2.3376
   82CHL1  H18B 8503   0.229   0.014   7.771  0.2063 -0.2299 -0.2301
   82CHL1  H18C 8504   0.197  -0.052   7.931  1.9931 -2.6955 -1.3893
   82CHL1   C12 8505   0.524  -0.007   7.811  0.2880  0.2083  0.3255
   82CHL1  H12A 8506   0.528   0.069   7.893 -2.2273 -2.1182  2.8402
   82CHL1  H12B 8507   0.618  -0.066   7.814  1.3021  1.4596 -2.7375
   82CHL1   C11 8508   0.511   0.066   7.676  0.3342  0.2733 -0.0409
   82CHL1  H11A 8509   0.430   0.139   7.701 -0.4556 -0.3941 -0.6087
   82CHL1  H11B 8510   0.598   0.132   7.658 -0.9346  2.0232  0.0182
   82CHL1    C9 8511   0.473  -0.034   7.560  0.3558  0.1003  0.0873
   82CHL1    H9 8512   0.567  -0.091   7.550  0.7702  0.9974 -1.4993
   82CHL1   C10 8513   0.443   0.035   7.419 -0.2578 -0.0807 -0.3291
   82CHL1   C19 8514   0.339   0.143   7.451  0.5699 -0.3635 -0.5455
   82CHL1  H19A 8515   0.257   0.096   7.509  1.4355 -0.5903  0.5152
   82CHL1  H19B 8516   0.385   0.220   7.516 -1.3538  0.3179  0.0736
   82CHL1  H19C 8517   0.290   0.197   7.367  0.7240  0.6580  0.0123
   82CHL1    C1 8518   0.584   0.081   7.365 -0.3230 -0.0847 -0.1327
   82CHL1   H1A 8519   0.625   0.162   7.428 -2.1656  0.4241  0.4839
   82CHL1   H1B 8520   0.649  -0.007   7.378  0.6623  0.8763  1.8105
   82CHL1    C2 8521   0.583   0.131   7.217 -0.4077 -0.5548  0.3252
   82CHL1   H2A 8522   0.689   0.140   7.185 -0.2647 -0.8424  0.7104
   82CHL1   H2B 8523   0.539   0.233   7.219  2.2032  0.6578  1.2527
   82CHL1   C20 8524   0.385  -0.125   8.113  0.1014 -0.4563  0.4022
   82CHL1   H20 8525   0.281  -0.089   8.126 -0.3519 -2.4789  3.3456
   82CHL1   C21 8526   0.478  -0.004   8.137 -0.6472  0.0225  0.8453
   82CHL1  H21A 8527   0.467   0.013   8.246 -0.9545 -1.1478  1.0102
   82CHL1  H21B 8528   0.443   0.091   8.091  0.4464 -0.1897 -0.4722
   82CHL1  H21C 8529   0.583  -0.032   8.113  0.0932  0.1434  3.5415
   82CHL1   C22 8530   0.393  -0.226   8.233  0.2963 -0.2022 -0.2701
   82CHL1  H22A 8531   0.389  -0.166   8.326  0.3598 -1.9288  0.8892
   82CHL1  H22B 8532   0.295  -0.278   8.223  0.6974 -0.8246 -1.1359
   82CHL1   C23 8533   0.506  -0.323   8.244 -0.1469  0.5410  0.1835
   82CHL1  H23A 8534   0.524  -0.393   8.159  0.3166 -1.3602  1.7505
   82CHL1  H23B 8535   0.597  -0.259   8.246 -0.6237  1.2138  1.1354
   82CHL1   C24 8536   0.494  -0.417   8.361  0.5244 -0.2951  0.1062
   82CHL1  H24A 8537   0.492  -0.360   8.457 -0.7539  0.0159 -0.0984
   82CHL1  H24B 8538   0.402  -0.478   8.370  0.9024 -0.6734  2.0129
   82CHL1   C25 8539   0.601  -0.531   8.362 -0.2486  0.0878 -0.3642
   82CHL1   H25 8540   0.704  -0.490   8.348 -0.3768 -0.5491 -4.4772
   82CHL1   C26 8541   0.601  -0.603   8.504 -0.3484 -0.7206  0.3529
   82CHL1  H26A 8542   0.697  -0.655   8.526  0.9281  1.7693  1.0688
   82CHL1  H26B 8543   0.583  -0.533   8.589 -2.9514 -0.7124 -0.1321
   82CHL1  H26C 8544   0.522  -0.680   8.508 -0.2936 -0.7417  1.1681
   82CHL1   C27 8545   0.595  -0.635   8.249 -0.2344  0.1231  0.9840
   82CHL1  H27A 8546   0.499  -0.691   8.244 -0.3590  0.4080  0.2054
   82CHL1  H27B 8547   0.599  -0.575   8.156  1.7357  2.0746  2.2459
   82CHL1  H27C 8548   0.685  -0.700   8.242  0.3751  1.0040  0.5924
   83CHL1    C3 8549   4.112   0.276   6.669  0.6156 -0.1304 -0.5206
   83CHL1    H3 8550   4.201   0.334   6.700 -0.2626  1.6169 -1.0988
   83CHL1    O3 8551   4.095   0.303   6.534 -0.0044 -0.7576  0.6608
   83CHL1   H3' 8552   4.005   0.283   6.509 -0.3968  2.4807 -1.0316
   83CHL1    C4 8553   4.147   0.129   6.689  0.3973 -0.1013  0.3240
   83CHL1   H4A 8554   4.077   0.057   6.640  1.3129 -0.1109 -1.0169
   83CHL1   H4B 8555   4.240   0.105   6.634 -0.8457  0.0340 -1.9795
   83CHL1    C5 8556   4.157   0.109   6.834  0.4571  0.2639 -0.3718
   83CHL1    C6 8557   4.266   0.058   6.890  0.0506 -0.2926 -0.5627
   83CHL1    H6 8558   4.347   0.027   6.822  1.2670  1.0484  0.2378
   83CHL1    C7 8559   4.291   0.032   7.039 -0.5684 -0.0694  1.0566
   83CHL1   H7A 8560   4.350  -0.062   7.047  0.8500  0.8556  2.0652
   83CHL1   H7B 8561   4.355   0.109   7.087 -1.5418  1.3358  0.1650
   83CHL1    C8 8562   4.151   0.020   7.107  0.7991  0.5623 -0.0265
   83CHL1    H8 8563   4.101  -0.077   7.084  0.2628  0.0241  3.0562
   83CHL1   C14 8564   4.171   0.026   7.260 -0.4888 -0.6709 -0.4527
   83CHL1   H14 8565   4.227   0.121   7.275  1.4154 -1.7999 -0.0769
   83CHL1   C15 8566   4.269  -0.077   7.325 -0.3019  0.3224  0.6537
   83CHL1  H15A 8567   4.260  -0.183   7.291 -2.8516  0.5253  0.4525
   83CHL1  H15B 8568   4.373  -0.045   7.304 -0.6050 -0.2144 -2.0577
   83CHL1   C16 8569   4.244  -0.076   7.474  0.4381 -0.2477  0.0912
   83CHL1  H16A 8570   4.209  -0.180   7.489  1.3009 -0.7657 -1.3339
   83CHL1  H16B 8571   4.338  -0.050   7.527  2.0499 -3.6588 -0.8522
   83CHL1   C17 8572   4.126   0.022   7.490 -0.1596  0.0371  0.9158
   83CHL1   H17 8573   4.174   0.121   7.507 -0.1975  0.0710  0.8216
   83CHL1   C13 8574   4.052   0.035   7.353 -0.3843 -0.1351  1.2052
   83CHL1   C18 8575   3.963  -0.079   7.320  0.5035  0.2949 -0.2355
   83CHL1  H18A 8576   3.862  -0.080   7.366  0.0358 -1.7164 -1.2076
   83CHL1  H18B 8577   3.942  -0.088   7.211  2.8861 -1.3834 -0.6304
   83CHL1  H18C 8578   4.011  -0.175   7.350  0.6159 -0.2611 -2.0723
   83CHL1   C12 8579   3.986   0.164   7.316 -0.2803 -0.1363  0.3901
   83CHL1  H12A 8580   3.888   0.182   7.366 -1.3727 -0.2304 -1.6074
   83CHL1  H12B 8581   4.053   0.249   7.340 -1.2380  0.6718  0.2623
   83CHL1   C11 8582   3.951   0.173   7.169  0.3060 -0.1727  0.0529
   83CHL1  H11A 8583   3.858   0.117   7.147  0.0089  0.9455 -1.7288
   83CHL1  H11B 8584   3.930   0.281   7.155  2.7671  0.0216 -3.5657
   83CHL1    C9 8585   4.070   0.148   7.069  0.0721 -0.3768 -0.1113
   83CHL1    H9 8586   4.147   0.228   7.082 -1.6705  1.3437  0.1011
   83CHL1   C10 8587   4.031   0.153   6.924 -0.0396 -0.1868 -0.0002
   83CHL1   C19 8588   3.906   0.063   6.899 -0.0972 -0.2493  0.1216
   83CHL1  H19A 8589   3.922  -0.040   6.938 -0.5956 -0.7404 -0.9532
   83CHL1  H19B 8590   3.818   0.105   6.952  0.7760  0.0068  1.4368
   83CHL1  H19C 8591   3.883   0.062   6.791 -0.5250  0.5118  0.2001
   83CHL1    C1 8592   3.993   0.298   6.879 -0.1401  0.0407  0.1114
   83CHL1   H1A 8593   3.894   0.329   6.921 -1.4688 -0.3443 -2.5265
   83CHL1   H1B 8594   4.077   0.358   6.920  1.6733 -1.5876 -1.0706
   83CHL1    C2 8595   3.984   0.332   6.732  0.2065  0.3932 -0.0342
   83CHL1   H2A 8596   3.958   0.438   6.711 -0.0135 -0.3225 -4.4551
   83CHL1   H2B 8597   3.893   0.276   6.701 -1.2143  1.9942  1.0244
   83CHL1   C20 8598   4.029  -0.011   7.607 -0.7638  0.1441  0.2610
   83CHL1   H20 8599   3.961  -0.094   7.581 -0.8460  0.9913 -2.5185
   83CHL1   C21 8600   3.941   0.104   7.643 -0.6726 -0.2647 -0.5529
   83CHL1  H21A 8601   3.881   0.086   7.735  0.4179  0.8117  0.4155
   83CHL1  H21B 8602   3.867   0.119   7.562 -0.6270 -1.7219 -0.8903
   83CHL1  H21C 8603   3.996   0.197   7.672 -1.6709 -0.7867  3.7014
   83CHL1   C22 8604   4.104  -0.060   7.736 -0.0560  0.0119  0.3228
   83CHL1  H22A 8605   4.170  -0.139   7.695  0.0980  0.1103  0.3837
   83CHL1  H22B 8606   4.163   0.022   7.781  2.7152 -2.0679  0.7264
   83CHL1   C23 8607   4.007  -0.118   7.838 -0.8496  0.4751  0.0571
   83CHL1  H23A 8608   3.957  -0.028   7.881  1.4644  1.9618 -0.1533
   83CHL1  H23B 8609   3.944  -0.197   7.794 -1.0026  0.8033 -0.3138
   83CHL1   C24 8610   4.086  -0.198   7.950 -0.2503  0.6603  0.6866
   83CHL1  H24A 8611   4.150  -0.275   7.901  0.3074  0.6903  1.3520
   83CHL1  H24B 8612   4.159  -0.126   7.992  0.6074  1.2462 -1.6474
   83CHL1   C25 8613   4.001  -0.277   8.053  0.0627 -0.0009 -0.1996
   83CHL1   H25 8614   3.930  -0.203   8.097  0.2038 -1.7986  3.4110
   83CHL1   C26 8615   3.925  -0.394   7.987  0.2546  0.1578 -0.2159
   83CHL1  H26A 8616   3.989  -0.471   7.940  0.3651  1.0762 -1.6589
   83CHL1  H26B 8617   3.867  -0.446   8.067  1.1316 -0.5234 -0.0119
   83CHL1  H26C 8618   3.863  -0.345   7.908  1.2844  2.2700  0.1931
   83CHL1   C27 8619   4.093  -0.321   8.168 -0.5907  0.0905 -0.2598
   83CHL1  H27A 8620   4.135  -0.236   8.227 -2.8996  1.5994 -0.6348
   83CHL1  H27B 8621   4.033  -0.384   8.237 -3.6991  0.2296 -2.6048
   83CHL1  H27C 8622   4.179  -0.381   8.133 -1.0437 -0.2281 -0.8347
   84CHL1    C3 8623   5.373   3.826   6.833 -0.3801 -0.0027 -0.7393
   84CHL1    H3 8624   5.275   3.877   6.840  0.1255  0.7789  2.4451
   84CHL1    O3 8625   5.416   3.814   6.699 -0.0349 -0.1125  0.3092
   84CHL1   H3' 8626   5.337   3.780   6.657 -0.7653  2.0910 -0.2257
   84CHL1    C4 8627   5.471   3.924   6.906 -0.4313  0.2228 -0.1521
   84CHL1   H4A 8628   5.576   3.902   6.878 -0.7082 -0.7773 -0.4338
   84CHL1   H4B 8629   5.455   4.028   6.871  1.1383  1.3739  2.2943
   84CHL1    C5 8630   5.453   3.927   7.060 -0.1221  0.0698  0.0925
   84CHL1    C6 8631   5.421   4.033   7.126 -0.1388 -1.3866 -0.0490
   84CHL1    H6 8632   5.421   4.133   7.080  2.3401 -1.3964 -0.2087
   84CHL1    C7 8633   5.413   4.050   7.273 -0.3430 -0.2305 -0.3533
   84CHL1   H7A 8634   5.463   4.144   7.305 -0.5433  0.3831 -1.7742
   84CHL1   H7B 8635   5.306   4.062   7.299 -0.3564 -0.5624 -0.2420
   84CHL1    C8 8636   5.472   3.929   7.349  0.3360  0.4606 -0.4520
   84CHL1    H8 8637   5.583   3.925   7.345  0.2896 -0.3555 -1.8121
   84CHL1   C14 8638   5.413   3.932   7.498  0.5961 -0.0830 -0.5356
   84CHL1   H14 8639   5.304   3.954   7.496  0.5000 -0.5579 -0.5394
   84CHL1   C15 8640   5.455   4.051   7.585 -0.1653  0.7202  0.2124
   84CHL1  H15A 8641   5.560   4.076   7.556  0.1986 -1.6921 -0.7175
   84CHL1  H15B 8642   5.387   4.134   7.558  0.7488  1.6392  0.6312
   84CHL1   C16 8643   5.429   4.001   7.730 -0.6886  0.1623  0.0329
   84CHL1  H16A 8644   5.524   4.016   7.786 -0.2903  1.9368 -1.0405
   84CHL1  H16B 8645   5.358   4.059   7.792 -0.2180  0.2880  0.4673
   84CHL1   C17 8646   5.382   3.850   7.714  0.1006  0.1051  0.2551
   84CHL1   H17 8647   5.272   3.858   7.702 -0.0797 -1.6050  0.5414
   84CHL1   C13 8648   5.445   3.807   7.582  0.2741  0.0829  0.3639
   84CHL1   C18 8649   5.598   3.801   7.592 -0.3655  0.2961  0.2369
   84CHL1  H18A 8650   5.625   3.701   7.631  0.0612 -0.2175 -1.3215
   84CHL1  H18B 8651   5.652   3.807   7.496 -2.1865  2.3310 -0.7492
   84CHL1  H18C 8652   5.643   3.876   7.661 -0.5143  1.4076 -0.8421
   84CHL1   C12 8653   5.389   3.683   7.507  0.2059 -0.1170  0.0465
   84CHL1  H12A 8654   5.414   3.583   7.548  0.2489 -0.1403 -0.0369
   84CHL1  H12B 8655   5.280   3.704   7.509  0.1330 -0.5192  0.4086
   84CHL1   C11 8656   5.422   3.675   7.353 -0.0640  0.2442 -0.4794
   84CHL1  H11A 8657   5.532   3.658   7.352  0.0095 -0.0803  2.4840
   84CHL1  H11B 8658   5.361   3.596   7.304 -0.9809  2.0179 -2.3454
   84CHL1    C9 8659   5.412   3.808   7.275 -0.1297 -0.5979 -0.1111
   84CHL1    H9 8660   5.303   3.832   7.270 -0.2823 -0.9425  1.1306
   84CHL1   C10 8661   5.461   3.787   7.128  0.2062 -0.5502  0.2362
   84CHL1   C19 8662   5.613   3.737   7.138 -0.5820 -0.2506  0.2177
   84CHL1  H19A 8663   5.625   3.633   7.175 -1.1890 -0.1494  0.7152
   84CHL1  H19B 8664   5.666   3.736   7.040  1.0710  0.0389  1.0840
   84CHL1  H19C 8665   5.673   3.797   7.209 -0.9744 -1.6195  1.7768
   84CHL1    C1 8666   5.371   3.685   7.053  0.4414  0.4014  0.6624
   84CHL1   H1A 8667   5.387   3.581   7.089  0.9253  0.1083 -0.3667
   84CHL1   H1B 8668   5.264   3.713   7.058  0.3853 -0.0218  3.7565
   84CHL1    C2 8669   5.390   3.685   6.896  0.3435  0.2441  0.2174
   84CHL1   H2A 8670   5.326   3.611   6.843  0.0666  0.6652 -0.0422
   84CHL1   H2B 8671   5.493   3.646   6.881 -0.3848 -1.3556 -0.9117
   84CHL1   C20 8672   5.423   3.769   7.834  0.8295 -0.3660  0.0777
   84CHL1   H20 8673   5.533   3.756   7.847  0.8316 -0.5738 -0.1387
   84CHL1   C21 8674   5.362   3.626   7.830  0.6845  0.3012  0.0728
   84CHL1  H21A 8675   5.376   3.571   7.926 -1.1547 -3.8017 -1.7874
   84CHL1  H21B 8676   5.416   3.575   7.748 -0.7784 -1.2845  0.0380
   84CHL1  H21C 8677   5.252   3.616   7.818  0.7420 -2.3313  1.1034
   84CHL1   C22 8678   5.385   3.835   7.971  0.2263  0.3904 -0.3474
   84CHL1  H22A 8679   5.415   3.771   8.057 -0.4597  1.7268  0.9087
   84CHL1  H22B 8680   5.437   3.932   7.984  1.4834 -0.3590  0.5049
   84CHL1   C23 8681   5.236   3.869   7.998  0.4033 -0.2184  0.0809
   84CHL1  H23A 8682   5.188   3.922   7.913  0.6299  0.3631  0.3103
   84CHL1  H23B 8683   5.173   3.782   8.026  0.5852 -0.2424  0.4186
   84CHL1   C24 8684   5.216   3.960   8.118 -0.9909 -0.0626 -0.3262
   84CHL1  H24A 8685   5.218   3.900   8.211  0.3070 -0.0120 -0.3051
   84CHL1  H24B 8686   5.302   4.030   8.128 -1.4340  0.8526 -2.3780
   84CHL1   C25 8687   5.087   4.038   8.118 -0.4132 -0.5011  0.1678
   84CHL1   H25 8688   5.084   4.115   8.038  2.1205  0.6595  1.0788
   84CHL1   C26 8689   4.960   3.950   8.133 -1.2626 -0.4579 -0.7119
   84CHL1  H26A 8690   4.956   3.872   8.054 -0.5815 -0.7159 -0.5067
   84CHL1  H26B 8691   4.964   3.909   8.236  1.8481 -1.6853 -1.1928
   84CHL1  H26C 8692   4.869   4.013   8.124  0.8381  3.1397  1.0872
   84CHL1   C27 8693   5.073   4.140   8.236 -0.3775 -1.1967 -0.2474
   84CHL1  H27A 8694   4.991   4.214   8.223 -0.6463 -1.3927  0.3119
   84CHL1  H27B 8695   5.073   4.079   8.329  1.8828 -4.3561 -2.1107
   84CHL1  H27C 8696   5.163   4.206   8.239 -0.4399 -1.1278  2.6219
   85CHL1    C3 8697   4.779   6.115   6.760  0.5981  0.2020 -0.3069
   85CHL1    H3 8698   4.850   6.198   6.781  0.2441  0.5783 -0.5842
   85CHL1    O3 8699   4.752   6.105   6.624  0.0863 -0.2470  0.6024
   85CHL1   H3' 8700   4.703   6.024   6.605  1.9784 -1.4747  0.5898
   85CHL1    C4 8701   4.837   5.981   6.814  0.4632 -0.3572  0.7550
   85CHL1   H4A 8702   4.789   5.889   6.777  2.9786 -0.8942 -1.4409
   85CHL1   H4B 8703   4.941   5.970   6.775 -0.1237  0.5539 -1.1574
   85CHL1    C5 8704   4.840   5.988   6.963 -0.1689  0.4143 -0.6200
   85CHL1    C6 8705   4.957   5.976   7.031  0.4790  0.0239 -0.3559
   85CHL1    H6 8706   5.043   5.965   6.964 -0.5924 -2.0664 -1.4905
   85CHL1    C7 8707   4.976   5.985   7.178 -0.1989  0.1892  0.3872
   85CHL1   H7A 8708   5.058   5.922   7.217  1.8977  1.5095 -1.6822
   85CHL1   H7B 8709   5.016   6.088   7.193  1.5964 -0.1388 -1.7233
   85CHL1    C8 8710   4.841   5.966   7.248  0.2594  0.1179 -0.3211
   85CHL1    H8 8711   4.814   5.858   7.238 -1.0696  0.4935 -1.1218
   85CHL1   C14 8712   4.851   6.000   7.399  0.3285  0.3806  0.1142
   85CHL1   H14 8713   4.879   6.107   7.400 -1.1687  0.7951  0.1163
   85CHL1   C15 8714   4.949   5.930   7.489  1.1234 -0.6144 -0.3014
   85CHL1  H15A 8715   4.955   5.824   7.457 -0.6904 -1.3547  1.5922
   85CHL1  H15B 8716   5.053   5.968   7.482  0.6703  0.4002 -2.2192
   85CHL1   C16 8717   4.911   5.940   7.634  1.2438  0.0667  0.1379
   85CHL1  H16A 8718   4.917   5.841   7.684  1.3500  0.9808  2.0365
   85CHL1  H16B 8719   4.959   6.017   7.698 -2.3866  2.4036  0.3403
   85CHL1   C17 8720   4.767   6.009   7.621 -0.8794  0.2077  0.1035
   85CHL1   H17 8721   4.798   6.115   7.631 -2.1503  0.6210 -0.1303
   85CHL1   C13 8722   4.715   5.993   7.472  0.1706 -0.3316 -0.2968
   85CHL1   C18 8723   4.649   5.848   7.449 -0.2631 -0.0077 -0.3583
   85CHL1  H18A 8724   4.546   5.848   7.489  0.0052 -1.2449  0.3848
   85CHL1  H18B 8725   4.646   5.806   7.347  2.4213 -3.7145  0.8621
   85CHL1  H18C 8726   4.705   5.778   7.515 -0.3339  1.4025  1.2826
   85CHL1   C12 8727   4.630   6.108   7.416  0.0294  0.4406 -0.1422
   85CHL1  H12A 8728   4.535   6.116   7.474  0.4943 -2.5970  1.2734
   85CHL1  H12B 8729   4.687   6.203   7.426 -1.9345  1.6981 -0.3425
   85CHL1   C11 8730   4.597   6.084   7.276  0.4810 -0.0406  0.6815
   85CHL1  H11A 8731   4.522   6.002   7.273  1.7110 -1.2410  1.6939
   85CHL1  H11B 8732   4.550   6.176   7.234  1.0831 -1.4967 -3.7563
   85CHL1    C9 8733   4.731   6.060   7.189 -0.3942  0.4480  0.6042
   85CHL1    H9 8734   4.776   6.162   7.189 -0.3743  0.4501 -0.4599
   85CHL1   C10 8735   4.707   6.027   7.040  0.1898  0.0977  0.1114
   85CHL1   C19 8736   4.613   5.908   7.038 -0.2271  0.4140 -0.1979
   85CHL1  H19A 8737   4.589   5.869   6.937  0.5764  0.2387 -0.3285
   85CHL1  H19B 8738   4.648   5.825   7.103 -0.2259  0.1789 -0.5030
   85CHL1  H19C 8739   4.508   5.937   7.062 -0.2037  2.8779 -2.5416
   85CHL1    C1 8740   4.651   6.157   6.977  0.8508  0.4318 -0.0711
   85CHL1   H1A 8741   4.547   6.170   7.012 -0.3964  0.2152 -3.3294
   85CHL1   H1B 8742   4.719   6.243   6.996  2.0398 -0.1897 -1.2561
   85CHL1    C2 8743   4.644   6.150   6.825  0.0281  0.6318  0.8733
   85CHL1   H2A 8744   4.604   6.240   6.774  1.7295  0.3666 -1.1039
   85CHL1   H2B 8745   4.568   6.075   6.798  1.6602 -2.8536  4.8688
   85CHL1   C20 8746   4.672   5.975   7.739  0.0342  0.2757  0.3982
   85CHL1   H20 8747   4.626   5.875   7.725 -0.0796  0.3652  0.1245
   85CHL1   C21 8748   4.546   6.065   7.737 -0.0635 -0.1834 -0.2665
   85CHL1  H21A 8749   4.472   6.039   7.658  0.3843  1.6794 -1.3528
   85CHL1  H21B 8750   4.589   6.166   7.722  2.1585 -1.2928 -1.9878
   85CHL1  H21C 8751   4.493   6.068   7.834 -1.1834  0.6810 -0.8781
   85CHL1   C22 8752   4.736   5.982   7.879  1.2790  0.9544  0.3428
   85CHL1  H22A 8753   4.663   5.946   7.955  0.1836  1.5514 -0.3892
   85CHL1  H22B 8754   4.818   5.908   7.869  0.2058 -0.0161 -2.0735
   85CHL1   C23 8755   4.796   6.124   7.919 -0.6447 -0.4820  0.3351
   85CHL1  H23A 8756   4.834   6.166   7.824 -0.2052 -0.7345  0.3982
   85CHL1  H23B 8757   4.717   6.196   7.949  0.1980  1.0535 -1.0137
   85CHL1   C24 8758   4.905   6.108   8.022  0.1083 -0.4333 -0.1063
   85CHL1  H24A 8759   4.954   6.011   7.998 -0.3854 -0.6377 -0.3052
   85CHL1  H24B 8760   4.977   6.190   8.006 -1.0081  0.9257  1.5513
   85CHL1   C25 8761   4.855   6.115   8.165 -0.2061  0.3634 -0.7298
   85CHL1   H25 8762   4.749   6.083   8.169 -0.9299  2.6235  2.0622
   85CHL1   C26 8763   4.943   6.035   8.258  0.7806 -1.0464 -0.1871
   85CHL1  H26A 8764   4.920   6.053   8.365  1.3995 -1.7156  0.0684
   85CHL1  H26B 8765   4.942   5.926   8.236  0.8367 -1.3034  1.0247
   85CHL1  H26C 8766   5.045   6.071   8.235  0.2876  0.8055  0.3559
   85CHL1   C27 8767   4.859   6.261   8.209 -0.0247  1.2912 -0.0203
   85CHL1  H27A 8768   4.955   6.307   8.175 -1.0581  1.7334 -2.5754
   85CHL1  H27B 8769   4.782   6.326   8.161 -1.3277 -0.0960  0.1288
   85CHL1  H27C 8770   4.848   6.259   8.320  0.4971 -0.6910  0.0196
   86CHL1    C3 8771   6.836   5.747   6.452  0.8489  0.2002  0.1537
   86CHL1    H3 8772   6.904   5.659   6.441  1.2698  0.3743  1.2617
   86CHL1    O3 8773   6.788   5.802   6.331 -0.1116  0.0495 -0.3925
   86CHL1   H3' 8774   6.727   5.730   6.312  1.1190 -1.3929  0.9225
   86CHL1    C4 8775   6.711   5.700   6.534 -0.4020 -0.2064  0.4327
   86CHL1   H4A 8776   6.630   5.776   6.544 -0.6848 -0.7060  2.3596
   86CHL1   H4B 8777   6.654   5.625   6.476 -1.1883  3.2600 -3.8080
   86CHL1    C5 8778   6.758   5.647   6.671 -0.2750 -0.8143  0.5970
   86CHL1    C6 8779   6.732   5.523   6.709 -0.0857  0.2683 -0.0954
   86CHL1    H6 8780   6.668   5.463   6.643  0.7008  0.1454 -0.7717
   86CHL1    C7 8781   6.770   5.467   6.843  0.0391  0.3433  0.2397
   86CHL1   H7A 8782   6.679   5.414   6.880  0.6427 -0.9121 -0.0401
   86CHL1   H7B 8783   6.856   5.399   6.832 -0.5226 -0.6720  1.8531
   86CHL1    C8 8784   6.808   5.576   6.950  0.0946 -0.4011  0.5122
   86CHL1    H8 8785   6.714   5.628   6.979 -0.4633 -0.8388 -0.4497
   86CHL1   C14 8786   6.870   5.508   7.065  0.1898  0.5286 -0.1251
   86CHL1   H14 8787   6.960   5.456   7.026 -0.7500 -0.4902 -0.9662
   86CHL1   C15 8788   6.796   5.400   7.149 -0.0146 -0.3480 -0.3283
   86CHL1  H15A 8789   6.689   5.430   7.160  0.2413  0.7908 -0.8147
   86CHL1  H15B 8790   6.797   5.301   7.099  0.7330 -0.9725  0.8942
   86CHL1   C16 8791   6.859   5.411   7.286  0.5408 -0.8369  0.0394
   86CHL1  H16A 8792   6.782   5.435   7.362 -0.9626 -2.9106 -0.7397
   86CHL1  H16B 8793   6.899   5.321   7.335  0.2140 -0.8497  0.2892
   86CHL1   C17 8794   6.974   5.513   7.270  1.0192  0.5421 -0.1248
   86CHL1   H17 8795   7.056   5.459   7.218 -0.7042 -0.6956 -1.6979
   86CHL1   C13 8796   6.926   5.609   7.168 -0.6701  0.1520 -0.0812
   86CHL1   C18 8797   6.806   5.685   7.235 -0.0330  0.2612 -0.5516
   86CHL1  H18A 8798   6.772   5.761   7.162  2.4994  3.7502  1.5860
   86CHL1  H18B 8799   6.718   5.623   7.263  0.8886 -0.0490  1.8970
   86CHL1  H18C 8800   6.847   5.740   7.322  0.8857  0.5010 -1.1286
   86CHL1   C12 8801   7.031   5.704   7.095  0.9316  0.0195 -0.5809
   86CHL1  H12A 8802   7.073   5.779   7.165 -0.3024 -0.0718  0.2828
   86CHL1  H12B 8803   7.113   5.644   7.050  0.5568 -0.2709 -0.8843
   86CHL1   C11 8804   6.955   5.774   6.988  0.0523 -0.5562 -0.5276
   86CHL1  H11A 8805   6.878   5.843   7.030  0.5885 -1.3229  1.8629
   86CHL1  H11B 8806   7.028   5.836   6.932  1.5988 -2.7228 -0.9982
   86CHL1    C9 8807   6.895   5.675   6.884 -0.2676  0.3136  0.6799
   86CHL1    H9 8808   6.982   5.614   6.852 -0.1981 -0.6443  2.5352
   86CHL1   C10 8809   6.837   5.740   6.754 -1.0210 -0.6395  0.7271
   86CHL1   C19 8810   6.742   5.858   6.796  0.6066 -0.9275 -0.8971
   86CHL1  H19A 8811   6.660   5.824   6.864  0.0713 -0.0454 -1.0922
   86CHL1  H19B 8812   6.811   5.927   6.849  1.1857 -2.2683  0.1702
   86CHL1  H19C 8813   6.695   5.910   6.711 -0.9736 -0.1803  0.3781
   86CHL1    C1 8814   6.959   5.795   6.669  0.7743 -0.1723  0.1327
   86CHL1   H1A 8815   7.006   5.874   6.732 -1.0332  0.2630  0.9802
   86CHL1   H1B 8816   7.039   5.721   6.645 -1.0329 -1.5231 -2.1684
   86CHL1    C2 8817   6.912   5.852   6.535  0.2630 -0.2055 -0.1669
   86CHL1   H2A 8818   7.004   5.880   6.480  2.5489 -0.6962  3.0781
   86CHL1   H2B 8819   6.856   5.946   6.553  1.5813  0.0597  3.6175
   86CHL1   C20 8820   7.040   5.574   7.395 -0.0401 -0.5251 -0.3969
   86CHL1   H20 8821   7.075   5.679   7.382  0.4758 -0.1202  3.1722
   86CHL1   C21 8822   7.172   5.493   7.421 -0.3078 -0.7040 -0.7020
   86CHL1  H21A 8823   7.138   5.397   7.464  2.6844 -1.3144  0.5953
   86CHL1  H21B 8824   7.229   5.552   7.496  2.2410 -0.4048 -2.7127
   86CHL1  H21C 8825   7.225   5.481   7.324 -0.4312 -1.7834 -0.6370
   86CHL1   C22 8826   6.955   5.572   7.524  0.5314 -0.0491 -0.1841
   86CHL1  H22A 8827   6.845   5.581   7.512  0.1832 -3.6099 -0.7053
   86CHL1  H22B 8828   6.963   5.472   7.571 -1.3863  0.1573  0.6647
   86CHL1   C23 8829   7.004   5.676   7.631 -0.6639  0.0158 -0.8236
   86CHL1  H23A 8830   7.103   5.721   7.608 -0.6357 -0.0291 -0.7898
   86CHL1  H23B 8831   6.925   5.754   7.631 -2.6810 -1.8977  0.1767
   86CHL1   C24 8832   7.013   5.631   7.777  0.1327 -0.3995  0.3898
   86CHL1  H24A 8833   7.064   5.533   7.772  1.2974  0.1963  0.0549
   86CHL1  H24B 8834   7.081   5.695   7.838 -0.8322  0.6140  0.4364
   86CHL1   C25 8835   6.879   5.620   7.848  0.5583  1.0107 -0.4892
   86CHL1   H25 8836   6.805   5.570   7.782  2.0269 -2.7938  0.4805
   86CHL1   C26 8837   6.878   5.535   7.974  0.0585  0.3885  0.7613
   86CHL1  H26A 8838   6.941   5.597   8.040  0.5151  0.8641 -0.0970
   86CHL1  H26B 8839   6.775   5.514   8.010  0.4183 -2.6659  0.2504
   86CHL1  H26C 8840   6.933   5.440   7.959  0.3666  0.6825 -0.0535
   86CHL1   C27 8841   6.826   5.767   7.886  0.3564 -0.1602  0.5901
   86CHL1  H27A 8842   6.727   5.759   7.935 -1.1197 -0.2964 -2.1805
   86CHL1  H27B 8843   6.898   5.812   7.958  1.0988  0.6986 -0.6475
   86CHL1  H27C 8844   6.818   5.837   7.800  2.8084  0.5151  0.8257
   87CHL1    C3 8845   0.993   4.309   6.800 -0.3188 -0.5146 -0.0519
   87CHL1    H3 8846   1.044   4.211   6.809  0.8731  0.0914 -0.0304
   87CHL1    O3 8847   0.988   4.360   6.668 -0.2470  0.5511 -0.0200
   87CHL1   H3' 8848   0.948   4.447   6.674 -0.4079  0.3955  1.7028
   87CHL1    C4 8849   0.852   4.276   6.852 -0.0042 -0.0033  0.0678
   87CHL1   H4A 8850   0.790   4.367   6.858 -0.6710 -0.5516  2.5944
   87CHL1   H4B 8851   0.805   4.209   6.777  1.7234 -2.1814  0.7839
   87CHL1    C5 8852   0.853   4.210   6.989  0.3078  0.2517  0.2123
   87CHL1    C6 8853   0.826   4.078   7.003  0.0790  0.9814  0.3981
   87CHL1    H6 8854   0.789   4.023   6.915  2.2471  0.6833 -0.3862
   87CHL1    C7 8855   0.831   4.009   7.138 -0.0623  0.4253  0.2815
   87CHL1   H7A 8856   0.749   3.935   7.147 -1.3641  1.1388 -3.6026
   87CHL1   H7B 8857   0.920   3.942   7.135 -0.2440  0.0941  1.6336
   87CHL1    C8 8858   0.841   4.104   7.256 -0.3077 -0.3241 -0.4961
   87CHL1    H8 8859   0.747   4.163   7.261  1.2044  2.2303 -0.6688
   87CHL1   C14 8860   0.853   4.042   7.397 -0.4331  0.4650 -0.1187
   87CHL1   H14 8861   0.939   3.972   7.387 -1.3813 -0.5592 -1.3368
   87CHL1   C15 8862   0.738   3.951   7.435 -0.2110  0.8494  0.4309
   87CHL1  H15A 8863   0.640   4.001   7.420 -0.9358 -1.0879 -1.8352
   87CHL1  H15B 8864   0.751   3.857   7.377 -1.0520  1.0629 -0.1213
   87CHL1   C16 8865   0.756   3.944   7.588  0.2800 -0.2786  0.1156
   87CHL1  H16A 8866   0.661   3.971   7.639 -1.1814 -0.7547 -2.2496
   87CHL1  H16B 8867   0.785   3.847   7.633 -0.3905 -0.7328 -0.4304
   87CHL1   C17 8868   0.858   4.051   7.634 -0.0390  0.1373 -0.5009
   87CHL1   H17 8869   0.955   3.997   7.645 -0.4976 -0.6339 -0.1773
   87CHL1   C13 8870   0.871   4.143   7.510  0.6980  0.6828 -0.1844
   87CHL1   C18 8871   0.756   4.240   7.522  0.3430 -0.2630  0.0582
   87CHL1  H18A 8872   0.672   4.195   7.579  0.1980 -0.1596 -0.0728
   87CHL1  H18B 8873   0.783   4.332   7.579 -1.9948  0.5959 -0.1155
   87CHL1  H18C 8874   0.704   4.271   7.429 -0.3553 -0.9910  0.2046
   87CHL1   C12 8875   1.005   4.208   7.488 -0.1837 -0.8285 -0.4190
   87CHL1  H12A 8876   1.035   4.279   7.568 -1.9674  1.5845 -1.7621
   87CHL1  H12B 8877   1.077   4.125   7.472 -2.0410 -3.3482  2.8580
   87CHL1   C11 8878   1.005   4.288   7.358 -0.2096  0.2066 -0.1853
   87CHL1  H11A 8879   0.941   4.377   7.375  0.7003  0.6833  0.9217
   87CHL1  H11B 8880   1.106   4.328   7.336 -0.8499  1.3811 -1.0707
   87CHL1    C9 8881   0.956   4.204   7.230 -0.9468 -0.7356  1.0734
   87CHL1    H9 8882   1.043   4.142   7.202  0.1213  2.0898 -2.6145
   87CHL1   C10 8883   0.918   4.291   7.102 -0.5628 -0.4978  0.7564
   87CHL1   C19 8884   0.827   4.403   7.151  0.7643  0.2176  0.4764
   87CHL1  H19A 8885   0.788   4.457   7.063 -2.3415  0.7362  2.0280
   87CHL1  H19B 8886   0.738   4.354   7.197  0.9870 -0.5159  0.1502
   87CHL1  H19C 8887   0.877   4.480   7.213  1.1845  0.3495 -0.0278
   87CHL1    C1 8888   1.052   4.356   7.032 -0.0116 -0.7230 -0.2142
   87CHL1   H1A 8889   1.084   4.433   7.104 -0.8629 -0.1875 -0.3943
   87CHL1   H1B 8890   1.126   4.273   7.030 -0.1783 -0.8602 -0.9050
   87CHL1    C2 8891   1.043   4.420   6.894  0.0383  0.2624  0.2010
   87CHL1   H2A 8892   1.147   4.448   6.868  1.1533 -2.8418  0.8145
   87CHL1   H2B 8893   0.965   4.499   6.886 -1.9286 -1.6495 -0.7079
   87CHL1   C20 8894   0.831   4.109   7.775  0.1575 -0.3182 -0.3441
   87CHL1   H20 8895   0.752   4.186   7.770  0.2039 -0.2220  0.3028
   87CHL1   C21 8896   0.958   4.188   7.822  1.1716 -0.6178  0.2785
   87CHL1  H21A 8897   0.946   4.229   7.925  0.0312 -1.1711  0.3890
   87CHL1  H21B 8898   0.983   4.271   7.753  0.4204 -0.8795 -0.3283
   87CHL1  H21C 8899   1.036   4.111   7.837  1.5925  0.1186  2.1424
   87CHL1   C22 8900   0.788   4.002   7.878  0.1306  0.1206  0.0850
   87CHL1  H22A 8901   0.684   3.978   7.847  0.7184 -1.1523 -0.9539
   87CHL1  H22B 8902   0.856   3.915   7.868 -0.1672 -0.5258  2.8734
   87CHL1   C23 8903   0.777   4.051   8.033  0.2097 -0.5099 -0.2147
   87CHL1  H23A 8904   0.875   4.091   8.067  0.7300 -0.7932 -1.3342
   87CHL1  H23B 8905   0.696   4.127   8.038 -0.3171 -1.1278  1.3096
   87CHL1   C24 8906   0.747   3.934   8.138 -0.4754 -0.1219 -0.4668
   87CHL1  H24A 8907   0.644   3.900   8.116 -0.8666 -2.6932  3.9799
   87CHL1  H24B 8908   0.820   3.852   8.118 -0.7447 -0.3216 -0.6267
   87CHL1   C25 8909   0.739   3.972   8.287  0.0018  0.7126 -0.2129
   87CHL1   H25 8910   0.844   3.981   8.321 -0.3658  0.3703  1.0735
   87CHL1   C26 8911   0.654   4.098   8.307  0.1913 -0.5149 -0.4035
   87CHL1  H26A 8912   0.550   4.072   8.278  0.1022  0.6444 -1.1915
   87CHL1  H26B 8913   0.662   4.128   8.413  1.0612 -2.0146 -0.0094
   87CHL1  H26C 8914   0.690   4.183   8.245 -0.5310 -0.8568 -1.3145
   87CHL1   C27 8915   0.678   3.860   8.374 -0.0292 -0.1874 -0.2851
   87CHL1  H27A 8916   0.590   3.811   8.327  1.4092 -2.0226 -1.2224
   87CHL1  H27B 8917   0.750   3.776   8.379 -0.0203 -0.1117  1.3561
   87CHL1  H27C 8918   0.676   3.894   8.479  0.6786 -1.4698  0.1669
   88CHL1    C3 8919   4.412   0.708   6.657  0.2109  0.0608 -0.4606
   88CHL1    H3 8920   4.412   0.819   6.662 -2.6044  0.1131  0.1267
   88CHL1    O3 8921   4.430   0.678   6.525  0.0673 -0.1322 -0.1733
   88CHL1   H3' 8922   4.430   0.582   6.517  0.4589 -0.0265 -1.6256
   88CHL1    C4 8923   4.529   0.646   6.731 -0.1748 -0.2027 -0.9237
   88CHL1   H4A 8924   4.524   0.541   6.694 -1.5096 -0.5466  0.1678
   88CHL1   H4B 8925   4.627   0.684   6.695  2.3672 -2.5268  2.7385
   88CHL1    C5 8926   4.516   0.642   6.885  0.3788  0.3084  0.4778
   88CHL1    C6 8927   4.605   0.693   6.969 -0.1199 -1.8351 -0.3346
   88CHL1    H6 8928   4.695   0.744   6.933  0.2176 -1.3903  1.0749
   88CHL1    C7 8929   4.595   0.684   7.119  0.6142 -0.2089  0.5271
   88CHL1   H7A 8930   4.691   0.641   7.153  0.6740 -1.1884 -0.7860
   88CHL1   H7B 8931   4.573   0.784   7.163  0.8087 -0.0215  0.2037
   88CHL1    C8 8932   4.480   0.584   7.159 -0.5610  0.7871 -1.1006
   88CHL1    H8 8933   4.519   0.482   7.141 -0.6860  0.1554  1.7351
   88CHL1   C14 8934   4.464   0.600   7.316  0.3710 -0.8207  0.5576
   88CHL1   H14 8935   4.423   0.703   7.329 -1.0235 -1.3370  0.4229
   88CHL1   C15 8936   4.581   0.593   7.403  0.1226  0.0201  1.1747
   88CHL1  H15A 8937   4.644   0.507   7.374  0.2338  0.6457 -0.5433
   88CHL1  H15B 8938   4.629   0.693   7.413 -0.3047  0.2780  0.6434
   88CHL1   C16 8939   4.521   0.566   7.538  0.3289 -0.1126  0.4239
   88CHL1  H16A 8940   4.549   0.465   7.573 -2.3002 -2.0533 -2.5171
   88CHL1  H16B 8941   4.556   0.641   7.612  1.0470 -0.5753  0.5649
   88CHL1   C17 8942   4.364   0.552   7.519 -0.1575  0.1324  0.5203
   88CHL1   H17 8943   4.331   0.656   7.541  2.8916  1.9116 -2.3805
   88CHL1   C13 8944   4.351   0.516   7.368  0.3190  0.2355  1.1328
   88CHL1   C18 8945   4.389   0.368   7.357 -0.4354 -0.1770  0.3525
   88CHL1  H18A 8946   4.308   0.296   7.383 -0.7450 -0.3346 -0.9778
   88CHL1  H18B 8947   4.409   0.342   7.251 -0.4406  0.1157  0.2782
   88CHL1  H18C 8948   4.486   0.343   7.405 -0.1218  0.1340 -0.1189
   88CHL1   C12 8949   4.222   0.548   7.296  0.2196 -0.2500 -0.1087
   88CHL1  H12A 8950   4.151   0.470   7.328  0.2372  0.2735  1.2752
   88CHL1  H12B 8951   4.185   0.653   7.303 -0.4976 -0.1843 -3.2290
   88CHL1   C11 8952   4.232   0.524   7.145  0.5613 -0.1720  0.2248
   88CHL1  H11A 8953   4.233   0.416   7.122  1.2871 -0.2794  0.7017
   88CHL1  H11B 8954   4.139   0.558   7.096  2.1311  1.2833 -1.9432
   88CHL1    C9 8955   4.353   0.602   7.084  0.0428  0.3197 -0.3321
   88CHL1    H9 8956   4.333   0.711   7.092 -0.9414  0.0830  0.5999
   88CHL1   C10 8957   4.381   0.581   6.929 -0.4345 -0.5050  0.6112
   88CHL1   C19 8958   4.381   0.429   6.897  0.5948 -0.2632  0.0041
   88CHL1  H19A 8959   4.454   0.375   6.961 -0.6484  0.0457  1.7465
   88CHL1  H19B 8960   4.280   0.385   6.912  0.0206  1.2768  0.7850
   88CHL1  H19C 8961   4.397   0.412   6.788 -0.1753  2.6575 -0.6416
   88CHL1    C1 8962   4.263   0.660   6.853 -0.2333 -0.2323  0.0780
   88CHL1   H1A 8963   4.172   0.600   6.873 -0.9193  1.6536  3.3249
   88CHL1   H1B 8964   4.253   0.764   6.892  1.4753 -0.1006  0.2570
   88CHL1    C2 8965   4.273   0.662   6.697 -0.2678 -0.5975 -0.2193
   88CHL1   H2A 8966   4.206   0.737   6.650  0.4366 -0.0019 -0.2925
   88CHL1   H2B 8967   4.238   0.565   6.656 -0.7902 -1.0200  1.1602
   88CHL1   C20 8968   4.305   0.456   7.619  0.1652 -0.2092 -0.2235
   88CHL1   H20 8969   4.344   0.358   7.585 -1.9440 -0.1761 -3.1749
   88CHL1   C21 8970   4.143   0.455   7.611  0.2923  0.1724  0.5862
   88CHL1  H21A 8971   4.107   0.560   7.614 -0.9320 -0.2280  0.4877
   88CHL1  H21B 8972   4.105   0.388   7.691 -2.4017 -1.7160 -2.0389
   88CHL1  H21C 8973   4.118   0.400   7.517  1.2091 -0.1660  0.5288
   88CHL1   C22 8974   4.346   0.481   7.766 -0.2935  0.2096  0.8266
   88CHL1  H22A 8975   4.452   0.514   7.776  0.1771 -0.0852 -2.1147
   88CHL1  H22B 8976   4.281   0.561   7.805  0.2416  0.7020  0.7325
   88CHL1   C23 8977   4.335   0.349   7.847  0.2652 -0.2932  0.1449
   88CHL1  H23A 8978   4.227   0.323   7.851  0.4089 -0.8024  1.0546
   88CHL1  H23B 8979   4.390   0.271   7.789  1.9703  2.1084 -1.6353
   88CHL1   C24 8980   4.395   0.341   7.987 -0.9809 -0.1157  0.4827
   88CHL1  H24A 8981   4.506   0.346   7.988 -0.9983  0.3394  1.5516
   88CHL1  H24B 8982   4.363   0.426   8.052 -0.8497  0.1834  0.1625
   88CHL1   C25 8983   4.356   0.217   8.076 -0.1703  0.0130 -0.0025
   88CHL1   H25 8984   4.245   0.214   8.085 -0.1622 -1.3357 -0.1952
   88CHL1   C26 8985   4.411   0.084   8.020 -0.7352 -0.2597 -0.0889
   88CHL1  H26A 8986   4.519   0.089   7.995 -0.6344 -0.4588  0.3011
   88CHL1  H26B 8987   4.388  -0.002   8.087  0.9527 -0.7051 -0.0387
   88CHL1  H26C 8988   4.371   0.068   7.917 -0.9085  0.0959 -0.0770
   88CHL1   C27 8989   4.411   0.246   8.215  0.1419 -0.2994 -0.0349
   88CHL1  H27A 8990   4.369   0.338   8.263 -0.3667  1.3376 -3.3368
   88CHL1  H27B 8991   4.400   0.155   8.277  1.0101 -1.3144 -1.3220
   88CHL1  H27C 8992   4.518   0.274   8.214 -0.1233  0.7971  0.4030
   89CHL1    C3 8993   1.040   4.956   6.928 -0.1715 -0.9032  0.3053
   89CHL1    H3 8994   0.955   5.014   6.970  0.6271  0.0321  0.6684
   89CHL1    O3 8995   1.041   4.984   6.792  0.4440 -0.2592 -0.0902
   89CHL1   H3' 8996   1.100   5.060   6.789  0.9289 -0.5957  0.6026
   89CHL1    C4 8997   1.172   5.019   6.987 -0.1375 -0.4324 -0.0206
   89CHL1   H4A 8998   1.256   4.980   6.925  0.1537  0.0851  0.0465
   89CHL1   H4B 8999   1.191   5.124   6.958 -0.7186 -0.0679  0.9137
   89CHL1    C5 9000   1.174   4.976   7.130 -0.1457 -0.5961  0.2076
   89CHL1    C6 9001   1.162   5.071   7.221 -0.3192 -0.0425 -0.7700
   89CHL1    H6 9002   1.165   5.175   7.185 -1.6007 -0.0251 -0.8452
   89CHL1    C7 9003   1.184   5.035   7.373 -0.5176 -0.7053 -0.5661
   89CHL1   H7A 9004   1.255   5.107   7.418 -0.1043 -1.5165  0.0909
   89CHL1   H7B 9005   1.092   5.055   7.432  0.1271  0.4392  0.0818
   89CHL1    C8 9006   1.238   4.893   7.394  0.0561 -0.2844 -0.4021
   89CHL1    H8 9007   1.338   4.897   7.345 -0.4993 -0.2652 -1.5650
   89CHL1   C14 9008   1.246   4.853   7.544  0.0550  0.3677  0.2720
   89CHL1   H14 9009   1.142   4.858   7.582 -0.2556 -1.1423 -0.3109
   89CHL1   C15 9010   1.322   4.948   7.636  0.0201 -0.1763 -0.3588
   89CHL1  H15A 9011   1.412   4.981   7.580 -0.2060  1.0721 -0.0194
   89CHL1  H15B 9012   1.252   5.032   7.660 -0.5834 -0.8260  0.1942
   89CHL1   C16 9013   1.361   4.870   7.760  0.1862  0.1529  0.1350
   89CHL1  H16A 9014   1.470   4.865   7.775  0.3429 -4.2660 -1.2691
   89CHL1  H16B 9015   1.303   4.920   7.840 -1.2169  0.3178 -0.9331
   89CHL1   C17 9016   1.315   4.722   7.731 -0.1744 -0.4301  0.0959
   89CHL1   H17 9017   1.211   4.704   7.764  0.6252 -3.5143  1.3350
   89CHL1   C13 9018   1.306   4.722   7.576  0.4009  0.2706 -0.1500
   89CHL1   C18 9019   1.448   4.702   7.510  0.7547  0.1830 -0.0540
   89CHL1  H18A 9020   1.465   4.749   7.410  0.2537 -0.4894 -0.4619
   89CHL1  H18B 9021   1.521   4.746   7.581 -0.5211  0.0773  1.3708
   89CHL1  H18C 9022   1.476   4.595   7.506 -0.0278  0.0086 -2.4607
   89CHL1   C12 9023   1.203   4.621   7.518 -0.2658 -0.4552 -0.5391
   89CHL1  H12A 9024   1.223   4.512   7.528 -0.7859 -0.3721  2.1963
   89CHL1  H12B 9025   1.110   4.636   7.576 -0.5985  0.2215 -1.2363
   89CHL1   C11 9026   1.186   4.648   7.370  0.2043 -0.4554 -0.1269
   89CHL1  H11A 9027   1.280   4.611   7.323 -0.7504 -1.7251 -1.0840
   89CHL1  H11B 9028   1.111   4.575   7.332 -0.4145 -0.5324  1.1926
   89CHL1    C9 9029   1.159   4.793   7.320  0.2307  0.3014 -0.6561
   89CHL1    H9 9030   1.052   4.804   7.350 -0.1385  0.4661 -1.9484
   89CHL1   C10 9031   1.167   4.821   7.164 -0.1269 -0.0325  0.2495
   89CHL1   C19 9032   1.291   4.748   7.114 -0.5699  0.7539  0.3296
   89CHL1  H19A 9033   1.290   4.637   7.121  1.3829  0.6521 -0.4376
   89CHL1  H19B 9034   1.319   4.774   7.010  1.6444  0.2404  0.7301
   89CHL1  H19C 9035   1.378   4.789   7.171 -0.5196 -0.4123  1.1172
   89CHL1    C1 9036   1.043   4.763   7.087 -0.0420  0.5095  0.0217
   89CHL1   H1A 9037   1.056   4.653   7.089 -3.3839 -0.0119 -0.2527
   89CHL1   H1B 9038   0.950   4.789   7.142  0.7240 -0.9429  2.1124
   89CHL1    C2 9039   1.037   4.801   6.939  0.5474 -0.7869 -0.3945
   89CHL1   H2A 9040   0.936   4.775   6.902 -1.6876  4.5245  1.0541
   89CHL1   H2B 9041   1.113   4.749   6.877 -0.3280 -1.7031 -0.7275
   89CHL1   C20 9042   1.396   4.614   7.805  0.2181  0.5978  0.1924
   89CHL1   H20 9043   1.500   4.622   7.767  0.2982  0.1939  0.3204
   89CHL1   C21 9044   1.349   4.475   7.758 -0.0516  0.1405  0.0981
   89CHL1  H21A 9045   1.380   4.445   7.655 -0.7420 -1.2964  0.2800
   89CHL1  H21B 9046   1.238   4.475   7.755 -0.0812  1.3473  0.6544
   89CHL1  H21C 9047   1.378   4.393   7.827 -0.1061 -1.4201 -1.6624
   89CHL1   C22 9048   1.405   4.628   7.962  0.8142 -0.2033 -0.0506
   89CHL1  H22A 9049   1.485   4.560   8.000  0.4796 -0.3912  0.3344
   89CHL1  H22B 9050   1.423   4.737   7.976 -0.6456  0.0075  0.3741
   89CHL1   C23 9051   1.266   4.596   8.036 -0.2652 -0.0739  0.0919
   89CHL1  H23A 9052   1.187   4.666   8.002  1.6112  1.0867 -2.1505
   89CHL1  H23B 9053   1.241   4.490   8.016  0.5183 -0.1802 -0.3757
   89CHL1   C24 9054   1.278   4.617   8.187  0.4043 -0.0435 -0.7919
   89CHL1  H24A 9055   1.179   4.591   8.231 -0.5413  0.8425 -2.2991
   89CHL1  H24B 9056   1.350   4.537   8.216  0.8511  0.7924  0.4661
   89CHL1   C25 9057   1.333   4.751   8.229  0.1310  0.2490  0.7398
   89CHL1   H25 9058   1.414   4.783   8.159 -1.5439  2.1998 -0.4042
   89CHL1   C26 9059   1.225   4.861   8.212 -0.3796 -0.0395  0.2733
   89CHL1  H26A 9060   1.122   4.836   8.246 -1.4085 -1.0137 -3.1524
   89CHL1  H26B 9061   1.266   4.950   8.265 -0.8043 -0.2386  0.9501
   89CHL1  H26C 9062   1.214   4.892   8.106  0.5281 -1.0547 -0.1362
   89CHL1   C27 9063   1.391   4.738   8.370  0.3527  0.1239 -0.2580
   89CHL1  H27A 9064   1.442   4.641   8.356  1.9664  1.1227 -1.8351
   89CHL1  H27B 9065   1.475   4.807   8.394 -1.9405  3.3618 -0.8372
   89CHL1  H27C 9066   1.312   4.732   8.448 -1.4396 -0.4366 -2.0369
   90CHL1    C3 9067   6.461   0.164   6.857  0.4515  0.1434 -0.2895
   90CHL1    H3 9068   6.527   0.088   6.904  1.5678  0.1160 -1.8389
   90CHL1    O3 9069   6.440   0.137   6.721  0.4372  0.1222  0.2637
   90CHL1   H3' 9070   6.522   0.100   6.687  1.6500  2.9700 -0.2293
   90CHL1    C4 9071   6.316   0.163   6.925  0.0996  0.0628  0.3151
   90CHL1   H4A 9072   6.241   0.225   6.870 -0.5717 -1.6480 -0.7928
   90CHL1   H4B 9073   6.285   0.057   6.926 -1.8864  0.6038  0.5128
   90CHL1    C5 9074   6.329   0.202   7.070 -0.7534  0.4368  0.6060
   90CHL1    C6 9075   6.278   0.116   7.161 -0.0571  0.7167 -0.0640
   90CHL1    H6 9076   6.223   0.026   7.131  1.0148  0.2262 -0.6353
   90CHL1    C7 9077   6.280   0.146   7.308  0.8560  0.1171 -0.1198
   90CHL1   H7A 9078   6.174   0.142   7.342 -0.0519  1.6246 -2.5109
   90CHL1   H7B 9079   6.355   0.076   7.351  2.3196  0.3044 -2.2114
   90CHL1    C8 9080   6.330   0.284   7.347 -0.4886  0.2425  0.1299
   90CHL1    H8 9081   6.244   0.349   7.318  0.4711  1.3011 -0.4521
   90CHL1   C14 9082   6.356   0.301   7.495 -0.8134  0.3859  0.3208
   90CHL1   H14 9083   6.440   0.231   7.514  0.7222  1.6115 -1.5375
   90CHL1   C15 9084   6.259   0.236   7.599 -0.1157 -0.2497  0.5742
   90CHL1  H15A 9085   6.155   0.272   7.580 -0.3110 -1.5849 -1.1185
   90CHL1  H15B 9086   6.265   0.125   7.599 -1.7992 -0.3837 -0.7018
   90CHL1   C16 9087   6.309   0.297   7.727 -0.3212  0.9362  0.4564
   90CHL1  H16A 9088   6.227   0.343   7.786  1.5752  1.5052  2.8036
   90CHL1  H16B 9089   6.359   0.230   7.800  0.1235  1.5226  0.6902
   90CHL1   C17 9090   6.414   0.404   7.692 -0.5167  0.8443 -0.7706
   90CHL1   H17 9091   6.512   0.352   7.702 -0.4582  1.2603  1.6340
   90CHL1   C13 9092   6.399   0.441   7.542  0.7894  0.5939  0.2028
   90CHL1   C18 9093   6.281   0.542   7.529 -0.2510 -0.2881 -0.1533
   90CHL1  H18A 9094   6.182   0.498   7.550  0.9992 -3.6686 -0.7377
   90CHL1  H18B 9095   6.299   0.639   7.581 -0.5131  0.0457 -0.6745
   90CHL1  H18C 9096   6.263   0.573   7.424 -1.9528  1.2417  0.5436
   90CHL1   C12 9097   6.520   0.482   7.465  0.2176  0.0542 -0.4053
   90CHL1  H12A 9098   6.540   0.589   7.489  0.7644  0.2284 -1.5597
   90CHL1  H12B 9099   6.605   0.417   7.495 -1.5129 -1.9225  0.4547
   90CHL1   C11 9100   6.507   0.469   7.306 -0.7932 -0.3767 -0.3700
   90CHL1  H11A 9101   6.442   0.555   7.278 -0.6163 -0.4846 -1.1105
   90CHL1  H11B 9102   6.605   0.486   7.257 -1.5689 -1.6193 -2.4611
   90CHL1    C9 9103   6.450   0.331   7.263  0.0425 -0.2079 -0.7041
   90CHL1    H9 9104   6.533   0.259   7.283 -0.2877 -0.4521 -0.2015
   90CHL1   C10 9105   6.421   0.325   7.112  0.5769 -0.4882 -0.5615
   90CHL1   C19 9106   6.350   0.453   7.068  0.4574  0.7274 -0.2902
   90CHL1  H19A 9107   6.309   0.434   6.966  0.7316  1.4027 -0.5360
   90CHL1  H19B 9108   6.265   0.472   7.137  0.4743  3.0811 -0.8030
   90CHL1  H19C 9109   6.408   0.548   7.066  0.7796  0.5498  0.6150
   90CHL1    C1 9110   6.556   0.322   7.032  0.2499 -0.0888 -0.3893
   90CHL1   H1A 9111   6.603   0.420   7.054 -3.2802  1.3481  1.4236
   90CHL1   H1B 9112   6.612   0.231   7.065 -1.4980 -1.9335 -2.1964
   90CHL1    C2 9113   6.542   0.294   6.879 -0.5964 -0.2405  0.2057
   90CHL1   H2A 9114   6.643   0.289   6.835 -1.4420  1.3194 -2.0709
   90CHL1   H2B 9115   6.480   0.372   6.830 -0.0371  1.4505  2.0648
   90CHL1   C20 9116   6.404   0.519   7.793 -0.0269 -0.2933  0.5288
   90CHL1   H20 9117   6.310   0.574   7.773 -0.1448 -0.9372 -0.7582
   90CHL1   C21 9118   6.522   0.617   7.783 -0.3119  0.5651 -0.0325
   90CHL1  H21A 9119   6.614   0.557   7.796 -2.0368 -2.1740  0.4987
   90CHL1  H21B 9120   6.521   0.691   7.866  1.8590  0.9202 -0.2635
   90CHL1  H21C 9121   6.517   0.662   7.681  3.2427 -1.4528 -1.2785
   90CHL1   C22 9122   6.397   0.474   7.938  0.2968 -0.3211  0.0385
   90CHL1  H22A 9123   6.398   0.563   8.005 -0.6571 -1.7084  1.9971
   90CHL1  H22B 9124   6.294   0.441   7.961 -1.0336  2.1849 -1.9471
   90CHL1   C23 9125   6.506   0.385   7.991 -0.3115  0.7852  0.3111
   90CHL1  H23A 9126   6.527   0.304   7.919 -0.8909 -0.5914  1.6302
   90CHL1  H23B 9127   6.598   0.442   8.012 -0.0967  0.3087  0.6782
   90CHL1   C24 9128   6.462   0.319   8.117 -0.0328 -0.1467  0.8469
   90CHL1  H24A 9129   6.438   0.402   8.187 -1.5508  2.0485 -2.0500
   90CHL1  H24B 9130   6.365   0.265   8.114 -1.1879  1.8106  1.2431
   90CHL1   C25 9131   6.565   0.213   8.165 -0.2838  0.0521 -0.5439
   90CHL1   H25 9132   6.560   0.125   8.097 -0.9544  1.2616 -2.1191
   90CHL1   C26 9133   6.715   0.272   8.158 -0.2439 -0.1381 -0.4294
   90CHL1  H26A 9134   6.757   0.263   8.056  1.0920  0.2585  0.0728
   90CHL1  H26B 9135   6.731   0.377   8.188  0.0432  0.5870 -2.9398
   90CHL1  H26C 9136   6.772   0.212   8.232  0.6703  0.1467 -0.8896
   90CHL1   C27 9137   6.525   0.166   8.302 -0.0238 -0.3609 -0.4302
   90CHL1  H27A 9138   6.589   0.079   8.330  1.7208  0.7149 -0.9290
   90CHL1  H27B 9139   6.519   0.250   8.374 -0.7644  1.9812 -3.0677
   90CHL1  H27C 9140   6.424   0.120   8.300 -0.2644  0.0020  1.6420
   91CHL1    C3 9141   1.266   1.452   6.955 -0.2985  0.6637  0.5337
   91CHL1    H3 9142   1.330   1.542   6.948 -0.3660  0.5903 -1.2904
   91CHL1    O3 9143   1.211   1.441   6.827  0.0998  0.7741 -0.1349
   91CHL1   H3' 9144   1.282   1.412   6.769  1.7362  0.5857  1.8634
   91CHL1    C4 9145   1.342   1.327   6.989  0.2270  0.1436 -0.4149
   91CHL1   H4A 9146   1.276   1.239   6.972 -0.8392  0.9994 -0.8272
   91CHL1   H4B 9147   1.424   1.326   6.915  0.5821  0.8484 -0.0491
   91CHL1    C5 9148   1.396   1.327   7.130  0.6530  0.0069  0.1808
   91CHL1    C6 9149   1.527   1.307   7.152  0.4044 -0.7311  0.1735
   91CHL1    H6 9150   1.596   1.294   7.067  0.7987  0.7697  0.2316
   91CHL1    C7 9151   1.590   1.295   7.288  0.8144 -0.2206  0.3273
   91CHL1   H7A 9152   1.647   1.200   7.297 -0.5276 -1.0515  0.3143
   91CHL1   H7B 9153   1.656   1.381   7.311 -0.4894  1.2230 -1.0839
   91CHL1    C8 9154   1.484   1.293   7.402  0.5394  0.7032  1.0390
   91CHL1    H8 9155   1.443   1.190   7.400  2.4608 -0.0972 -0.8569
   91CHL1   C14 9156   1.546   1.306   7.534  0.0693  0.0563 -0.6276
   91CHL1   H14 9157   1.590   1.408   7.534 -0.6508  0.4723  2.5087
   91CHL1   C15 9158   1.665   1.215   7.563 -0.3808  0.4650  0.3338
   91CHL1  H15A 9159   1.627   1.113   7.544 -2.8895  1.1310  1.4011
   91CHL1  H15B 9160   1.760   1.233   7.507  0.2945 -0.0674  1.2892
   91CHL1   C16 9161   1.683   1.244   7.714  0.4296 -0.4659 -0.0268
   91CHL1  H16A 9162   1.699   1.157   7.781 -0.8845  0.3615  1.4120
   91CHL1  H16B 9163   1.760   1.321   7.730 -0.0443  0.1854 -0.7898
   91CHL1   C17 9164   1.546   1.314   7.765 -0.1974  0.1700 -0.0419
   91CHL1   H17 9165   1.570   1.422   7.773  0.4722 -0.1066  2.9671
   91CHL1   C13 9166   1.453   1.306   7.654  0.0404 -0.4065 -0.0372
   91CHL1   C18 9167   1.376   1.174   7.664  0.4540  0.3333 -0.2888
   91CHL1  H18A 9168   1.288   1.199   7.728  0.1979 -0.5932 -0.2685
   91CHL1  H18B 9169   1.350   1.141   7.561 -0.4352  2.1192 -0.6846
   91CHL1  H18C 9170   1.429   1.088   7.711 -1.9073 -0.3061  1.4214
   91CHL1   C12 9171   1.347   1.417   7.629 -0.0424  0.0664  0.3976
   91CHL1  H12A 9172   1.271   1.423   7.709 -0.5372  0.8786 -0.1226
   91CHL1  H12B 9173   1.390   1.518   7.615  1.1624 -0.4921 -0.1094
   91CHL1   C11 9174   1.264   1.393   7.499 -0.0362  0.1728  0.2192
   91CHL1  H11A 9175   1.203   1.300   7.511  1.2189 -0.5795  0.9945
   91CHL1  H11B 9176   1.200   1.482   7.478  3.1932  1.8687 -3.5987
   91CHL1    C9 9177   1.367   1.390   7.379 -0.3451 -0.5849 -0.0489
   91CHL1    H9 9178   1.413   1.491   7.380 -0.7189 -0.4092 -0.3925
   91CHL1   C10 9179   1.299   1.367   7.243  0.2697  0.2606  0.1553
   91CHL1   C19 9180   1.206   1.244   7.258  0.2011  0.0590 -0.5599
   91CHL1  H19A 9181   1.173   1.198   7.163 -0.0636  0.5493 -0.7103
   91CHL1  H19B 9182   1.249   1.162   7.318 -1.2143  1.0571  2.0052
   91CHL1  H19C 9183   1.117   1.273   7.319  2.0196  0.4178  2.1246
   91CHL1    C1 9184   1.218   1.486   7.202 -0.8934 -0.6151  0.4433
   91CHL1   H1A 9185   1.129   1.505   7.265 -1.3227  2.2904 -0.8601
   91CHL1   H1B 9186   1.279   1.579   7.211 -2.1981  0.2912  0.2242
   91CHL1    C2 9187   1.161   1.482   7.060 -0.6552 -0.6697 -0.2839
   91CHL1   H2A 9188   1.089   1.563   7.034  0.4243  0.4779  0.1616
   91CHL1   H2B 9189   1.086   1.400   7.065  0.4952 -1.8020 -1.0373
   91CHL1   C20 9190   1.509   1.260   7.905 -0.3247  0.5518 -0.2045
   91CHL1   H20 9191   1.456   1.163   7.907  0.2279  0.2360 -0.6739
   91CHL1   C21 9192   1.397   1.360   7.948 -0.3327 -0.0275  0.1238
   91CHL1  H21A 9193   1.425   1.466   7.935  1.5712  0.1946  4.3372
   91CHL1  H21B 9194   1.372   1.345   8.056  0.0206  2.4642  0.5979
   91CHL1  H21C 9195   1.303   1.330   7.896  0.3740 -2.7037  0.2421
   91CHL1   C22 9196   1.625   1.278   8.009 -0.0276 -0.3703  0.1612
   91CHL1  H22A 9197   1.701   1.200   7.987  0.1182 -0.3619  0.6198
   91CHL1  H22B 9198   1.669   1.377   7.983  0.5502 -0.3148  1.2628
   91CHL1   C23 9199   1.586   1.258   8.160  0.6097  0.3197  0.6872
   91CHL1  H23A 9200   1.539   1.349   8.204  0.4838  0.2692  0.6608
   91CHL1  H23B 9201   1.535   1.160   8.167 -0.7900  0.8877 -0.7735
   91CHL1   C24 9202   1.716   1.247   8.242 -0.2103  0.6157 -0.1675
   91CHL1  H24A 9203   1.787   1.173   8.200  0.4996  0.7343  0.7966
   91CHL1  H24B 9204   1.778   1.339   8.249  3.3203 -1.4466 -1.6776
   91CHL1   C25 9205   1.693   1.196   8.384  0.8104  0.2192 -0.2734
   91CHL1   H25 9206   1.627   1.266   8.439  3.2632  1.6256  1.0773
   91CHL1   C26 9207   1.631   1.057   8.394 -0.3898 -0.0680 -0.8165
   91CHL1  H26A 9208   1.521   1.063   8.375 -0.2930 -0.0477 -1.3942
   91CHL1  H26B 9209   1.674   0.985   8.321 -0.2641 -1.0473  0.1924
   91CHL1  H26C 9210   1.642   1.013   8.495 -0.0176  1.6760 -0.0664
   91CHL1   C27 9211   1.829   1.204   8.453 -0.2195 -0.2904  0.0445
   91CHL1  H27A 9212   1.905   1.144   8.398 -0.3993 -0.4640 -0.0113
   91CHL1  H27B 9213   1.872   1.307   8.457 -2.0319  0.5231 -0.4887
   91CHL1  H27C 9214   1.820   1.167   8.557 -0.0508  0.8646  0.4883
   92CHL1    C3 9215   3.670   1.549   6.711  0.1819  0.3455  0.1493
   92CHL1    H3 9216   3.560   1.549   6.728  0.2856 -0.6170  0.9495
   92CHL1    O3 9217   3.703   1.605   6.587  0.3457 -0.2953  0.0926
   92CHL1   H3' 9218   3.792   1.574   6.573  0.7360  0.7941  0.0721
   92CHL1    C4 9219   3.744   1.615   6.823 -0.8948 -0.1551 -0.1796
   92CHL1   H4A 9220   3.850   1.610   6.790 -1.0615 -0.4618 -0.6857
   92CHL1   H4B 9221   3.713   1.722   6.827 -2.2071 -0.5491  0.9321
   92CHL1    C5 9222   3.708   1.558   6.958 -0.8282  0.0850 -0.1180
   92CHL1    C6 9223   3.635   1.632   7.047 -0.0381  1.3807  0.5575
   92CHL1    H6 9224   3.605   1.736   7.027 -0.0715  0.9770 -1.7739
   92CHL1    C7 9225   3.603   1.582   7.180 -0.1317  0.0114  0.3723
   92CHL1   H7A 9226   3.636   1.664   7.247  1.5974 -0.4436  0.1335
   92CHL1   H7B 9227   3.492   1.579   7.191 -0.5715  3.5198 -1.7034
   92CHL1    C8 9228   3.680   1.455   7.222  0.7638  0.7269  0.1473
   92CHL1    H8 9229   3.783   1.488   7.245  0.7594  1.6579 -1.0980
   92CHL1   C14 9230   3.610   1.394   7.344  0.2359 -0.2258  0.0241
   92CHL1   H14 9231   3.507   1.364   7.316  0.3878 -1.0493  0.3111
   92CHL1   C15 9232   3.592   1.491   7.467 -0.3352 -0.6269 -0.2269
   92CHL1  H15A 9233   3.686   1.546   7.484  0.2200 -1.3771 -0.7649
   92CHL1  H15B 9234   3.518   1.573   7.453 -0.2411 -0.7057 -1.3217
   92CHL1   C16 9235   3.562   1.398   7.580 -0.3287 -0.2502 -0.1457
   92CHL1  H16A 9236   3.643   1.414   7.654  1.0152  0.5366 -1.7229
   92CHL1  H16B 9237   3.466   1.424   7.631  0.6943  1.2211  1.1212
   92CHL1   C17 9238   3.580   1.257   7.526 -0.2550 -0.3481  0.6383
   92CHL1   H17 9239   3.482   1.229   7.482 -0.2605  2.4943 -1.4488
   92CHL1   C13 9240   3.680   1.271   7.406  0.0369  0.6368  0.4685
   92CHL1   C18 9241   3.832   1.299   7.453 -0.0221 -0.3119  0.6550
   92CHL1  H18A 9242   3.899   1.287   7.366  0.5375  0.1782  1.0102
   92CHL1  H18B 9243   3.835   1.406   7.484  0.1338 -0.0345 -0.3099
   92CHL1  H18C 9244   3.869   1.238   7.539 -0.7676 -0.9999  0.4960
   92CHL1   C12 9245   3.668   1.174   7.287 -0.5448 -0.4099  0.3725
   92CHL1  H12A 9246   3.709   1.074   7.312  0.4597 -0.3000 -0.7265
   92CHL1  H12B 9247   3.567   1.155   7.245 -0.3124 -1.9544  0.4603
   92CHL1   C11 9248   3.743   1.221   7.163  0.4650 -0.2455  0.1260
   92CHL1  H11A 9249   3.850   1.248   7.176  0.6330 -1.2619  0.9801
   92CHL1  H11B 9250   3.734   1.145   7.082  1.7958 -0.4498  0.1523
   92CHL1    C9 9251   3.685   1.355   7.109  0.4107  0.0682  0.5596
   92CHL1    H9 9252   3.577   1.339   7.090  0.0748  1.6168  1.0031
   92CHL1   C10 9253   3.750   1.418   6.979  1.1374  0.8017 -0.8632
   92CHL1   C19 9254   3.898   1.422   6.992  0.1260 -0.4622 -0.5514
   92CHL1  H19A 9255   3.948   1.462   6.901 -3.8784 -0.1095 -2.8133
   92CHL1  H19B 9256   3.924   1.492   7.074  0.4613  0.4780 -1.4333
   92CHL1  H19C 9257   3.945   1.322   6.998  1.0950  0.0208  0.2263
   92CHL1    C1 9258   3.695   1.325   6.862 -0.6187 -0.0800 -0.2482
   92CHL1   H1A 9259   3.755   1.233   6.874 -1.2610 -0.2708  1.9481
   92CHL1   H1B 9260   3.589   1.298   6.885 -0.2603 -0.1979  1.4325
   92CHL1    C2 9261   3.713   1.392   6.720 -0.1951 -1.2552  0.3256
   92CHL1   H2A 9262   3.661   1.338   6.639  0.1278 -0.2189 -0.5985
   92CHL1   H2B 9263   3.822   1.374   6.706 -0.6405 -2.2861 -2.4227
   92CHL1   C20 9264   3.616   1.148   7.632 -0.2234  0.6265  0.0066
   92CHL1   H20 9265   3.720   1.156   7.671 -0.3786 -1.2032  0.8785
   92CHL1   C21 9266   3.595   1.011   7.562  0.4357  0.4959 -0.1917
   92CHL1  H21A 9267   3.512   1.023   7.490  0.0861  2.1821  0.4415
   92CHL1  H21B 9268   3.566   0.938   7.641 -0.8153  0.2694 -0.8419
   92CHL1  H21C 9269   3.686   0.972   7.512  0.8761 -1.9181  2.2382
   92CHL1   C22 9270   3.520   1.155   7.758  0.3542  0.2209  0.0648
   92CHL1  H22A 9271   3.515   1.256   7.805 -0.2932 -0.1599  0.8431
   92CHL1  H22B 9272   3.418   1.127   7.722 -0.3545  1.1325  1.2700
   92CHL1   C23 9273   3.550   1.053   7.874 -0.7921  0.4023  0.2896
   92CHL1  H23A 9274   3.553   0.947   7.842  1.2584 -0.0749  1.8783
   92CHL1  H23B 9275   3.656   1.066   7.904 -0.7006 -0.2093  0.2271
   92CHL1   C24 9276   3.474   1.085   8.000  0.5286  1.0367 -0.6845
   92CHL1  H24A 9277   3.472   1.194   8.022 -1.0444  0.4190  3.0923
   92CHL1  H24B 9278   3.369   1.050   7.987  1.1533  0.0488 -3.8950
   92CHL1   C25 9279   3.526   1.009   8.122  0.7357  0.1798 -0.5130
   92CHL1   H25 9280   3.635   1.032   8.125  0.4738  1.4056  0.1692
   92CHL1   C26 9281   3.466   1.058   8.251  0.1178 -0.6413  0.0372
   92CHL1  H26A 9282   3.478   1.167   8.267 -0.8827 -0.3338 -1.1371
   92CHL1  H26B 9283   3.357   1.041   8.240  0.5233 -3.9067 -0.0113
   92CHL1  H26C 9284   3.514   1.010   8.339 -0.1130  0.2465  0.6600
   92CHL1   C27 9285   3.505   0.858   8.101  0.7986  0.0917 -0.1294
   92CHL1  H27A 9286   3.398   0.851   8.073  0.5838  1.0369  0.4197
   92CHL1  H27B 9287   3.568   0.830   8.014 -1.3453  1.4052 -2.2576
   92CHL1  H27C 9288   3.531   0.796   8.189 -1.0724 -0.2299  0.2256
   93CHL1    C3 9289   3.122   1.400   6.593 -1.0651  0.0108 -0.1038
   93CHL1    H3 9290   3.012   1.381   6.595 -1.3045  1.1144 -1.1563
   93CHL1    O3 9291   3.167   1.432   6.459  0.1266  0.2895 -0.0219
   93CHL1   H3' 9292   3.262   1.431   6.470  0.2399 -1.7240 -0.8045
   93CHL1    C4 9293   3.141   1.525   6.673 -0.3715 -0.4655  0.2113
   93CHL1   H4A 9294   3.246   1.559   6.662 -1.0382  1.3113 -1.1243
   93CHL1   H4B 9295   3.079   1.611   6.641  0.4820  1.2681  2.8399
   93CHL1    C5 9296   3.104   1.491   6.814  0.4132 -0.0346  0.9967
   93CHL1    C6 9297   3.003   1.559   6.873  0.5338 -0.1813  0.7581
   93CHL1    H6 9298   2.969   1.638   6.803  0.5577 -0.7755  0.0633
   93CHL1    C7 9299   2.967   1.562   7.016 -0.7082 -0.1454 -0.2732
   93CHL1   H7A 9300   2.963   1.666   7.056 -0.9954 -0.4543  0.5340
   93CHL1   H7B 9301   2.869   1.517   7.041 -0.8693  1.2062  1.7439
   93CHL1    C8 9302   3.074   1.481   7.106  0.2081 -0.0779  0.3075
   93CHL1    H8 9303   3.166   1.541   7.124  0.3606  0.0134 -0.7559
   93CHL1   C14 9304   3.018   1.442   7.242  0.3936 -0.4600 -0.0170
   93CHL1   H14 9305   2.919   1.401   7.216  0.3472 -1.4561  1.5940
   93CHL1   C15 9306   2.988   1.554   7.347 -0.1153  0.5283  0.5220
   93CHL1  H15A 9307   3.073   1.625   7.347 -0.1698  0.6291 -0.7706
   93CHL1  H15B 9308   2.893   1.604   7.317 -0.6206 -0.1645  0.9238
   93CHL1   C16 9309   2.972   1.479   7.473 -0.1054  0.0694 -0.2700
   93CHL1  H16A 9310   3.044   1.523   7.545 -0.4479 -0.5532  0.4716
   93CHL1  H16B 9311   2.873   1.478   7.524  0.1783 -0.7760  0.2905
   93CHL1   C17 9312   3.015   1.330   7.443  0.0699  0.3057  0.0334
   93CHL1   H17 9313   2.919   1.281   7.417  1.0005 -1.6457  0.0297
   93CHL1   C13 9314   3.098   1.337   7.319 -0.4013 -0.7258  0.0906
   93CHL1   C18 9315   3.236   1.389   7.351 -0.1507 -0.3772 -1.1218
   93CHL1  H18A 9316   3.305   1.310   7.388 -0.8383 -0.3935  0.1875
   93CHL1  H18B 9317   3.284   1.448   7.270  0.5247 -0.8078 -1.0403
   93CHL1  H18C 9318   3.231   1.448   7.446 -2.2156 -1.2640 -0.6237
   93CHL1   C12 9319   3.101   1.209   7.233 -0.4489  0.3140  0.2348
   93CHL1  H12A 9320   3.160   1.133   7.289  1.9002 -0.2926 -2.7497
   93CHL1  H12B 9321   3.003   1.164   7.206 -0.1090  0.0077 -0.5202
   93CHL1   C11 9322   3.186   1.239   7.110  0.9072  0.2294  0.1628
   93CHL1  H11A 9323   3.292   1.259   7.136  1.2290  0.4753 -1.2603
   93CHL1  H11B 9324   3.190   1.145   7.052 -3.9134 -0.0130 -0.1505
   93CHL1    C9 9325   3.112   1.347   7.024 -0.0881 -0.2050 -1.3458
   93CHL1    H9 9326   3.014   1.309   6.988  0.0001 -2.2670  0.3934
   93CHL1   C10 9327   3.175   1.388   6.891  0.4674  0.1993  0.6084
   93CHL1   C19 9328   3.323   1.427   6.916 -0.5138  0.3222 -0.7964
   93CHL1  H19A 9329   3.385   1.348   6.963  1.2184  2.1708  0.1564
   93CHL1  H19B 9330   3.366   1.448   6.816  1.3352 -0.1112 -0.1213
   93CHL1  H19C 9331   3.331   1.522   6.972  1.6490 -0.3075  0.0677
   93CHL1    C1 9332   3.164   1.262   6.798  0.0950  0.2732 -0.5073
   93CHL1   H1A 9333   3.230   1.186   6.846 -2.2955 -0.6169  1.6188
   93CHL1   H1B 9334   3.059   1.225   6.794 -0.0364  0.1965  2.0576
   93CHL1    C2 9335   3.202   1.286   6.651  0.6589 -0.1814  1.0684
   93CHL1   H2A 9336   3.197   1.189   6.596  3.1593  0.0055  0.4227
   93CHL1   H2B 9337   3.310   1.306   6.643  0.5355  0.2096  0.3315
   93CHL1   C20 9338   3.059   1.259   7.576  0.5137 -0.8815  0.1480
   93CHL1   H20 9339   3.165   1.288   7.592  0.1199  0.7995 -0.1076
   93CHL1   C21 9340   3.048   1.110   7.552  0.7348  0.2960 -1.1335
   93CHL1  H21A 9341   2.942   1.079   7.566  0.9835 -1.4469 -2.5589
   93CHL1  H21B 9342   3.128   1.047   7.597 -0.7408 -2.8755 -2.5769
   93CHL1  H21C 9343   3.058   1.083   7.444  3.9214  1.3350 -1.2147
   93CHL1   C22 9344   2.979   1.314   7.702  0.0667  0.3975  0.4464
   93CHL1  H22A 9345   3.006   1.418   7.729  0.1665 -0.1052  2.5097
   93CHL1  H22B 9346   2.872   1.311   7.672  0.6249 -1.3890 -1.5930
   93CHL1   C23 9347   2.996   1.237   7.836  0.3218 -0.0709  0.2179
   93CHL1  H23A 9348   2.965   1.130   7.834  2.1535 -0.6738  1.2619
   93CHL1  H23B 9349   3.106   1.229   7.850  0.1243 -0.8009  1.5182
   93CHL1   C24 9350   2.932   1.312   7.954  0.4376  0.0223  0.4421
   93CHL1  H24A 9351   2.961   1.418   7.945 -0.3067  0.1903 -0.0893
   93CHL1  H24B 9352   2.822   1.305   7.941  0.6184 -2.2869 -0.4223
   93CHL1   C25 9353   2.960   1.244   8.097 -0.6743 -0.6538  0.6669
   93CHL1   H25 9354   2.939   1.135   8.095  1.5894 -1.1489  0.6077
   93CHL1   C26 9355   3.107   1.260   8.143 -0.1982  0.0296 -0.7815
   93CHL1  H26A 9356   3.184   1.191   8.102  1.3903  0.8171  0.7408
   93CHL1  H26B 9357   3.135   1.367   8.151 -0.2226 -0.0220  0.0410
   93CHL1  H26C 9358   3.099   1.228   8.249 -3.2346 -2.1967 -1.5453
   93CHL1   C27 9359   2.861   1.305   8.201 -0.4266  0.2645 -0.0642
   93CHL1  H27A 9360   2.757   1.295   8.164 -0.1443 -1.0535 -0.5550
   93CHL1  H27B 9361   2.866   1.250   8.298  0.8455  1.6028  0.6729
   93CHL1  H27C 9362   2.879   1.413   8.219 -0.0790  0.4614 -1.4925
   94CHL1    C3 9363   5.854   4.306   6.819 -0.4349  0.1355  0.0267
   94CHL1    H3 9364   5.863   4.408   6.862  2.5878 -0.5521  1.2571
   94CHL1    O3 9365   5.815   4.318   6.681 -0.0001  0.1036  0.6025
   94CHL1   H3' 9366   5.826   4.229   6.646 -1.4710  0.0573  0.1959
   94CHL1    C4 9367   5.996   4.240   6.832  0.1456  0.8234  0.9358
   94CHL1   H4A 9368   5.999   4.159   6.757 -0.9407  0.6518  1.0564
   94CHL1   H4B 9369   6.070   4.311   6.789  0.3390 -0.0132 -0.1478
   94CHL1    C5 9370   6.033   4.194   6.972  1.0134 -0.4860 -0.1095
   94CHL1    C6 9371   6.147   4.233   7.026 -0.0487  0.4572 -0.6790
   94CHL1    H6 9372   6.211   4.299   6.964 -1.3886  0.5612 -1.9942
   94CHL1    C7 9373   6.199   4.189   7.160  0.7134  0.4697  0.1066
   94CHL1   H7A 9374   6.300   4.147   7.141  0.2531  0.0822 -1.6469
   94CHL1   H7B 9375   6.197   4.280   7.224 -1.8611 -0.2602  1.1991
   94CHL1    C8 9376   6.108   4.077   7.231  0.6014  0.3066 -0.6342
   94CHL1    H8 9377   6.136   3.975   7.196 -2.4786 -1.0317  0.4570
   94CHL1   C14 9378   6.135   4.080   7.382 -0.7568 -0.2701 -0.1927
   94CHL1   H14 9379   6.108   4.177   7.428  2.2545  0.0617  1.0963
   94CHL1   C15 9380   6.284   4.066   7.426  0.1723  0.2004  0.1103
   94CHL1  H15A 9381   6.331   3.979   7.375 -0.8584  0.3441 -1.1339
   94CHL1  H15B 9382   6.341   4.159   7.403 -0.2734  0.3892 -0.2502
   94CHL1   C16 9383   6.260   4.057   7.576  0.1117 -0.5135 -0.4643
   94CHL1  H16A 9384   6.318   3.979   7.629  2.1135  2.1985  1.5732
   94CHL1  H16B 9385   6.303   4.146   7.626  0.5067 -1.5512  1.1143
   94CHL1   C17 9386   6.113   4.037   7.610 -0.6450  0.6199 -0.8878
   94CHL1   H17 9387   6.071   4.139   7.628  0.4302  0.7596  1.0827
   94CHL1   C13 9388   6.052   3.990   7.474 -0.9871 -0.1042  0.3168
   94CHL1   C18 9389   6.089   3.833   7.453 -0.1998  0.0731 -1.0758
   94CHL1  H18A 9390   6.020   3.779   7.522  0.3810  0.4824 -0.1537
   94CHL1  H18B 9391   6.058   3.793   7.354 -0.7303  1.4386 -1.4826
   94CHL1  H18C 9392   6.196   3.814   7.473  0.0893  0.7039 -1.9510
   94CHL1   C12 9393   5.907   4.008   7.439  0.6139  1.0111 -0.1216
   94CHL1  H12A 9394   5.838   3.949   7.503 -1.0109  1.5333 -1.3235
   94CHL1  H12B 9395   5.880   4.114   7.461  0.1986  0.5720  1.6525
   94CHL1   C11 9396   5.877   4.001   7.289 -0.5182  0.5739  0.2335
   94CHL1  H11A 9397   5.901   3.899   7.252 -0.9506  0.6567 -0.2886
   94CHL1  H11B 9398   5.774   4.033   7.263 -1.1100  0.1211  1.9095
   94CHL1    C9 9399   5.959   4.107   7.202  0.6106  0.2014 -0.2069
   94CHL1    H9 9400   5.923   4.206   7.235 -3.0525 -0.1516 -2.5640
   94CHL1   C10 9401   5.925   4.120   7.054  0.4098  0.4294 -0.5189
   94CHL1   C19 9402   5.904   3.974   7.007  0.5318  0.5261 -0.0346
   94CHL1  H19A 9403   5.806   3.931   7.036  1.1227 -1.0403 -0.2563
   94CHL1  H19B 9404   5.916   3.982   6.897 -1.8625 -0.5706 -0.4391
   94CHL1  H19C 9405   5.983   3.909   7.052  1.0260  1.7562  0.9403
   94CHL1    C1 9406   5.799   4.195   7.036  0.7307  0.1402 -0.9191
   94CHL1   H1A 9407   5.718   4.148   7.095  0.2951  1.0586 -0.7713
   94CHL1   H1B 9408   5.804   4.295   7.083  2.1311 -0.9775  1.5478
   94CHL1    C2 9409   5.757   4.218   6.893 -0.5115  0.0710 -0.0925
   94CHL1   H2A 9410   5.653   4.259   6.894 -0.0487  1.4249 -2.1299
   94CHL1   H2B 9411   5.744   4.115   6.852 -1.0451  0.3503 -0.6512
   94CHL1   C20 9412   6.092   3.946   7.732  0.2277  0.7204  0.2673
   94CHL1   H20 9413   6.149   3.852   7.720  0.0081 -0.1986  4.6574
   94CHL1   C21 9414   5.941   3.918   7.762 -0.3993 -0.7953  0.1569
   94CHL1  H21A 9415   5.884   4.013   7.761 -0.7810 -1.0301 -0.3587
   94CHL1  H21B 9416   5.930   3.855   7.853  0.2142 -2.0256 -0.5971
   94CHL1  H21C 9417   5.891   3.864   7.680 -1.1441 -0.1203  0.1520
   94CHL1   C22 9418   6.160   4.015   7.860  0.0652 -0.1162 -0.3526
   94CHL1  H22A 9419   6.264   4.044   7.832  1.3496 -1.3376  2.6701
   94CHL1  H22B 9420   6.106   4.111   7.874  2.6360  1.0054  3.8460
   94CHL1   C23 9421   6.152   3.951   8.006 -0.4677 -0.3058  0.4695
   94CHL1  H23A 9422   6.062   3.986   8.060 -0.4820 -0.4528  0.5428
   94CHL1  H23B 9423   6.136   3.841   7.997 -0.1703 -0.3233  0.0903
   94CHL1   C24 9424   6.281   4.000   8.069 -0.4447  0.0257 -0.7434
   94CHL1  H24A 9425   6.370   3.970   8.009  0.4077  0.0058  0.4967
   94CHL1  H24B 9426   6.281   4.110   8.086 -3.2374 -0.0448  0.1878
   94CHL1   C25 9427   6.314   3.933   8.204  0.4243 -0.5999  0.3481
   94CHL1   H25 9428   6.291   3.825   8.190  0.4132 -0.6103  0.4483
   94CHL1   C26 9429   6.457   3.939   8.257  0.0886 -0.5320  0.5482
   94CHL1  H26A 9430   6.532   3.881   8.198 -0.1676  0.2071 -0.5404
   94CHL1  H26B 9431   6.504   4.040   8.251  2.5901 -1.6657 -0.1975
   94CHL1  H26C 9432   6.459   3.899   8.360  1.1361 -1.4390  0.1902
   94CHL1   C27 9433   6.216   3.980   8.311 -0.4757  0.1091 -0.0199
   94CHL1  H27A 9434   6.235   4.088   8.329 -0.0387 -0.3319  2.5231
   94CHL1  H27B 9435   6.111   3.962   8.279 -0.2485 -0.6537 -0.3643
   94CHL1  H27C 9436   6.238   3.928   8.407  0.1756  0.7559  0.1857
   95CHL1    C3 9437   5.901   1.506   6.539  0.8247  0.3621  0.3117
   95CHL1    H3 9438   5.826   1.588   6.543 -0.0848 -0.3372 -1.1191
   95CHL1    O3 9439   5.917   1.501   6.397 -0.0503 -0.5743  0.0301
   95CHL1   H3' 9440   5.991   1.442   6.380  2.2947  2.4093 -1.2244
   95CHL1    C4 9441   6.018   1.540   6.620  0.0811 -0.8268 -0.5556
   95CHL1   H4A 9442   6.112   1.483   6.601  0.5425 -0.1551 -0.3145
   95CHL1   H4B 9443   6.050   1.643   6.593  0.0563 -0.7252 -0.1991
   95CHL1    C5 9444   5.980   1.540   6.772  0.5787 -0.2432 -0.5214
   95CHL1    C6 9445   5.982   1.649   6.854 -0.2752 -0.4210  0.0360
   95CHL1    H6 9446   6.025   1.746   6.823 -1.0396  0.4069  1.4476
   95CHL1    C7 9447   5.934   1.657   6.996 -0.2753  0.5447 -0.1888
   95CHL1   H7A 9448   6.003   1.714   7.062 -2.1246  0.4910  1.9133
   95CHL1   H7B 9449   5.836   1.709   6.991 -0.5824  0.2176  1.7767
   95CHL1    C8 9450   5.925   1.514   7.066  0.6005  0.3380 -0.0953
   95CHL1    H8 9451   6.028   1.474   7.073  0.8610  1.0559  0.2660
   95CHL1   C14 9452   5.860   1.517   7.201 -0.3027  0.0155  0.4070
   95CHL1   H14 9453   5.754   1.544   7.184 -0.5023 -0.1171  1.3838
   95CHL1   C15 9454   5.891   1.626   7.309  0.2082  0.2534  0.2005
   95CHL1  H15A 9455   5.999   1.650   7.308  0.0228  1.1863  0.5592
   95CHL1  H15B 9456   5.840   1.720   7.278  0.1295  0.8053  1.8732
   95CHL1   C16 9457   5.844   1.569   7.444 -0.1057 -0.1411  0.4260
   95CHL1  H16A 9458   5.935   1.557   7.507  0.6141  1.2215 -0.3150
   95CHL1  H16B 9459   5.767   1.628   7.498 -0.3779  0.9848 -1.1295
   95CHL1   C17 9460   5.777   1.432   7.409 -0.4531  0.2646 -0.3934
   95CHL1   H17 9461   5.673   1.460   7.384 -1.9686 -1.8111  2.8800
   95CHL1   C13 9462   5.845   1.387   7.278 -0.1156 -0.3069  0.0809
   95CHL1   C18 9463   5.985   1.336   7.322 -0.9018  0.1785  0.4769
   95CHL1  H18A 9464   6.023   1.407   7.398 -0.0701  0.0369  0.1998
   95CHL1  H18B 9465   5.980   1.236   7.371  2.5232 -1.3074 -1.8577
   95CHL1  H18C 9466   6.055   1.324   7.237  0.1252  0.4666  1.2644
   95CHL1   C12 9467   5.774   1.282   7.182 -0.3076  0.2258  0.1992
   95CHL1  H12A 9468   5.783   1.178   7.220 -0.7542 -0.3560 -1.2257
   95CHL1  H12B 9469   5.664   1.298   7.172 -0.2643 -0.3342 -1.4687
   95CHL1   C11 9470   5.842   1.281   7.039  0.2335  0.2114 -0.7505
   95CHL1  H11A 9471   5.940   1.238   7.069 -0.9915 -0.4833  2.8241
   95CHL1  H11B 9472   5.794   1.212   6.967  0.1405 -3.2861  2.3421
   95CHL1    C9 9473   5.859   1.422   6.970 -0.2125  0.2695 -0.0738
   95CHL1    H9 9474   5.760   1.465   6.946  1.5809  4.1460 -1.3653
   95CHL1   C10 9475   5.922   1.409   6.826  0.6195  0.0096 -0.2295
   95CHL1   C19 9476   6.045   1.315   6.825 -0.5776 -0.4779 -0.0226
   95CHL1  H19A 9477   6.126   1.347   6.895 -1.0362  0.6693 -0.0005
   95CHL1  H19B 9478   6.015   1.212   6.855  0.3549 -1.2411 -1.5783
   95CHL1  H19C 9479   6.096   1.301   6.728  1.1689 -0.5463  0.8583
   95CHL1    C1 9480   5.809   1.364   6.731  0.1275  0.0380  0.1543
   95CHL1   H1A 9481   5.778   1.260   6.757 -1.9612 -0.1734 -2.6875
   95CHL1   H1B 9482   5.712   1.418   6.735  0.3003  0.3196  0.6717
   95CHL1    C2 9483   5.851   1.367   6.581 -0.1586  0.5916  0.1481
   95CHL1   H2A 9484   5.770   1.330   6.514  0.4171  2.3200 -1.6236
   95CHL1   H2B 9485   5.940   1.301   6.577  0.4856  1.3875  1.0301
   95CHL1   C20 9486   5.763   1.330   7.524 -0.3029  0.3418 -0.3545
   95CHL1   H20 9487   5.857   1.275   7.546 -0.9480 -0.4315  0.5650
   95CHL1   C21 9488   5.644   1.240   7.497  0.0349  0.4498  0.1465
   95CHL1  H21A 9489   5.669   1.181   7.406  1.2853  0.3719  0.5101
   95CHL1  H21B 9490   5.557   1.303   7.473 -0.5461 -1.4349 -3.4182
   95CHL1  H21C 9491   5.627   1.167   7.579  0.3155  0.0130 -0.1774
   95CHL1   C22 9492   5.736   1.403   7.658 -0.2705  0.1370  0.1130
   95CHL1  H22A 9493   5.821   1.464   7.695 -0.1288  0.9167 -1.4135
   95CHL1  H22B 9494   5.645   1.460   7.629 -0.2158 -0.2479 -0.8449
   95CHL1   C23 9495   5.692   1.303   7.775 -0.1126 -0.5700  0.1279
   95CHL1  H23A 9496   5.680   1.360   7.870 -0.3123 -0.9939  0.3567
   95CHL1  H23B 9497   5.594   1.258   7.749 -0.3320  0.2076 -0.4405
   95CHL1   C24 9498   5.798   1.195   7.803  0.1248 -0.3487  0.1048
   95CHL1  H24A 9499   5.836   1.145   7.711  2.5828  2.2160 -0.4348
   95CHL1  H24B 9500   5.895   1.240   7.833 -0.8461  0.1551  2.8314
   95CHL1   C25 9501   5.741   1.093   7.907 -0.4011 -0.3385 -0.3581
   95CHL1   H25 9502   5.684   1.152   7.981  0.3144 -0.9133  0.6832
   95CHL1   C26 9503   5.641   1.006   7.834 -0.9960 -0.1857 -0.1230
   95CHL1  H26A 9504   5.545   1.053   7.804  0.8989  2.6700 -2.3042
   95CHL1  H26B 9505   5.686   0.964   7.741  0.1485  0.8089 -0.0346
   95CHL1  H26C 9506   5.621   0.920   7.902  0.0239 -1.5287 -1.4627
   95CHL1   C27 9507   5.843   1.011   7.978  0.0155 -0.3129 -0.0773
   95CHL1  H27A 9508   5.915   1.081   8.024 -1.6163 -0.4100  2.8472
   95CHL1  H27B 9509   5.800   0.968   8.071  2.1761 -2.2854  0.1249
   95CHL1  H27C 9510   5.876   0.937   7.901  1.6146  0.0522  0.2178
   96CHL1    C3 9511   4.916   1.539   6.615 -0.2930 -0.6583 -0.4926
   96CHL1    H3 9512   4.877   1.644   6.614  2.1690  0.4127  2.0550
   96CHL1    O3 9513   4.963   1.501   6.485 -0.3187 -0.0179  0.0331
   96CHL1   H3' 9514   5.046   1.455   6.495  0.0734  0.7938  0.6668
   96CHL1    C4 9515   5.017   1.532   6.725  0.3664  1.2889 -0.7455
   96CHL1   H4A 9516   5.053   1.427   6.728  0.1507  1.1406 -2.4880
   96CHL1   H4B 9517   5.100   1.596   6.689  2.9196 -1.5612 -0.4157
   96CHL1    C5 9518   4.970   1.557   6.870 -0.4829 -0.4958  0.3274
   96CHL1    C6 9519   5.024   1.661   6.939  0.1015  0.3295  0.2746
   96CHL1    H6 9520   5.115   1.713   6.905  1.0013 -2.5946 -2.1972
   96CHL1    C7 9521   4.984   1.695   7.080  0.3469  0.3762  0.0084
   96CHL1   H7A 9522   5.079   1.710   7.136  0.3210 -0.9802  0.4424
   96CHL1   H7B 9523   4.921   1.787   7.082  1.0762  0.9635 -1.7847
   96CHL1    C8 9524   4.907   1.571   7.138 -0.0751 -1.1594  0.3800
   96CHL1    H8 9525   4.980   1.488   7.150  1.5374 -0.5364 -3.5110
   96CHL1   C14 9526   4.848   1.612   7.276  0.0753  0.1154 -0.0327
   96CHL1   H14 9527   4.779   1.696   7.251 -0.1517 -0.5821 -1.9236
   96CHL1   C15 9528   4.945   1.665   7.380  0.0282  0.2906 -0.1410
   96CHL1  H15A 9529   5.037   1.604   7.376 -1.1116 -1.5019 -0.0634
   96CHL1  H15B 9530   4.982   1.770   7.370  1.8085  0.2224  3.8026
   96CHL1   C16 9531   4.875   1.651   7.513 -0.2412 -0.2661  0.1417
   96CHL1  H16A 9532   4.936   1.602   7.592  0.7997  1.1969  0.2977
   96CHL1  H16B 9533   4.840   1.750   7.551  0.2830  1.7620 -4.0522
   96CHL1   C17 9534   4.743   1.565   7.486  0.3985  0.4473 -0.0415
   96CHL1   H17 9535   4.659   1.636   7.477  0.6504  1.1022  2.1602
   96CHL1   C13 9536   4.764   1.504   7.345 -0.7610  0.9732 -0.4313
   96CHL1   C18 9537   4.848   1.379   7.374 -0.9158  0.0671 -0.1519
   96CHL1  H18A 9538   4.914   1.389   7.463 -1.8692  0.9928  0.4771
   96CHL1  H18B 9539   4.788   1.285   7.378  1.8314 -1.8574 -0.9634
   96CHL1  H18C 9540   4.919   1.353   7.293 -0.7411 -0.9287  0.2948
   96CHL1   C12 9541   4.646   1.480   7.251  1.3731  0.5374 -0.6209
   96CHL1  H12A 9542   4.571   1.406   7.287  0.7850  1.0251 -0.8319
   96CHL1  H12B 9543   4.588   1.575   7.249  1.6653  0.8041  1.3932
   96CHL1   C11 9544   4.683   1.428   7.110  0.4209 -0.6314  0.0751
   96CHL1  H11A 9545   4.733   1.330   7.124  0.8223 -0.3272  0.8125
   96CHL1  H11B 9546   4.591   1.416   7.048 -0.9057  2.3639  1.2826
   96CHL1    C9 9547   4.794   1.522   7.043 -0.2256 -1.1427 -0.6230
   96CHL1    H9 9548   4.733   1.611   7.018  1.3011  0.8267  2.0488
   96CHL1   C10 9549   4.849   1.472   6.915 -0.1511  0.4339 -0.2243
   96CHL1   C19 9550   4.902   1.332   6.937  0.0382  0.1945 -0.3319
   96CHL1  H19A 9551   4.989   1.327   7.006  1.6225  1.5536 -2.1033
   96CHL1  H19B 9552   4.818   1.267   6.968 -0.4078  0.2563 -1.3711
   96CHL1  H19C 9553   4.934   1.276   6.847  1.6456  0.9836 -0.2907
   96CHL1    C1 9554   4.746   1.474   6.800 -0.6316 -0.4677  0.0420
   96CHL1   H1A 9555   4.658   1.418   6.835 -1.0944  1.0543  1.4734
   96CHL1   H1B 9556   4.710   1.579   6.789 -0.6665 -0.6311 -1.7139
   96CHL1    C2 9557   4.802   1.445   6.655  0.4436 -0.1413  0.0795
   96CHL1   H2A 9558   4.720   1.453   6.581  0.5774 -0.8000 -0.1423
   96CHL1   H2B 9559   4.836   1.340   6.651  0.1822 -0.1973 -0.7954
   96CHL1   C20 9560   4.697   1.472   7.601 -0.9500  0.3175  0.6293
   96CHL1   H20 9561   4.773   1.392   7.614 -0.5639  0.5690 -0.0377
   96CHL1   C21 9562   4.566   1.399   7.565 -0.3704  0.1950 -0.1318
   96CHL1  H21A 9563   4.485   1.466   7.527 -0.7766  0.9335  1.8891
   96CHL1  H21B 9564   4.527   1.357   7.660  1.2265  0.6043  0.7434
   96CHL1  H21C 9565   4.590   1.315   7.497  2.3918 -0.2491  1.2293
   96CHL1   C22 9566   4.685   1.547   7.734  0.5378  0.7061 -0.6146
   96CHL1  H22A 9567   4.781   1.592   7.768  0.9028  0.2409 -1.0255
   96CHL1  H22B 9568   4.607   1.626   7.733  0.5244  0.7481  0.9421
   96CHL1   C23 9569   4.634   1.456   7.853  0.7916  0.2289  0.7191
   96CHL1  H23A 9570   4.524   1.456   7.867  0.6332 -0.9569 -0.3245
   96CHL1  H23B 9571   4.663   1.350   7.835 -1.0135 -0.1847  0.0244
   96CHL1   C24 9572   4.698   1.492   7.988  0.7954 -0.1847  0.3857
   96CHL1  H24A 9573   4.807   1.473   7.978  0.8028 -0.1381  0.3754
   96CHL1  H24B 9574   4.697   1.602   7.999 -0.7108 -0.3052  1.7599
   96CHL1   C25 9575   4.649   1.413   8.110  0.2292 -0.7250  0.6299
   96CHL1   H25 9576   4.540   1.427   8.125  0.2855  0.6532 -0.1649
   96CHL1   C26 9577   4.677   1.264   8.091  0.0467  0.1121 -0.8120
   96CHL1  H26A 9578   4.785   1.242   8.073  1.0053  1.9027  2.1418
   96CHL1  H26B 9579   4.642   1.214   8.183  0.0603 -0.2898 -1.0225
   96CHL1  H26C 9580   4.616   1.218   8.010 -0.2447  1.0826 -1.1571
   96CHL1   C27 9581   4.725   1.461   8.232  0.1244  0.1685  0.0719
   96CHL1  H27A 9582   4.704   1.565   8.266 -0.3713 -0.8496  3.2111
   96CHL1  H27B 9583   4.703   1.406   8.326 -1.3799  1.3424  0.4411
   96CHL1  H27C 9584   4.835   1.462   8.216  1.1643  1.5093  5.2276
   97OSM      N 9585   3.094   3.811  11.257 -0.1418  0.3764  0.3225
   97OSM    C15 9586   2.951   3.815  11.222 -0.4918 -0.3631 -0.0372
   97OSM   H15A 9587   2.888   3.758  11.289  2.2584 -3.1608  0.3882
   97OSM   H15B 9588   2.940   3.761  11.130  1.0171 -1.5287  0.4169
   97OSM   H15C 9589   2.916   3.913  11.195  0.1158 -0.0811  0.1774
   97OSM    C14 9590   3.165   3.858  11.134 -0.0113 -0.3631  0.1476
   97OSM   H14A 9591   3.272   3.855  11.150  0.5353 -0.1988 -2.9726
   97OSM   H14B 9592   3.132   3.956  11.104  0.1513 -0.6933 -1.1662
   97OSM   H14C 9593   3.145   3.791  11.052 -1.4128 -0.5865  0.6517
   97OSM    C13 9594   3.119   3.887  11.372 -0.2083  1.1173  0.3183
   97OSM   H13A 9595   3.098   3.991  11.353 -0.6235  0.9864  0.0540
   97OSM   H13B 9596   3.217   3.862  11.411 -0.1439 -0.8277 -0.9494
   97OSM   H13C 9597   3.050   3.851  11.447 -1.2048  1.4289 -0.4487
   97OSM    C12 9598   3.128   3.669  11.283 -0.3598  0.0108 -0.3082
   97OSM   H12A 9599   3.070   3.628  11.364  1.8195 -0.1145  1.2876
   97OSM   H12B 9600   3.229   3.646  11.313 -0.6801  0.0091  0.7862
   97OSM    C11 9601   3.102   3.572  11.157 -0.3519 -0.3900 -0.5598
   97OSM   H11A 9602   3.007   3.598  11.105  0.4006  0.4958 -1.5147
   97OSM   H11B 9603   3.088   3.469  11.198  0.1741  0.2929  1.4796
   97OSM      P 9604   3.260   3.444  10.990  0.3381  0.0218  0.2896
   97OSM    O13 9605   3.320   3.495  10.863  0.2788  0.4175  1.1397
   97OSM    O14 9606   3.341   3.358  11.080 -0.1159 -0.4741 -0.2943
   97OSM    O11 9607   3.122   3.379  10.944  0.4705  0.0493  0.0664
   97OSM    O12 9608   3.211   3.574  11.070 -0.4580 -0.0915 -0.4202
   97OSM    C1S 9609   3.031   3.451  10.855 -0.0832 -0.3202 -0.9134
   97OSM    H1S 9610   3.060   3.557  10.840 -0.1960 -0.3245 -1.1564
   97OSM    H1T 9611   2.930   3.457  10.902  0.2815 -0.1391 -0.1324
   97OSM     NF 9612   2.905   3.458  10.654  0.8643  0.4989  0.1763
   97OSM    HNF 9613   2.814   3.420  10.642  1.8832 -2.2470  0.5252
   97OSM    C2S 9614   3.006   3.387  10.721 -0.3062  1.3687 -0.3173
   97OSM    H2S 9615   3.101   3.395  10.664  0.7114 -1.3664  0.8355
   97OSM    C3S 9616   2.980   3.231  10.721 -0.1357 -0.3779 -0.2832
   97OSM    H3S 9617   2.893   3.209  10.787 -0.0393  2.5193  0.9673
   97OSM     O3 9618   3.090   3.162  10.784 -0.9775  0.1324 -0.3318
   97OSM    HO3 9619   3.138   3.221  10.843 -0.8423 -0.0567 -0.2523
   97OSM    C4S 9620   2.961   3.165  10.585  0.2851  1.0333 -0.8073
   97OSM    H4S 9621   2.855   3.143  10.565  0.6021 -1.8872  0.3443
   97OSM    C5S 9622   3.058   3.129  10.490  0.7692  0.3421 -0.7724
   97OSM    H5S 9623   3.159   3.163  10.515  0.4055  1.5751 -0.8750
   97OSM    C6S 9624   3.032   3.054  10.354 -0.3036 -0.3436 -0.0704
   97OSM    H6S 9625   2.927   3.021  10.340 -0.5096 -0.6297  1.7867
   97OSM    H6T 9626   3.093   2.962  10.359  2.4199  1.3607 -0.0808
   97OSM    C7S 9627   3.064   3.146  10.230  0.2772 -0.1564  0.5159
   97OSM    H7S 9628   3.174   3.162  10.223  0.2998  0.0771  1.3409
   97OSM    H7T 9629   3.026   3.250  10.235 -0.9456 -0.5553  0.0022
   97OSM    C8S 9630   3.010   3.106  10.091  0.7227  0.4661 -0.6610
   97OSM    H8S 9631   3.041   3.186  10.021 -2.0723  2.2067 -0.0699
   97OSM    H8T 9632   2.900   3.115  10.105  1.0716  2.3339  1.3932
   97OSM    C9S 9633   3.062   2.969  10.054  0.1965 -0.4958 -0.3123
   97OSM    H9S 9634   3.022   2.891  10.122 -1.5773  0.4801 -0.1843
   97OSM    H9T 9635   3.173   2.969  10.065  0.4455 -0.5448 -2.4693
   97OSM   C10S 9636   3.024   2.912   9.916  0.1021  0.3414 -0.6676
   97OSM   H10S 9637   2.914   2.915   9.903 -0.1152  0.5502  0.9365
   97OSM   H10T 9638   3.051   2.804   9.921 -0.1901  0.2811 -0.3456
   97OSM   C11S 9639   3.104   2.966   9.801 -0.0037  0.3968  0.5418
   97OSM   H11S 9640   3.210   2.981   9.831  0.3516 -0.4520 -0.2461
   97OSM   H11T 9641   3.071   3.070   9.777  1.6433  0.3696 -2.2493
   97OSM   C12S 9642   3.092   2.866   9.682 -0.0852  0.0358  0.4234
   97OSM   H12S 9643   2.985   2.848   9.658 -0.1827 -0.3320  1.1131
   97OSM   H12T 9644   3.139   2.776   9.726 -0.2535  0.1057  0.7516
   97OSM   C13S 9645   3.174   2.907   9.559  0.4914 -0.3704  0.5049
   97OSM   H13S 9646   3.277   2.940   9.588 -0.0623  2.3991 -0.3600
   97OSM   H13T 9647   3.119   2.996   9.523 -2.5059 -1.3362  2.3693
   97OSM   C14S 9648   3.178   2.809   9.436 -0.5042 -0.5279 -0.8303
   97OSM   H14S 9649   3.075   2.780   9.409 -0.7194  0.1641 -0.7675
   97OSM   H14T 9650   3.210   2.710   9.476 -3.4052 -1.0810  0.3251
   97OSM   C15S 9651   3.268   2.858   9.322  0.7760 -0.1873 -0.5245
   97OSM   H15S 9652   3.373   2.867   9.357  1.4878 -1.3453 -2.2614
   97OSM   H15T 9653   3.235   2.951   9.272 -2.3763 -1.9191 -1.9482
   97OSM   C16S 9654   3.270   2.754   9.201 -0.2925 -0.2885  0.4222
   97OSM   H16S 9655   3.164   2.755   9.168 -0.1321  1.4742 -0.1522
   97OSM   H16T 9656   3.304   2.665   9.258  0.1528  1.0567  2.3462
   97OSM   C17S 9657   3.387   2.792   9.106 -0.1296 -0.0253 -0.1158
   97OSM   H17S 9658   3.481   2.777   9.163  0.4089  0.5449 -0.8341
   97OSM   H17T 9659   3.382   2.892   9.059  1.9017 -1.3708 -3.5558
   97OSM   C18S 9660   3.401   2.695   8.982  0.0187 -0.1126  0.4569
   97OSM   H18S 9661   3.480   2.722   8.909 -2.6533  1.7035 -2.0106
   97OSM   H18T 9662   3.299   2.705   8.938 -0.1132  2.4964  1.1718
   97OSM   H18U 9663   3.420   2.591   9.016 -0.0189 -0.2941 -0.0749
   97OSM    C1F 9664   2.901   3.584  10.619  0.2528 -0.0942 -0.4590
   97OSM     OF 9665   2.989   3.661  10.661 -0.0025  0.1282 -0.4916
   97OSM    C2F 9666   2.774   3.627  10.548  0.5662 -0.6115  0.7984
   97OSM    H2F 9667   2.703   3.654  10.629 -2.9058 -3.0380 -1.1952
   97OSM    H2G 9668   2.735   3.545  10.485 -0.8927 -0.3965  1.3915
   97OSM    C3F 9669   2.793   3.753  10.458 -0.8538  0.4496 -0.4089
   97OSM    H3F 9670   2.852   3.832  10.508 -0.8508 -0.2817  0.7792
   97OSM    H3G 9671   2.689   3.782  10.432 -1.5909 -1.1124  0.6702
   97OSM    C4F 9672   2.860   3.714  10.330  0.2244 -0.1620  0.0377
   97OSM    H4F 9673   2.949   3.648  10.342  0.3597  0.0788  0.3622
   97OSM    H4G 9674   2.885   3.805  10.271  1.5221  0.8552  2.0448
   97OSM    C5F 9675   2.763   3.628  10.242 -0.3118  0.2576  0.3018
   97OSM    H5F 9676   2.662   3.673  10.236 -0.2432  0.5559  1.3460
   97OSM    H5G 9677   2.741   3.530  10.290 -2.2415  1.3588  1.7719
   97OSM    C6F 9678   2.827   3.621  10.103  0.1531  0.6229  0.6699
   97OSM    H6F 9679   2.857   3.719  10.061 -0.5583  1.0218  1.0919
   97OSM    H6G 9680   2.748   3.583  10.035 -1.7504  0.3782  2.8894
   97OSM    C7F 9681   2.945   3.523  10.100  0.1645  0.0253 -0.6718
   97OSM    H7F 9682   2.907   3.422  10.127  1.9848 -0.8857 -1.3763
   97OSM    H7G 9683   3.020   3.570  10.167 -0.8512  0.9932 -0.1857
   97OSM    C8F 9684   3.005   3.519   9.963  0.0457  0.6628  0.5639
   97OSM    H8F 9685   2.937   3.458   9.900 -0.1265  1.2927  0.1273
   97OSM    H8G 9686   3.104   3.472   9.975  1.4877  2.8274 -1.8231
   97OSM    C9F 9687   3.039   3.644   9.892 -0.4011 -1.0197 -0.2725
   97OSM    H9F 9688   3.008   3.740   9.934 -0.8892 -0.2327 -2.3040
   97OSM   C10F 9689   3.100   3.637   9.778 -0.2623  0.0555  0.2634
   97OSM   H10F 9690   3.126   3.734   9.733 -1.1881 -1.1574 -3.1953
   97OSM   C11F 9691   3.134   3.508   9.703 -0.0474  0.3736 -0.3799
   97OSM   H11F 9692   3.093   3.416   9.749 -1.8440  0.3453 -1.9425
   97OSM   H11G 9693   3.244   3.496   9.713 -0.1381  1.3283  3.0499
   97OSM   C12F 9694   3.110   3.531   9.554 -0.1097 -0.7548 -0.2718
   97OSM   H12F 9695   3.142   3.631   9.516 -1.0893  0.0059  0.8595
   97OSM   H12G 9696   3.003   3.537   9.526 -0.2954  1.6893  0.7486
   97OSM   C13F 9697   3.179   3.424   9.469 -0.1048  0.0130  0.2364
   97OSM   H13F 9698   3.169   3.322   9.512 -0.1735 -0.3483 -0.6274
   97OSM   H13G 9699   3.288   3.440   9.455 -0.1308  0.9894  1.0291
   97OSM   C14F 9700   3.137   3.433   9.326  0.0246  0.9674 -0.6305
   97OSM   H14F 9701   3.131   3.538   9.290 -1.3161  0.1973 -2.8313
   97OSM   H14G 9702   3.041   3.380   9.310  1.1789 -1.5076  0.1316
   97OSM   C15F 9703   3.242   3.355   9.241 -1.0991  0.1705  0.0285
   97OSM   H15F 9704   3.259   3.262   9.299 -0.3533  2.4657  3.7731
   97OSM   H15G 9705   3.331   3.420   9.226 -1.9920  1.7758  1.4473
   97OSM   C16F 9706   3.187   3.299   9.112  0.5503 -0.1396  0.7610
   97OSM   H16F 9707   3.126   3.372   9.054 -1.2834 -3.3101 -1.5638
   97OSM   H16G 9708   3.109   3.222   9.131  0.4828 -0.0783  0.7358
   97OSM   C17F 9709   3.293   3.235   9.017  0.1001 -0.2982 -0.9478
   97OSM   H17F 9710   3.326   3.138   9.061 -0.3672 -1.6996 -3.4660
   97OSM   H17G 9711   3.377   3.307   9.011  0.8733 -1.0015  0.8588
   97OSM   C18F 9712   3.244   3.211   8.874 -0.1391 -0.0438 -0.0958
   97OSM   H18F 9713   3.174   3.124   8.868  0.4805 -0.7783  2.3711
   97OSM   H18G 9714   3.322   3.180   8.801  0.0468  1.2193 -0.4534
   97OSM   H18H 9715   3.192   3.300   8.832  0.9445 -0.1236 -1.7059
   98OSM      N 9716   3.384   2.886  10.804  1.2013  0.3300 -0.1804
   98OSM    C15 9717   3.358   2.855  10.951 -0.2916  0.9302 -0.4440
   98OSM   H15A 9718   3.406   2.935  11.005 -1.6807  2.8120 -1.8627
   98OSM   H15B 9719   3.402   2.763  10.984 -2.0560  0.6790  1.4425
   98OSM   H15C 9720   3.252   2.857  10.972 -0.2584 -0.8040  0.0308
   98OSM    C14 9721   3.312   2.785  10.722  0.1716  0.0420 -0.4496
   98OSM   H14A 9722   3.320   2.681  10.752 -2.3644  0.2275  1.2526
   98OSM   H14B 9723   3.333   2.797  10.617 -0.1679  0.2974 -0.4900
   98OSM   H14C 9724   3.204   2.797  10.726  0.2325  1.9518 -2.4910
   98OSM    C13 9725   3.339   3.022  10.766 -0.1176 -0.5104 -0.0055
   98OSM   H13A 9726   3.381   3.094  10.835 -2.0230  0.4113  0.2668
   98OSM   H13B 9727   3.231   3.026  10.772 -0.0156  0.0466  2.2732
   98OSM   H13C 9728   3.371   3.044  10.665 -0.9312 -1.3505 -0.4619
   98OSM    C12 9729   3.533   2.882  10.784  0.2982 -0.3226 -0.1386
   98OSM   H12A 9730   3.575   2.980  10.797  0.6970 -0.4920 -0.1087
   98OSM   H12B 9731   3.552   2.868  10.678 -0.8865 -1.1584 -0.2627
   98OSM    C11 9732   3.621   2.785  10.856 -0.5857  0.0977  0.4533
   98OSM   H11A 9733   3.631   2.803  10.965 -0.2406 -1.0049  0.6107
   98OSM   H11B 9734   3.727   2.790  10.826 -0.9007 -0.2939 -0.7648
   98OSM      P 9735   3.623   2.567  10.715 -0.3283  0.0180 -0.1850
   98OSM    O13 9736   3.759   2.513  10.739 -0.0823 -0.3829 -0.5781
   98OSM    O14 9737   3.517   2.466  10.686 -0.6427  0.3220  0.3382
   98OSM    O11 9738   3.638   2.681  10.600  0.1105  0.4207 -0.1607
   98OSM    O12 9739   3.575   2.651  10.838 -0.0105 -0.1486  0.2291
   98OSM    C1S 9740   3.754   2.702  10.525 -0.2661 -0.1324 -1.1533
   98OSM    H1S 9741   3.804   2.604  10.515 -1.9524 -0.9793 -1.6759
   98OSM    H1T 9742   3.803   2.783  10.583 -4.3845  0.9837  1.1970
   98OSM     NF 9743   3.846   2.765  10.315  0.2810  0.3286 -0.7690
   98OSM    HNF 9744   3.891   2.851  10.293  0.2083  0.0138 -2.2656
   98OSM    C2S 9745   3.720   2.747  10.380 -0.0100  0.4839 -0.4293
   98OSM    H2S 9746   3.662   2.670  10.326 -2.6221  3.1560 -1.7146
   98OSM    C3S 9747   3.620   2.871  10.382 -0.3509 -0.3733  0.0199
   98OSM    H3S 9748   3.673   2.945  10.446 -2.6434 -0.4619  2.1715
   98OSM     O3 9749   3.493   2.843  10.442  0.4302  0.5197  0.4997
   98OSM    HO3 9750   3.519   2.762  10.488 -1.0856  0.5568  1.4916
   98OSM    C4S 9751   3.609   2.929  10.242 -0.7262  0.4970  0.4556
   98OSM    H4S 9752   3.689   3.002  10.219 -0.6764  1.2564  2.7922
   98OSM    C5S 9753   3.513   2.892  10.152  0.1153  0.2303 -0.1663
   98OSM    H5S 9754   3.445   2.811  10.183  1.6831 -1.8945 -2.0042
   98OSM    C6S 9755   3.490   2.948  10.013 -0.4942 -0.2888 -0.9148
   98OSM    H6S 9756   3.576   3.011   9.982  1.1071 -1.0643  1.5969
   98OSM    H6T 9757   3.393   3.001  10.008  1.0650  3.3673  2.4002
   98OSM    C7S 9758   3.475   2.829   9.920 -0.1129 -0.9670  0.3447
   98OSM    H7S 9759   3.431   2.867   9.825  0.7970 -0.2271  0.2053
   98OSM    H7T 9760   3.419   2.752   9.976 -0.0984 -0.1606  1.5057
   98OSM    C8S 9761   3.615   2.773   9.884 -0.0097 -0.1721 -0.0323
   98OSM    H8S 9762   3.675   2.745   9.973  0.9951 -0.1930 -0.7094
   98OSM    H8T 9763   3.665   2.856   9.829  0.9533  0.0345  1.1172
   98OSM    C9S 9764   3.614   2.642   9.811 -0.2968 -0.0816  0.2160
   98OSM    H9S 9765   3.546   2.576   9.869 -0.3966 -0.9248 -0.8407
   98OSM    H9T 9766   3.718   2.602   9.820 -0.3969 -0.1831  1.0368
   98OSM   C10S 9767   3.582   2.651   9.657 -0.3432  0.1630  0.0715
   98OSM   H10S 9768   3.651   2.730   9.620  2.2662 -2.0097  0.0098
   98OSM   H10T 9769   3.476   2.678   9.638 -0.1336 -0.3037 -2.0036
   98OSM   C11S 9770   3.620   2.519   9.589  0.3413 -0.5909 -0.6193
   98OSM   H11S 9771   3.719   2.485   9.628  1.2574 -0.1077 -2.4073
   98OSM   H11T 9772   3.651   2.530   9.482 -0.3179  1.4186 -0.6516
   98OSM   C12S 9773   3.506   2.414   9.600 -0.6009 -0.0559  0.2947
   98OSM   H12S 9774   3.417   2.466   9.557  1.9410  3.8490 -0.7509
   98OSM   H12T 9775   3.489   2.406   9.710 -0.9013  0.9240  0.3330
   98OSM   C13S 9776   3.547   2.285   9.521  0.6198 -0.0989  0.3731
   98OSM   H13S 9777   3.459   2.220   9.541  1.1098 -0.7110  0.5823
   98OSM   H13T 9778   3.632   2.242   9.579 -0.2062 -2.0147  0.2070
   98OSM   C14S 9779   3.561   2.305   9.375  0.6012  0.4521  0.3898
   98OSM   H14S 9780   3.660   2.355   9.364  1.0875 -0.6579 -0.4419
   98OSM   H14T 9781   3.484   2.376   9.336  1.1748  0.3982 -0.9036
   98OSM   C15S 9782   3.570   2.177   9.292 -0.9093 -0.1110 -0.2275
   98OSM   H15S 9783   3.481   2.112   9.308 -0.2111 -0.4827  3.0189
   98OSM   H15T 9784   3.654   2.126   9.345 -1.7625 -1.0081  0.3097
   98OSM   C16S 9785   3.580   2.194   9.135 -0.6347 -0.1688 -0.5348
   98OSM   H16S 9786   3.672   2.248   9.105 -0.0018 -1.9970 -2.0945
   98OSM   H16T 9787   3.500   2.261   9.097 -0.1108  1.2560  0.8164
   98OSM   C17S 9788   3.581   2.066   9.064 -0.1569  0.3906 -0.3880
   98OSM   H17S 9789   3.487   2.011   9.087  1.0384 -1.0236  1.4244
   98OSM   H17T 9790   3.660   1.990   9.079 -0.1040  0.1193 -1.9189
   98OSM   C18S 9791   3.589   2.090   8.911  0.5900 -0.1325 -0.1325
   98OSM   H18S 9792   3.692   2.127   8.891  0.1242  1.3047  0.0003
   98OSM   H18T 9793   3.505   2.155   8.879  1.0017 -0.8374 -2.9198
   98OSM   H18U 9794   3.566   1.994   8.859  0.0147 -1.6346  2.6779
   98OSM    C1F 9795   3.921   2.660  10.292  0.2549 -0.4938  0.5966
   98OSM     OF 9796   3.882   2.546  10.297  0.1449  0.0035 -0.0636
   98OSM    C2F 9797   4.059   2.685  10.237  0.1967 -0.5027 -0.3116
   98OSM    H2F 9798   4.137   2.651  10.308  1.1122 -0.2708 -1.1832
   98OSM    H2G 9799   4.069   2.795  10.228 -0.0369 -0.6264 -2.5725
   98OSM    C3F 9800   4.096   2.623  10.106 -1.5392 -0.6293 -0.5699
   98OSM    H3F 9801   4.119   2.517  10.133  0.6870 -0.4416 -1.4985
   98OSM    H3G 9802   4.191   2.664  10.066 -0.1488 -3.7766 -0.8537
   98OSM    C4F 9803   3.995   2.617   9.992 -0.6613  0.0486  0.0847
   98OSM    H4F 9804   3.923   2.701   9.999 -0.7668 -0.0532  0.2372
   98OSM    H4G 9805   3.945   2.519   9.976 -3.4058  1.5064 -0.9028
   98OSM    C5F 9806   4.062   2.657   9.855 -0.2062 -0.3289  0.6953
   98OSM    H5F 9807   4.167   2.626   9.837 -0.6402 -1.2730 -0.2728
   98OSM    H5G 9808   4.062   2.768   9.855  1.3580 -0.2563 -1.6792
   98OSM    C6F 9809   3.989   2.609   9.721 -0.2801 -0.0957 -0.4052
   98OSM    H6F 9810   3.898   2.668   9.698  0.1094  1.2945  1.3705
   98OSM    H6G 9811   3.964   2.503   9.740 -0.2353 -0.5795 -2.7629
   98OSM    C7F 9812   4.078   2.620   9.594 -0.0505 -0.4540  0.1589
   98OSM    H7F 9813   4.165   2.557   9.621  1.1482  0.0815 -2.1829
   98OSM    H7G 9814   4.116   2.724   9.579 -1.9523  0.4547  1.1999
   98OSM    C8F 9815   4.020   2.569   9.453 -0.1939  0.2749 -0.8359
   98OSM    H8F 9816   3.979   2.467   9.471 -0.1949  0.2098 -1.1857
   98OSM    H8G 9817   4.093   2.559   9.370  1.2670 -2.6600  0.6681
   98OSM    C9F 9818   3.908   2.658   9.403  0.2049  0.8368  0.0693
   98OSM    H9F 9819   3.862   2.730   9.473 -1.2187 -0.6159  0.6934
   98OSM   C10F 9820   3.874   2.672   9.273  0.4542 -0.1193  0.3216
   98OSM   H10F 9821   3.786   2.735   9.253  0.4963  0.3528  1.5620
   98OSM   C11F 9822   3.926   2.605   9.155  0.3286 -0.3227  0.2120
   98OSM   H11F 9823   3.988   2.514   9.172 -1.8242 -2.0480 -0.6933
   98OSM   H11G 9824   3.995   2.674   9.101 -2.1330  0.6794 -1.8367
   98OSM   C12F 9825   3.811   2.563   9.061 -0.1417 -0.6432  0.0936
   98OSM   H12F 9826   3.751   2.654   9.040  0.7653  0.2484  1.2458
   98OSM   H12G 9827   3.752   2.481   9.108  0.8929 -1.9673 -0.8125
   98OSM   C13F 9828   3.867   2.501   8.930 -0.0232  0.3784  0.5323
   98OSM   H13F 9829   3.927   2.412   8.961  1.8580  0.8919 -1.4459
   98OSM   H13G 9830   3.939   2.567   8.878  0.7907 -1.0309 -0.2000
   98OSM   C14F 9831   3.766   2.450   8.824 -0.6171 -1.1147 -0.1724
   98OSM   H14F 9832   3.712   2.533   8.773  1.0386  1.4881  2.0055
   98OSM   H14G 9833   3.684   2.391   8.869 -0.7671 -0.2155  0.7950
   98OSM   C15F 9834   3.833   2.363   8.721  0.3142  0.4872 -0.1637
   98OSM   H15F 9835   3.880   2.273   8.765  0.9533  0.3357 -1.1175
   98OSM   H15G 9836   3.911   2.417   8.663  0.7115 -0.5404 -0.6045
   98OSM   C16F 9837   3.722   2.306   8.628 -0.5785  0.2701  0.5261
   98OSM   H16F 9838   3.666   2.387   8.576 -0.2667 -0.3715 -0.8459
   98OSM   H16G 9839   3.648   2.253   8.691  1.4202 -0.5992  2.2867
   98OSM   C17F 9840   3.785   2.220   8.517 -0.1028 -0.2058  0.4559
   98OSM   H17F 9841   3.709   2.150   8.478  1.3871 -0.5271 -2.0919
   98OSM   H17G 9842   3.873   2.157   8.541 -2.2463 -3.2409  0.9009
   98OSM   C18F 9843   3.825   2.308   8.395  0.4621 -0.0014 -0.4815
   98OSM   H18F 9844   3.849   2.409   8.436  0.1771 -0.4382  0.7874
   98OSM   H18G 9845   3.741   2.318   8.323  0.7932  1.7589 -0.6716
   98OSM   H18H 9846   3.918   2.273   8.346 -1.0916 -2.1278 -2.0756
   99OSM      N 9847   4.701   3.899  10.693 -1.0504  0.0642 -0.9312
   99OSM    C15 9848   4.585   3.975  10.754  0.6343  0.0087  0.1862
   99OSM   H15A 9849   4.567   3.938  10.854 -0.1563 -0.4366 -0.1114
   99OSM   H15B 9850   4.499   3.966  10.689 -0.0153  1.1096  0.8722
   99OSM   H15C 9851   4.610   4.080  10.751  0.0973  0.1188 -1.4252
   99OSM    C14 9852   4.827   3.956  10.767 -0.4462 -0.2113  0.0231
   99OSM   H14A 9853   4.914   3.897  10.743  1.1852  1.6628  1.0390
   99OSM   H14B 9854   4.820   3.968  10.875  1.2345  0.5393  0.0850
   99OSM   H14C 9855   4.852   4.054  10.729  0.4653  0.2028  1.5902
   99OSM    C13 9856   4.676   3.755  10.741 -0.2252 -0.3146  0.7840
   99OSM   H13A 9857   4.577   3.729  10.706 -0.1164  0.4236 -0.1226
   99OSM   H13B 9858   4.687   3.754  10.848  1.8383 -0.2080  0.6128
   99OSM   H13C 9859   4.749   3.684  10.706 -0.5573  0.1095 -0.8542
   99OSM    C12 9860   4.715   3.910  10.545  0.2895 -0.0120 -0.5112
   99OSM   H12A 9861   4.640   3.846  10.502  0.9708 -1.0183 -0.2385
   99OSM   H12B 9862   4.811   3.871  10.514 -0.1526 -1.5903  0.0047
   99OSM    C11 9863   4.688   4.039  10.472 -0.3853  0.0434 -0.3997
   99OSM   H11A 9864   4.581   4.063  10.491  0.2955  1.1718  2.7497
   99OSM   H11B 9865   4.694   4.028  10.362 -2.7379 -0.6702 -0.5198
   99OSM      P 9866   4.730   4.278  10.570 -0.0867  0.3887 -0.3668
   99OSM    O13 9867   4.636   4.267  10.681  0.4828  0.3834 -0.1919
   99OSM    O14 9868   4.850   4.358  10.602  0.1723 -0.5347 -0.4001
   99OSM    O11 9869   4.658   4.343  10.449 -0.5987  1.0709 -0.0253
   99OSM    O12 9870   4.776   4.140  10.519  0.4964  0.2319 -0.0355
   99OSM    C1S 9871   4.731   4.343  10.318  0.2057 -0.5366 -0.8006
   99OSM    H1S 9872   4.815   4.271  10.304  0.6062 -0.2047 -0.1932
   99OSM    H1T 9873   4.781   4.442  10.311  0.6805 -0.7430 -0.4664
   99OSM     NF 9874   4.696   4.306  10.072  0.3639 -0.0403  0.5418
   99OSM    HNF 9875   4.701   4.393  10.023 -1.3211 -0.3981 -0.3400
   99OSM    C2S 9876   4.630   4.318  10.201  0.0785 -0.0432  0.1925
   99OSM    H2S 9877   4.586   4.220  10.230  0.7658 -1.0432 -1.9319
   99OSM    C3S 9878   4.508   4.420  10.201  0.5513  0.0321 -0.2355
   99OSM    H3S 9879   4.550   4.520  10.177  0.0868  0.1822 -0.4212
   99OSM     O3 9880   4.443   4.431  10.329 -0.0493  0.1376 -0.5370
   99OSM    HO3 9881   4.515   4.402  10.386  0.3961  2.5229  0.1846
   99OSM    C4S 9882   4.410   4.387  10.083 -0.2556  0.2824  0.0821
   99OSM    H4S 9883   4.453   4.406   9.983 -2.5062  0.5433 -0.8874
   99OSM    C5S 9884   4.282   4.342  10.087 -0.6015 -0.1913 -0.6648
   99OSM    H5S 9885   4.220   4.346  10.178 -2.3800  1.0177 -1.8740
   99OSM    C6S 9886   4.205   4.292   9.966 -0.2345 -0.7117  0.0498
   99OSM    H6S 9887   4.129   4.367   9.937 -0.1837 -1.1921 -1.3785
   99OSM    H6T 9888   4.148   4.203   9.997 -1.4089  0.9965  3.2416
   99OSM    C7S 9889   4.282   4.247   9.843  0.5770  0.4192 -0.2599
   99OSM    H7S 9890   4.371   4.188   9.874  0.7843  0.6909 -0.3350
   99OSM    H7T 9891   4.306   4.345   9.796 -1.8779  0.4909 -1.5350
   99OSM    C8S 9892   4.194   4.176   9.746  0.4351 -0.4244 -0.3462
   99OSM    H8S 9893   4.093   4.223   9.741  0.7466  0.3860  0.6400
   99OSM    H8T 9894   4.164   4.077   9.787  0.0808 -0.2568 -0.1967
   99OSM    C9S 9895   4.255   4.167   9.607  0.3897 -0.1084  0.1506
   99OSM    H9S 9896   4.332   4.088   9.602 -1.1163 -1.6708  0.7813
   99OSM    H9T 9897   4.292   4.266   9.574 -1.4917  1.2462  1.7841
   99OSM   C10S 9898   4.156   4.144   9.495 -0.1083 -0.5426 -0.4632
   99OSM   H10S 9899   4.088   4.230   9.476  0.1891 -0.2640 -0.2598
   99OSM   H10T 9900   4.086   4.061   9.519  0.2236 -0.4279  0.9690
   99OSM   C11S 9901   4.227   4.133   9.360  0.9586 -0.3279  0.4904
   99OSM   H11S 9902   4.254   4.026   9.350  0.4966 -0.5301  1.3494
   99OSM   H11T 9903   4.307   4.209   9.346  1.4609 -1.3563 -3.1694
   99OSM   C12S 9904   4.121   4.161   9.241  0.1792 -0.1672 -0.1247
   99OSM   H12S 9905   4.036   4.089   9.239 -0.4453  0.5543  0.0116
   99OSM   H12T 9906   4.085   4.264   9.261  0.2218  0.4560 -2.8725
   99OSM   C13S 9907   4.187   4.142   9.105 -0.8671  0.2581  0.6755
   99OSM   H13S 9908   4.237   4.043   9.098 -0.7561  0.3655 -0.0939
   99OSM   H13T 9909   4.274   4.211   9.096 -0.2423 -0.8289 -3.5053
   99OSM   C14S 9910   4.085   4.153   8.988 -0.3336  0.2264 -0.7661
   99OSM   H14S 9911   4.018   4.240   8.999 -0.5392  0.1472 -1.3533
   99OSM   H14T 9912   4.028   4.058   8.996 -0.5270  0.3629 -0.5210
   99OSM   C15S 9913   4.155   4.163   8.851  0.1239  0.1951 -0.2789
   99OSM   H15S 9914   4.215   4.256   8.860 -0.2189  0.2639  1.6369
   99OSM   H15T 9915   4.083   4.185   8.769 -0.7505 -2.3753 -0.2878
   99OSM   C16S 9916   4.237   4.041   8.800 -0.2421  0.1926 -0.1211
   99OSM   H16S 9917   4.171   3.952   8.791 -1.5880  0.8907  2.1981
   99OSM   H16T 9918   4.315   4.015   8.875 -0.5624 -1.0431 -0.1904
   99OSM   C17S 9919   4.292   4.082   8.663 -0.1795 -0.4959  0.1617
   99OSM   H17S 9920   4.386   4.141   8.674 -0.1281 -0.3241 -1.1388
   99OSM   H17T 9921   4.208   4.129   8.608 -0.3753  0.2064  1.0358
   99OSM   C18S 9922   4.342   3.961   8.573 -0.2680  0.1351 -0.7200
   99OSM   H18S 9923   4.283   3.869   8.595  1.3057 -1.1496 -1.6265
   99OSM   H18T 9924   4.452   3.943   8.579 -0.1101  0.1518 -2.8224
   99OSM   H18U 9925   4.311   3.976   8.468  0.5856 -1.8865 -1.3015
   99OSM    C1F 9926   4.780   4.203  10.051 -0.0253  0.1476 -0.9525
   99OSM     OF 9927   4.763   4.099  10.114  0.2959  0.1524  0.4389
   99OSM    C2F 9928   4.895   4.227   9.957  0.1281 -0.3870 -1.4553
   99OSM    H2F 9929   4.855   4.305   9.889 -1.8646 -0.0054  0.0607
   99OSM    H2G 9930   4.912   4.129   9.907 -2.5830 -0.7870 -1.7631
   99OSM    C3F 9931   5.031   4.258  10.033  0.5486  0.1583  0.2471
   99OSM    H3F 9932   5.017   4.348  10.098 -1.2074  1.3888 -1.7396
   99OSM    H3G 9933   5.048   4.170  10.099  0.6035 -0.2565 -0.3195
   99OSM    C4F 9934   5.148   4.266   9.931 -0.1889 -0.0357 -0.1009
   99OSM    H4F 9935   5.233   4.300   9.993 -0.0141  1.5289 -1.1337
   99OSM    H4G 9936   5.112   4.338   9.854  1.9547  2.5567  1.1634
   99OSM    C5F 9937   5.184   4.128   9.871  1.0587  0.0532 -0.3237
   99OSM    H5F 9938   5.129   4.043   9.916  0.2367  1.0036  0.5014
   99OSM    H5G 9939   5.291   4.105   9.890  1.2966  1.6271  0.4400
   99OSM    C6F 9940   5.153   4.120   9.723 -0.4471 -0.1343  0.4847
   99OSM    H6F 9941   5.218   4.198   9.680 -0.1078  0.7376  2.4655
   99OSM    H6G 9942   5.045   4.138   9.704 -0.7477 -1.9796  0.2636
   99OSM    C7F 9943   5.183   3.989   9.658 -0.8954  0.1706 -0.2195
   99OSM    H7F 9944   5.131   3.914   9.720 -2.0200  3.3598  3.0503
   99OSM    H7G 9945   5.293   3.969   9.665 -0.9526 -0.5205 -1.1090
   99OSM    C8F 9946   5.138   3.968   9.511 -0.0213 -0.4238 -0.1897
   99OSM    H8F 9947   5.167   4.065   9.467  1.4099 -0.8971 -0.3443
   99OSM    H8G 9948   5.027   3.959   9.504  0.0257 -0.6386 -0.7323
   99OSM    C9F 9949   5.217   3.860   9.436  1.1181  0.4609 -0.2813
   99OSM    H9F 9950   5.268   3.793   9.506  1.0467  1.5751  0.8863
   99OSM   C10F 9951   5.220   3.827   9.309 -0.1272  0.1803  0.5337
   99OSM   H10F 9952   5.283   3.745   9.271 -1.9454 -1.1553  0.2431
   99OSM   C11F 9953   5.137   3.893   9.201 -0.1533 -0.4658 -0.1301
   99OSM   H11F 9954   5.062   3.955   9.254  1.0017  0.8292  0.0458
   99OSM   H11G 9955   5.090   3.811   9.143  1.0033 -1.3258  0.1161
   99OSM   C12F 9956   5.204   3.990   9.102 -0.6886 -0.9568 -1.5427
   99OSM   H12F 9957   5.278   3.947   9.033  2.1281  2.7198 -1.1233
   99OSM   H12G 9958   5.263   4.070   9.153 -0.0052 -2.6070  0.4074
   99OSM   C13F 9959   5.098   4.054   9.014 -0.0206 -0.3820  0.2438
   99OSM   H13F 9960   5.059   4.140   9.073 -1.8546 -0.9733 -0.0297
   99OSM   H13G 9961   5.017   3.982   8.990 -1.6210  1.8720 -1.5036
   99OSM   C14F 9962   5.157   4.125   8.891 -0.2843 -0.5974  0.4373
   99OSM   H14F 9963   5.217   4.043   8.847  0.5955 -0.4548  1.3512
   99OSM   H14G 9964   5.230   4.193   8.940  0.5529 -1.7988  0.9087
   99OSM   C15F 9965   5.047   4.189   8.811  0.5147 -0.0767  0.5147
   99OSM   H15F 9966   5.102   4.256   8.740  2.3053 -3.2161 -1.2982
   99OSM   H15G 9967   4.972   4.241   8.874 -0.6370 -1.4788  0.3310
   99OSM   C16F 9968   4.980   4.090   8.722  0.0974  0.6504  0.1440
   99OSM   H16F 9969   4.926   4.007   8.772 -0.3250  0.4786 -0.5909
   99OSM   H16G 9970   5.057   4.037   8.661 -1.7729 -3.1555  0.7998
   99OSM   C17F 9971   4.892   4.151   8.617  0.1981  0.3930  0.4213
   99OSM   H17F 9972   4.950   4.214   8.546 -0.6849  1.3277  0.4931
   99OSM   H17G 9973   4.815   4.216   8.664 -2.5968 -1.2587 -1.5245
   99OSM   C18F 9974   4.819   4.031   8.547 -0.4182  0.2839 -0.0706
   99OSM   H18F 9975   4.795   3.956   8.626  2.2534  0.3539  0.9314
   99OSM   H18G 9976   4.896   3.980   8.485  1.3433  1.5784  0.9480
   99OSM   H18H 9977   4.732   4.052   8.482  0.2674 -0.2283 -1.1711
  100OSM      N 9978   5.989   5.350  10.943 -0.7771 -0.4780 -0.1221
  100OSM    C15 9979   5.875   5.269  10.987  0.5967  0.2917  1.2897
  100OSM   H15A 9980   5.887   5.199  11.068 -0.6168 -2.9562 -1.0924
  100OSM   H15B 9981   5.839   5.211  10.904  0.9949  2.1074 -0.2175
  100OSM   H15C 9982   5.797   5.338  11.016 -1.4321 -0.4889 -1.8444
  100OSM    C14 9983   6.031   5.449  11.053  0.1335  0.2930  0.4002
  100OSM   H14A 9984   6.034   5.397  11.148 -1.3025  1.1750  0.9591
  100OSM   H14B 9985   5.966   5.535  11.052 -0.3438  0.0189 -2.8378
  100OSM   H14C 9986   6.133   5.480  11.036  0.4420 -0.1097  1.4233
  100OSM    C13 9987   6.112   5.260  10.941  0.3110 -0.0585 -0.2319
  100OSM   H13A 9988   6.199   5.313  10.904  0.5811 -1.4741 -1.7446
  100OSM   H13B 9989   6.102   5.187  10.862 -0.2152  0.1615 -0.3663
  100OSM   H13C 9990   6.138   5.211  11.034 -2.7079  1.4525  1.5768
  100OSM    C12 9991   5.971   5.419  10.812 -0.0334  0.3362  0.3146
  100OSM   H12A 9992   6.056   5.482  10.792 -0.2139  0.5106  0.0962
  100OSM   H12B 9993   5.878   5.470  10.794 -0.6412 -0.8123  0.1157
  100OSM    C11 9994   5.968   5.312  10.698 -0.4812 -0.4273 -0.4836
  100OSM   H11A 9995   6.067   5.264  10.685 -0.2466  0.3231 -1.6500
  100OSM   H11B 9996   5.951   5.363  10.600 -0.8259  1.1344  0.3517
  100OSM      P 9997   5.736   5.218  10.622 -0.0568  0.2739 -0.2358
  100OSM    O13 9998   5.681   5.079  10.622  0.4725 -0.4062  0.6606
  100OSM    O14 9999   5.655   5.322  10.690 -1.0487  0.3991  0.3274
  100OSM    O1110000   5.780   5.268  10.474  0.1804  0.5815  0.0530
  100OSM    O1210001   5.864   5.209  10.716  0.3786  0.2249 -0.7946
  100OSM    C1S10002   5.860   5.184  10.390  0.1972  0.3263 -0.2177
  100OSM    H1S10003   5.814   5.084  10.391 -4.7056  2.3101 -0.5008
  100OSM    H1T10004   5.964   5.170  10.427  1.0146  0.5608 -2.3118
  100OSM     NF10005   5.938   5.141  10.160  0.3442  0.2647 -0.6877
  100OSM    HNF10006   6.030   5.165  10.130  0.5773 -1.6577 -1.6325
  100OSM    C2S10007   5.873   5.233  10.249  0.5165 -0.2075  0.9874
  100OSM    H2S10008   5.769   5.245  10.212  0.2999 -0.0298  1.6390
  100OSM    C3S10009   5.935   5.375  10.235 -0.3157 -0.3634  0.0617
  100OSM    H3S10010   6.046   5.368  10.234 -0.3556 -0.9796 -1.5858
  100OSM     O310011   5.902   5.465  10.336 -0.2313 -0.4089  0.3519
  100OSM    HO310012   5.853   5.402  10.390 -1.5288 -0.7367 -1.1203
  100OSM    C4S10013   5.887   5.438  10.102 -0.0307 -0.5749 -0.3446
  100OSM    H4S10014   5.779   5.459  10.102  0.0184 -0.3218 -0.5320
  100OSM    C5S10015   5.948   5.466   9.988  0.4587  0.7577  0.0502
  100OSM    H5S10016   6.053   5.433   9.985  0.4530  0.4769  1.7837
  100OSM    C6S10017   5.891   5.523   9.859  0.1435  0.1257  0.2013
  100OSM    H6S10018   5.924   5.628   9.846 -0.2052  0.3588  1.0885
  100OSM    H6T10019   5.781   5.539   9.863  0.1352 -0.1559  1.7319
  100OSM    C7S10020   5.942   5.442   9.741  0.0770 -0.7103  0.6010
  100OSM    H7S10021   5.904   5.338   9.743 -0.3726 -0.5427  0.9257
  100OSM    H7T10022   6.053   5.440   9.731 -0.0574 -0.4652 -1.3515
  100OSM    C8S10023   5.893   5.511   9.616  0.4506  0.7269 -0.1071
  100OSM    H8S10024   5.921   5.618   9.610  0.1299  0.7967 -0.3322
  100OSM    H8T10025   5.783   5.502   9.630  0.5879 -0.8443  0.1429
  100OSM    C9S10026   5.947   5.429   9.495 -0.4969  0.4633  0.1564
  100OSM    H9S10027   5.931   5.320   9.509  0.6025  0.2745  0.0320
  100OSM    H9T10028   6.057   5.418   9.499 -0.6738 -1.0251  2.2075
  100OSM   C10S10029   5.891   5.470   9.360  0.0139  0.2056  0.1868
  100OSM   H10S10030   5.930   5.570   9.333 -1.5405  0.6091 -0.6729
  100OSM   H10T10031   5.782   5.488   9.354 -0.6466 -3.1112  0.2473
  100OSM   C11S10032   5.928   5.365   9.256 -0.4820  0.2877  0.2501
  100OSM   H11S10033   5.894   5.270   9.302 -1.4771 -0.0850 -1.1798
  100OSM   H11T10034   6.039   5.358   9.254 -0.4658 -2.1370  3.0166
  100OSM   C12S10035   5.861   5.389   9.122 -0.7260 -0.1591 -0.2360
  100OSM   H12S10036   5.913   5.477   9.077  0.2393 -2.3726 -3.7841
  100OSM   H12T10037   5.756   5.415   9.148 -1.1144 -1.7808 -0.0718
  100OSM   C13S10038   5.869   5.270   9.025 -0.2848 -0.6884  0.7738
  100OSM   H13S10039   5.830   5.187   9.087  1.3721 -1.9250  0.2330
  100OSM   H13T10040   5.976   5.251   9.000  0.1343  2.1168 -0.0299
  100OSM   C14S10041   5.772   5.294   8.903  0.4421 -0.1696  0.2842
  100OSM   H14S10042   5.822   5.372   8.842 -0.8620  0.6741  0.2545
  100OSM   H14T10043   5.683   5.345   8.945  0.6808 -1.0525  1.9476
  100OSM   C15S10044   5.728   5.165   8.824 -0.4537 -0.0653 -0.0115
  100OSM   H15S10045   5.675   5.211   8.738  2.9190  2.8110 -0.7622
  100OSM   H15T10046   5.670   5.100   8.894  1.0557 -0.6985  0.6982
  100OSM   C16S10047   5.852   5.078   8.787 -0.0435  0.2018  0.6414
  100OSM   H16S10048   5.811   4.979   8.756  0.0677  0.2313  0.3916
  100OSM   H16T10049   5.906   5.058   8.881  0.8053  0.4130  0.2056
  100OSM   C17S10050   5.939   5.158   8.692  0.2788 -0.5281 -0.2373
  100OSM   H17S10051   5.992   5.231   8.757  0.4708  0.7472 -1.7821
  100OSM   H17T10052   5.870   5.222   8.633 -1.2516 -2.6109 -0.8060
  100OSM   C18S10053   6.037   5.077   8.604  0.0369  0.0740 -0.0099
  100OSM   H18S10054   6.114   5.031   8.671 -1.1227  1.6297  2.5150
  100OSM   H18T10055   6.090   5.147   8.537  1.1232  0.9871  1.7257
  100OSM   H18U10056   5.972   5.006   8.549  0.2439  0.1132 -0.3094
  100OSM    C1F10057   5.888   5.018  10.150  1.1394  0.5277 -0.0689
  100OSM     OF10058   5.777   4.986  10.194  1.1901 -0.3466  0.5672
  100OSM    C2F10059   5.973   4.923  10.069 -0.3425  0.1869  0.1500
  100OSM    H2F10060   6.035   4.862  10.138  0.0954 -1.6479 -1.7636
  100OSM    H2G10061   6.046   4.973  10.002 -0.3580 -0.1673 -0.1305
  100OSM    C3F10062   5.885   4.829   9.982  0.1445  0.3221 -0.1901
  100OSM    H3F10063   5.820   4.897   9.924  1.9348  2.2078 -0.0974
  100OSM    H3G10064   5.819   4.770  10.049  0.1705 -0.7291 -1.0410
  100OSM    C4F10065   5.959   4.759   9.874 -0.1890 -0.2274 -0.5311
  100OSM    H4F10066   6.015   4.675   9.921  0.0695  0.2339 -0.0069
  100OSM    H4G10067   6.029   4.830   9.826  0.5698  0.2280  1.1825
  100OSM    C5F10068   5.863   4.701   9.768 -0.0416 -0.4853 -0.7109
  100OSM    H5F10069   5.771   4.764   9.771  1.2315  1.4130  2.0902
  100OSM    H5G10070   5.831   4.600   9.802  1.0411  0.1150  2.4212
  100OSM    C6F10071   5.935   4.710   9.638  0.0900  0.3883 -0.1201
  100OSM    H6F10072   6.041   4.678   9.646  0.1056 -0.3972 -2.5788
  100OSM    H6G10073   5.940   4.814   9.599  2.7994 -0.1970 -1.6176
  100OSM    C7F10074   5.893   4.611   9.530  0.0732 -0.1247 -0.1809
  100OSM    H7F10075   5.784   4.630   9.517  0.2034  1.1136  0.3550
  100OSM    H7G10076   5.897   4.509   9.572 -1.1694  0.1431  0.6440
  100OSM    C8F10077   5.962   4.638   9.393  0.0785 -0.0804  0.4934
  100OSM    H8F10078   6.065   4.596   9.398  0.8604  1.7565  0.3477
  100OSM    H8G10079   5.982   4.746   9.383  0.2567 -0.2617 -1.4742
  100OSM    C9F10080   5.885   4.574   9.279  0.1597 -0.2580  0.1472
  100OSM    H9F10081   5.827   4.487   9.312 -1.0304  0.3764 -0.2409
  100OSM   C10F10082   5.870   4.612   9.156  0.0936 -0.1152  0.7078
  100OSM   H10F10083   5.828   4.543   9.082  0.5260 -0.7762  1.0604
  100OSM   C11F10084   5.937   4.746   9.111 -0.0181  1.1269 -0.0786
  100OSM   H11F10085   6.005   4.788   9.188 -1.6345  0.3304  1.8575
  100OSM   H11G10086   5.858   4.824   9.103  1.1870  2.3057 -1.1344
  100OSM   C12F10087   6.019   4.747   8.980  0.4820 -0.2826  0.4619
  100OSM   H12F10088   6.101   4.674   9.000  1.9984  0.9490 -0.9384
  100OSM   H12G10089   6.069   4.841   8.947 -0.9423  0.9287  1.6448
  100OSM   C13F10090   5.935   4.699   8.856  0.1224  0.7342  0.7715
  100OSM   H13F10091   5.888   4.791   8.814 -1.2925  1.0374  2.8943
  100OSM   H13G10092   5.857   4.623   8.874  0.1865 -0.3425 -2.6792
  100OSM   C14F10093   6.019   4.643   8.741  0.1556  0.3753 -0.8795
  100OSM   H14F10094   6.062   4.543   8.762 -0.7818 -0.2723 -1.9606
  100OSM   H14G10095   6.114   4.701   8.741 -0.0419  0.9671  2.8509
  100OSM   C15F10096   5.954   4.662   8.605 -0.5397 -0.8511  0.4016
  100OSM   H15F10097   6.030   4.679   8.525 -1.8119 -0.6188 -0.8003
  100OSM   H15G10098   5.885   4.748   8.614 -0.6982 -1.1513  2.5289
  100OSM   C16F10099   5.860   4.546   8.564  0.9001 -0.7793 -0.4996
  100OSM   H16F10100   5.795   4.508   8.645  1.1024 -1.2804 -0.5649
  100OSM   H16G10101   5.915   4.458   8.524 -1.1019 -2.0271 -0.6370
  100OSM   C17F10102   5.766   4.587   8.453 -0.0846 -0.1031 -0.1056
  100OSM   H17F10103   5.815   4.596   8.354  0.5863 -1.2413  0.1119
  100OSM   H17G10104   5.713   4.681   8.480 -0.9009 -1.0271  1.7312
  100OSM   C18F10105   5.650   4.485   8.429 -0.0099  0.4015 -0.2864
  100OSM   H18F10106   5.588   4.474   8.521  1.0486 -0.6117  0.3228
  100OSM   H18G10107   5.691   4.386   8.400 -0.0909  0.8539 -2.0335
  100OSM   H18H10108   5.587   4.507   8.340 -1.7400 -1.8235  0.2938
  101OSM      N10109   2.380   4.725  10.682  0.3522  0.0084 -0.1284
  101OSM    C1510110   2.461   4.646  10.583  0.4405  0.9034  0.0913
  101OSM   H15A10111   2.399   4.570  10.537  2.1351  0.3134 -1.3408
  101OSM   H15B10112   2.559   4.617  10.617  0.8131  1.1889 -0.7005
  101OSM   H15C10113   2.496   4.717  10.509  0.6515  0.8638  0.1505
  101OSM    C1410114   2.250   4.761  10.620 -0.6867  1.1906  0.2153
  101OSM   H14A10115   2.185   4.803  10.695 -1.2978  0.5663  0.0523
  101OSM   H14B10116   2.208   4.677  10.566  2.2702 -1.1604  1.3012
  101OSM   H14C10117   2.267   4.837  10.546  1.3762  0.1284 -0.4633
  101OSM    C1310118   2.352   4.641  10.803 -0.7853 -0.0002 -0.0060
  101OSM   H13A10119   2.291   4.704  10.864  0.7310  1.4784  0.0566
  101OSM   H13B10120   2.437   4.611  10.862  0.5221  1.6177 -0.9783
  101OSM   H13C10121   2.289   4.556  10.779 -0.7480 -0.7821  2.4225
  101OSM    C1210122   2.466   4.846  10.705 -1.0463  0.1235 -0.3550
  101OSM   H12A10123   2.419   4.919  10.769 -0.6285  1.1037 -1.1344
  101OSM   H12B10124   2.478   4.889  10.606 -1.8420 -0.1184 -0.5675
  101OSM    C1110125   2.610   4.828  10.770 -0.6412  0.6601 -0.1534
  101OSM   H11A10126   2.606   4.760  10.859 -0.7121  2.1809  1.0379
  101OSM   H11B10127   2.639   4.929  10.805  0.6425  0.3602 -0.3146
  101OSM      P10128   2.854   4.793  10.688  0.2259  0.1210 -0.3259
  101OSM    O1310129   2.892   4.940  10.693 -0.0795  0.4727 -0.4500
  101OSM    O1410130   2.892   4.715  10.805  0.1637  0.0938 -0.4943
  101OSM    O1110131   2.903   4.716  10.557  0.0267 -0.1250  0.5434
  101OSM    O1210132   2.700   4.772  10.675  0.2618 -0.2513  0.4867
  101OSM    C1S10133   2.895   4.569  10.549  0.4746  0.3635  0.1501
  101OSM    H1S10134   2.786   4.546  10.561  0.3426  0.1391 -1.3028
  101OSM    H1T10135   2.950   4.511  10.626 -1.1179 -0.6067  0.6221
  101OSM     NF10136   2.903   4.385  10.392 -0.1624  0.5255 -0.3174
  101OSM    HNF10137   2.963   4.314  10.427 -2.7093 -0.7734  1.8396
  101OSM    C2S10138   2.942   4.519  10.407 -0.1246 -0.3584 -0.0314
  101OSM    H2S10139   2.889   4.575  10.327 -0.2100  0.5737  0.6549
  101OSM    C3S10140   3.093   4.550  10.390  0.1170 -0.0890 -0.7207
  101OSM    H3S10141   3.153   4.502  10.471  0.3629  1.5388  0.0929
  101OSM     O310142   3.124   4.686  10.399 -0.2686 -0.5798 -0.0304
  101OSM    HO310143   3.050   4.726  10.446  0.3697 -1.4041  1.7628
  101OSM    C4S10144   3.135   4.496  10.260  0.4177  0.6840 -0.5556
  101OSM    H4S10145   3.158   4.392  10.287 -3.5706  0.2358  1.8745
  101OSM    C5S10146   3.142   4.555  10.141 -0.4347 -0.2682  0.5436
  101OSM    H5S10147   3.126   4.663  10.130 -0.3517 -0.3059  0.0395
  101OSM    C6S10148   3.182   4.485  10.015  0.1120  0.5070 -0.0758
  101OSM    H6S10149   3.088   4.476   9.956  0.6192 -2.0179 -0.6203
  101OSM    H6T10150   3.213   4.381  10.039  0.0141  0.4088 -0.3662
  101OSM    C7S10151   3.294   4.557   9.931  0.8723  0.1687 -0.7456
  101OSM    H7S10152   3.388   4.538   9.986  1.0847  0.8978 -0.8521
  101OSM    H7T10153   3.284   4.668   9.931  0.3974  0.1454  0.4545
  101OSM    C8S10154   3.303   4.508   9.782 -0.5545  0.4704  0.1310
  101OSM    H8S10155   3.328   4.400   9.784  0.2452  0.6487  0.3539
  101OSM    H8T10156   3.397   4.549   9.737  0.9345 -3.8795 -1.2003
  101OSM    C9S10157   3.182   4.547   9.698 -0.0361  0.3967  0.2169
  101OSM    H9S10158   3.155   4.649   9.731 -0.9635  0.0463  0.5907
  101OSM    H9T10159   3.095   4.484   9.730  0.1290 -0.0505 -0.1965
  101OSM   C10S10160   3.210   4.548   9.547 -0.0964 -0.3178  0.3568
  101OSM   H10S10161   3.302   4.608   9.540 -1.4525  1.7959 -0.2205
  101OSM   H10T10162   3.127   4.598   9.492 -1.1538 -1.9542  0.3863
  101OSM   C11S10163   3.252   4.415   9.483  0.5645 -0.9659 -0.5501
  101OSM   H11S10164   3.167   4.343   9.488 -0.2099 -0.0019  1.3105
  101OSM   H11T10165   3.333   4.371   9.544  0.9451 -1.0340 -1.1017
  101OSM   C12S10166   3.299   4.438   9.336 -0.3309  0.2488 -0.6857
  101OSM   H12S10167   3.335   4.342   9.294 -0.5654  0.0635 -0.4736
  101OSM   H12T10168   3.388   4.504   9.338  0.2176 -0.4942  0.3040
  101OSM   C13S10169   3.189   4.493   9.244 -0.4039  0.3921 -0.1244
  101OSM   H13S10170   3.150   4.589   9.285 -0.5102  0.9687 -1.5258
  101OSM   H13T10171   3.110   4.416   9.261  0.9353 -0.9247  0.3209
  101OSM   C14S10172   3.231   4.508   9.088  0.1405 -0.0378 -0.4058
  101OSM   H14S10173   3.331   4.556   9.088  0.2363 -0.2239  0.6885
  101OSM   H14T10174   3.158   4.581   9.045  0.6083  1.7717  1.6824
  101OSM   C15S10175   3.240   4.371   9.013 -0.3298  0.1306  0.0005
  101OSM   H15S10176   3.143   4.323   9.034 -0.8491  0.8848 -0.6268
  101OSM   H15T10177   3.324   4.318   9.063  0.0034  2.6761  2.3904
  101OSM   C16S10178   3.263   4.392   8.866  0.4786 -0.7003  0.4077
  101OSM   H16S10179   3.341   4.470   8.853 -0.1140 -0.4339 -2.0005
  101OSM   H16T10180   3.169   4.429   8.821  1.0908  1.1251  0.5592
  101OSM   C17S10181   3.306   4.265   8.788  0.6356 -0.6593 -0.4355
  101OSM   H17S10182   3.213   4.211   8.762  0.6407 -0.0379 -1.8419
  101OSM   H17T10183   3.381   4.199   8.837 -0.0583 -1.6068 -0.6245
  101OSM   C18S10184   3.367   4.295   8.653 -0.5620 -0.4136 -0.1616
  101OSM   H18S10185   3.467   4.342   8.668 -0.4951 -1.0109  1.4516
  101OSM   H18T10186   3.305   4.367   8.595 -1.2421  1.4022  2.6438
  101OSM   H18U10187   3.391   4.197   8.606  3.4505 -0.9095  2.4484
  101OSM    C1F10188   2.781   4.348  10.367 -0.4310  0.3156 -0.2407
  101OSM     OF10189   2.689   4.426  10.367 -0.0153  0.5721  0.3181
  101OSM    C2F10190   2.765   4.200  10.327  0.1134  0.1074  0.1378
  101OSM    H2F10191   2.667   4.189  10.274  0.9795  1.1101 -1.7781
  101OSM    H2G10192   2.766   4.144  10.423 -0.5620 -0.2771 -0.0686
  101OSM    C3F10193   2.871   4.152  10.225  0.8131  0.1816 -0.1000
  101OSM    H3F10194   2.866   4.041  10.224 -0.2186  0.2193 -0.7372
  101OSM    H3G10195   2.972   4.194  10.246  0.7716 -0.8718  2.7145
  101OSM    C4F10196   2.824   4.176  10.080 -0.5134  0.0229  0.1676
  101OSM    H4F10197   2.723   4.133  10.064 -0.7396 -0.0802  1.6954
  101OSM    H4G10198   2.890   4.107  10.024  0.4742  1.6082 -0.7018
  101OSM    C5F10199   2.823   4.318  10.034 -0.0095 -0.6500 -0.2707
  101OSM    H5F10200   2.925   4.363  10.040 -0.0976 -0.3796 -0.7189
  101OSM    H5G10201   2.759   4.383  10.097  0.4714  0.6202 -1.0450
  101OSM    C6F10202   2.767   4.330   9.888  0.0269  0.0811  0.5213
  101OSM    H6F10203   2.668   4.282   9.890  0.4817 -0.9664 -0.8839
  101OSM    H6G10204   2.748   4.439   9.879 -2.6321 -0.3654  0.1569
  101OSM    C7F10205   2.860   4.275   9.785 -0.2798  0.3144 -0.0027
  101OSM    H7F10206   2.872   4.164   9.788  0.6578  0.3043 -2.3947
  101OSM    H7G10207   2.963   4.313   9.796 -0.7431  1.4884  0.4324
  101OSM    C8F10208   2.817   4.315   9.644 -0.5405 -0.0743  0.4886
  101OSM    H8F10209   2.895   4.270   9.580  0.2685 -0.3112  1.6221
  101OSM    H8G10210   2.808   4.425   9.632 -3.5676 -0.4090 -1.6329
  101OSM    C9F10211   2.692   4.243   9.598  0.3683 -0.6475  0.6107
  101OSM    H9F10212   2.619   4.222   9.678  2.2106 -1.0852  2.2367
  101OSM   C10F10213   2.648   4.218   9.473 -1.1261 -0.7737  0.3823
  101OSM   H10F10214   2.551   4.173   9.447 -2.0830 -0.2417  2.8390
  101OSM   C11F10215   2.741   4.253   9.353  0.5492  0.2871 -0.1555
  101OSM   H11F10216   2.846   4.281   9.378  0.7617 -1.8374  1.6253
  101OSM   H11G10217   2.688   4.333   9.298  0.2549 -1.3922 -2.4987
  101OSM   C12F10218   2.736   4.137   9.257 -0.7258  0.4155  0.0346
  101OSM   H12F10219   2.630   4.106   9.247 -0.1479 -2.0171  0.9215
  101OSM   H12G10220   2.807   4.061   9.294  0.0215  1.0438 -0.0779
  101OSM   C13F10221   2.757   4.179   9.107 -0.4224  0.9007 -0.0798
  101OSM   H13F10222   2.862   4.214   9.095 -0.0669 -0.1648 -0.1768
  101OSM   H13G10223   2.689   4.262   9.079 -3.1964 -0.2890  2.4697
  101OSM   C14F10224   2.734   4.056   9.014 -0.4637  0.5929 -0.4272
  101OSM   H14F10225   2.644   4.004   9.053  0.1624  1.4086  2.3019
  101OSM   H14G10226   2.821   3.993   9.041 -0.9891 -0.7123 -1.6586
  101OSM   C15F10227   2.720   4.100   8.866 -0.6294 -0.5175 -0.0014
  101OSM   H15F10228   2.821   4.141   8.845 -1.3953  0.4624 -1.9940
  101OSM   H15G10229   2.651   4.186   8.852 -0.8906 -0.9507 -1.4751
  101OSM   C16F10230   2.673   3.987   8.770  0.3162 -0.6216 -0.0784
  101OSM   H16F10231   2.594   3.932   8.825 -3.1787  4.5406  0.7767
  101OSM   H16G10232   2.759   3.917   8.757  1.4409  0.8175 -0.7832
  101OSM   C17F10233   2.619   4.038   8.639  0.1460 -0.0499  0.2175
  101OSM   H17F10234   2.697   4.109   8.604  0.4658  0.2557  1.5148
  101OSM   H17G10235   2.522   4.087   8.660  0.1575 -0.7384  2.0741
  101OSM   C18F10236   2.588   3.915   8.555  0.2400 -1.3639 -0.0481
  101OSM   H18F10237   2.546   3.936   8.455 -0.3273  2.0673  0.7939
  101OSM   H18G10238   2.508   3.866   8.615 -0.6951 -0.6051 -0.6511
  101OSM   H18H10239   2.674   3.845   8.546  0.6367 -0.8399 -0.3943
  102OSM      N10240   5.208   6.535  10.774  1.1441  0.2727  0.5800
  102OSM    C1510241   5.319   6.428  10.782 -0.2691 -0.0380  0.1562
  102OSM   H15A10242   5.273   6.331  10.781 -3.1955  1.2388  0.3192
  102OSM   H15B10243   5.384   6.436  10.867  0.8051  1.3100 -0.7277
  102OSM   H15C10244   5.387   6.449  10.700 -1.7302  0.3457 -1.0016
  102OSM    C1410245   5.129   6.515  10.898 -0.3233 -0.1376  0.1344
  102OSM   H14A10246   5.038   6.572  10.887 -0.3222 -0.3985 -1.6463
  102OSM   H14B10247   5.186   6.555  10.981 -4.0952 -0.5690  3.1779
  102OSM   H14C10248   5.105   6.413  10.922  0.4518 -0.2633  0.4154
  102OSM    C1310249   5.272   6.670  10.781 -0.0613  0.0429 -0.6434
  102OSM   H13A10250   5.210   6.755  10.756  1.6167  2.8553  3.6132
  102OSM   H13B10251   5.352   6.669  10.709  0.9014  0.0729  0.3961
  102OSM   H13C10252   5.312   6.682  10.881  0.6023  0.9836 -1.0087
  102OSM    C1210253   5.126   6.514  10.644  0.0015  0.0323 -0.2707
  102OSM   H12A10254   5.192   6.538  10.562 -0.0829  0.6829 -0.1532
  102OSM   H12B10255   5.043   6.583  10.643  1.1256  1.4323 -0.5702
  102OSM    C1110256   5.056   6.384  10.611  0.2628  0.5715 -0.6299
  102OSM   H11A10257   5.002   6.396  10.515 -0.9905  1.5643  0.1810
  102OSM   H11B10258   4.980   6.376  10.692 -0.1022 -2.1399 -1.1225
  102OSM      P10259   5.226   6.233  10.479 -0.0431 -0.1413 -0.1636
  102OSM    O1310260   5.344   6.319  10.475 -0.1197  0.3722 -0.0773
  102OSM    O1410261   5.247   6.089  10.479 -0.0850 -0.1178 -0.4398
  102OSM    O1110262   5.130   6.269  10.353  0.3197 -0.0726 -0.2080
  102OSM    O1210263   5.143   6.270  10.604  0.1294 -0.0377 -0.0749
  102OSM    C1S10264   5.190   6.265  10.221 -0.2848  0.7311 -0.4059
  102OSM    H1S10265   5.207   6.160  10.188 -0.9538  0.8979 -1.3211
  102OSM    H1T10266   5.289   6.315  10.215  0.2682 -0.4710 -2.3266
  102OSM     NF10267   5.168   6.331   9.990  0.0203 -0.1916  0.1008
  102OSM    HNF10268   5.233   6.401   9.961  1.0790 -0.3881  1.8805
  102OSM    C2S10269   5.112   6.357  10.120  0.6538  0.0614 -0.2571
  102OSM    H2S10270   5.005   6.327  10.118  1.0886 -1.6572  0.2060
  102OSM    C3S10271   5.114   6.496  10.174  0.1321 -0.0296 -0.0541
  102OSM    H3S10272   5.218   6.532  10.185 -0.2783  0.8866  0.9687
  102OSM     O310273   5.050   6.516  10.300 -0.0411  0.0280 -0.3761
  102OSM    HO310274   5.041   6.430  10.341  1.0286  0.4722  0.8897
  102OSM    C4S10275   5.040   6.589  10.083  0.6077 -0.0276  0.1784
  102OSM    H4S10276   4.937   6.572  10.048  0.7599  2.3161 -1.6579
  102OSM    C5S10277   5.107   6.690  10.026  0.8366  0.7199  0.5314
  102OSM    H5S10278   5.215   6.704  10.045  0.6204  1.0316  1.5793
  102OSM    C6S10279   5.036   6.788   9.932  0.9044  0.4915 -0.4855
  102OSM    H6S10280   5.100   6.877   9.912  1.1743  0.6412  0.9764
  102OSM    H6T10281   4.948   6.824   9.989  0.3492 -3.1800  1.2535
  102OSM    C7S10282   5.003   6.731   9.795  1.0243  0.7609  0.1326
  102OSM    H7S10283   4.912   6.781   9.754  1.9377  1.8508 -0.6107
  102OSM    H7T10284   4.971   6.625   9.801 -0.8151  0.9151 -3.7472
  102OSM    C8S10285   5.115   6.735   9.692 -0.9724  0.7393  0.5104
  102OSM    H8S10286   5.203   6.683   9.735  1.4863  2.7495 -1.6980
  102OSM    H8T10287   5.166   6.833   9.680  0.0824  0.4972  2.6390
  102OSM    C9S10288   5.085   6.670   9.551  0.8180  0.5214  0.5129
  102OSM    H9S10289   5.073   6.560   9.552  0.4143  0.5651  1.4683
  102OSM    H9T10290   5.171   6.704   9.489  0.0312  2.1470  0.2415
  102OSM   C10S10291   4.963   6.733   9.476  0.2772 -0.4957 -0.1948
  102OSM   H10S10292   5.008   6.826   9.436 -3.9203  0.8906 -2.3716
  102OSM   H10T10293   4.869   6.756   9.530  0.7044 -0.0017  0.3435
  102OSM   C11S10294   4.933   6.650   9.346  0.4963 -0.2472 -0.2592
  102OSM   H11S10295   4.877   6.559   9.377 -1.1879  0.6772 -0.4599
  102OSM   H11T10296   5.029   6.624   9.298  2.0960  2.0343  1.4877
  102OSM   C12S10297   4.848   6.716   9.235 -0.1945  0.0466  0.0059
  102OSM   H12S10298   4.912   6.802   9.205 -1.0216  0.5022 -0.4962
  102OSM   H12T10299   4.749   6.748   9.275 -0.5943  0.5909 -1.3693
  102OSM   C13S10300   4.834   6.630   9.109 -0.1150 -0.0083 -0.0555
  102OSM   H13S10301   4.772   6.538   9.114  0.6425 -0.4736  2.4420
  102OSM   H13T10302   4.936   6.588   9.095  0.6053  2.0380 -1.4510
  102OSM   C14S10303   4.810   6.727   8.996 -0.0838 -0.3202  0.0976
  102OSM   H14S10304   4.904   6.785   8.999 -0.8203  0.9175  0.0344
  102OSM   H14T10305   4.734   6.806   9.014 -0.2482 -0.6324  0.8187
  102OSM   C15S10306   4.804   6.669   8.859  0.5481 -0.3375 -0.3752
  102OSM   H15S10307   4.782   6.745   8.781 -1.1247 -1.7965 -1.4034
  102OSM   H15T10308   4.716   6.602   8.871  0.9073 -0.7608 -0.1080
  102OSM   C16S10309   4.922   6.578   8.811 -0.0122  0.0836 -0.3881
  102OSM   H16S10310   4.916   6.486   8.874  1.3667  0.4066  0.2424
  102OSM   H16T10311   5.023   6.621   8.825  0.7566 -2.0657  1.4054
  102OSM   C17S10312   4.923   6.541   8.666  0.1089 -0.0952  0.1243
  102OSM   H17S10313   4.959   6.624   8.602  0.6742 -0.5873 -0.2127
  102OSM   H17T10314   4.824   6.515   8.623  0.2204  0.3849 -0.4386
  102OSM   C18S10315   5.019   6.431   8.631 -0.1732  0.0113  0.2288
  102OSM   H18S10316   5.028   6.439   8.520  2.1288  0.4937  0.3830
  102OSM   H18T10317   4.981   6.330   8.655  0.6486 -0.6146 -0.9773
  102OSM   H18U10318   5.120   6.444   8.676  0.6211  0.8682 -1.6844
  102OSM    C1F10319   5.134   6.217   9.931 -0.3580  0.5594  0.3243
  102OSM     OF10320   5.061   6.131   9.986 -0.7235  0.4708 -0.1328
  102OSM    C2F10321   5.185   6.196   9.791  0.2917 -0.3104 -0.3912
  102OSM    H2F10322   5.204   6.088   9.772 -2.5346 -0.6719 -1.7145
  102OSM    H2G10323   5.275   6.260   9.780  0.3979 -0.7971 -2.9510
  102OSM    C3F10324   5.071   6.233   9.689  0.2921  0.5597 -0.4740
  102OSM    H3F10325   5.065   6.343   9.703 -0.0251  0.5635 -0.6479
  102OSM    H3G10326   4.975   6.182   9.707 -0.3161  2.0391  0.7302
  102OSM    C4F10327   5.106   6.203   9.541  0.3273  0.2277 -0.0511
  102OSM    H4F10328   5.101   6.092   9.540  1.0381  0.1552  1.6995
  102OSM    H4G10329   5.207   6.248   9.532  0.4400 -0.2321 -1.1552
  102OSM    C5F10330   5.023   6.277   9.447 -0.1343 -0.5732 -0.1364
  102OSM    H5F10331   5.043   6.386   9.454 -0.8161 -0.5603  2.7485
  102OSM    H5G10332   4.920   6.249   9.480 -0.1251 -0.5594 -0.0967
  102OSM    C6F10333   5.053   6.222   9.311 -0.3964 -0.1951  0.6439
  102OSM    H6F10334   5.049   6.111   9.306 -0.3401 -0.1922  0.5440
  102OSM    H6G10335   5.154   6.240   9.269 -0.5640 -3.3927 -1.4874
  102OSM    C7F10336   4.958   6.271   9.192 -0.0891  0.7425 -0.6509
  102OSM    H7F10337   4.996   6.375   9.177  3.6091 -0.6322 -1.8824
  102OSM    H7G10338   4.856   6.256   9.233  0.7768 -0.6459  1.1140
  102OSM    C8F10339   4.968   6.196   9.064 -0.4305 -0.4316 -0.0209
  102OSM    H8F10340   5.074   6.175   9.039 -0.4030 -2.8543  1.7194
  102OSM    H8G10341   4.919   6.262   8.989 -2.3796 -1.0133  0.6563
  102OSM    C9F10342   4.880   6.071   9.080 -0.3823  0.1713  0.8957
  102OSM    H9F10343   4.917   6.016   9.168  0.4972  0.0899  0.4820
  102OSM   C10F10344   4.767   6.040   9.014  0.4491 -0.3695  0.2195
  102OSM   H10F10345   4.720   5.941   9.014 -1.0602  0.3052  1.3253
  102OSM   C11F10346   4.709   6.133   8.912  0.1069  0.1977 -0.4844
  102OSM   H11F10347   4.786   6.186   8.852  0.0379 -0.3325 -1.0487
  102OSM   H11G10348   4.638   6.207   8.955  0.1387 -0.0629  0.0133
  102OSM   C12F10349   4.621   6.054   8.810 -0.0884  1.2472  0.6811
  102OSM   H12F10350   4.555   5.981   8.862  1.6930  0.3435  1.8001
  102OSM   H12G10351   4.691   6.003   8.740 -0.8614 -2.0482  2.0890
  102OSM   C13F10352   4.534   6.146   8.727  0.2010 -0.3049 -0.6744
  102OSM   H13F10353   4.585   6.245   8.721 -1.8110  0.7474 -1.2901
  102OSM   H13G10354   4.441   6.169   8.783  0.4154 -1.4167  0.1816
  102OSM   C14F10355   4.511   6.112   8.581 -0.4753  0.3787 -0.0321
  102OSM   H14F10356   4.451   6.018   8.580  0.7475 -0.4267  0.2017
  102OSM   H14G10357   4.613   6.091   8.543  0.5314 -0.4470  2.8993
  102OSM   C15F10358   4.427   6.206   8.501  0.5640 -0.4828 -0.1218
  102OSM   H15F10359   4.476   6.306   8.498  1.4558 -0.8972  0.2369
  102OSM   H15G10360   4.337   6.226   8.562 -2.2500 -2.4184 -3.2746
  102OSM   C16F10361   4.384   6.157   8.361  0.3486  0.2174 -0.5208
  102OSM   H16F10362   4.325   6.067   8.388  1.7346 -0.4387  0.4640
  102OSM   H16G10363   4.472   6.120   8.304 -0.7670 -1.8720 -1.0111
  102OSM   C17F10364   4.311   6.261   8.276  0.0181 -0.5851  0.1406
  102OSM   H17F10365   4.376   6.351   8.269  1.6174 -1.6469  0.6807
  102OSM   H17G10366   4.216   6.294   8.322 -0.8021 -0.0594 -1.8273
  102OSM   C18F10367   4.284   6.218   8.134  0.0041 -0.3155 -0.1712
  102OSM   H18F10368   4.250   6.112   8.125  0.8694 -0.4507 -2.6638
  102OSM   H18G10369   4.363   6.224   8.056 -0.2771  1.2856 -0.3684
  102OSM   H18H10370   4.199   6.280   8.097 -0.5121  0.9603  2.8914
  103OSM      N10371   3.695   3.661  10.919  0.1183  0.6347 -0.2102
  103OSM    C1510372   3.549   3.685  10.951 -0.3482 -0.4533 -0.3491
  103OSM   H15A10373   3.539   3.791  10.967  1.4948 -0.2852 -0.1205
  103OSM   H15B10374   3.520   3.629  11.039  1.3173 -0.3438  0.3122
  103OSM   H15C10375   3.485   3.660  10.868 -0.3292  1.0463 -0.8388
  103OSM    C1410376   3.774   3.754  10.996 -0.1296 -0.2267 -1.0270
  103OSM   H14A10377   3.741   3.852  10.965 -0.4936  0.2926  0.8453
  103OSM   H14B10378   3.880   3.741  10.986  0.5694  1.5971  2.3271
  103OSM   H14C10379   3.757   3.740  11.102  1.4665  1.5460 -0.4876
  103OSM    C1310380   3.724   3.529  10.962 -0.6488  0.7259  0.4841
  103OSM   H13A10381   3.676   3.462  10.892  0.2222  0.7834 -0.1955
  103OSM   H13B10382   3.686   3.489  11.054  1.2983  0.7162  1.3220
  103OSM   H13C10383   3.831   3.516  10.960 -0.5834  0.9776  1.6425
  103OSM    C1210384   3.713   3.678  10.775  0.1093 -0.0422  0.3585
  103OSM   H12A10385   3.819   3.673  10.752  0.5053  3.3811  0.9216
  103OSM   H12B10386   3.687   3.779  10.750  1.2472  0.5706  1.5237
  103OSM    C1110387   3.650   3.577  10.679 -0.0848  0.2051  0.2707
  103OSM   H11A10388   3.647   3.608  10.572 -1.3202 -2.5511 -0.5719
  103OSM   H11B10389   3.545   3.555  10.707 -0.0107 -1.2386 -0.4787
  103OSM      P10390   3.864   3.427  10.627  0.2496 -0.1411  0.2382
  103OSM    O1310391   3.958   3.504  10.722  0.3041  0.4884  0.4936
  103OSM    O1410392   3.902   3.293  10.594  0.2461  0.0149 -0.0245
  103OSM    O1110393   3.858   3.511  10.493  0.4519 -0.2380  0.7437
  103OSM    O1210394   3.719   3.444  10.686 -0.0179  0.0314  0.2927
  103OSM    C1S10395   3.953   3.505  10.390 -0.3398  0.7466  0.0240
  103OSM    H1S10396   3.999   3.404  10.381 -0.3271  0.6879  0.7420
  103OSM    H1T10397   4.036   3.571  10.423  0.2414 -0.3959  0.9276
  103OSM     NF10398   3.937   3.481  10.137  0.4395 -0.0450  0.2280
  103OSM    HNF10399   3.986   3.550  10.083  0.0322  0.5995  0.6659
  103OSM    C2S10400   3.875   3.534  10.256 -0.0763  0.7187 -0.4486
  103OSM    H2S10401   3.777   3.483  10.262 -0.0749  0.6237 -1.1142
  103OSM    C3S10402   3.846   3.688  10.249  0.0019  0.0654  0.0541
  103OSM    H3S10403   3.946   3.733  10.235  0.4029 -0.8062  0.0387
  103OSM     O310404   3.784   3.736  10.367  0.1726 -0.1439 -0.1344
  103OSM    HO310405   3.792   3.666  10.432 -0.7449 -0.3178 -0.1922
  103OSM    C4S10406   3.753   3.720  10.127  0.2091  0.4613  0.4404
  103OSM    H4S10407   3.794   3.711  10.026 -0.3004  1.8113  0.0864
  103OSM    C5S10408   3.622   3.765  10.133 -0.3213 -0.2657 -0.3663
  103OSM    H5S10409   3.577   3.772  10.233  0.9173  1.1668  0.1436
  103OSM    C6S10410   3.532   3.791  10.014  0.7693 -0.4960  0.2083
  103OSM    H6S10411   3.480   3.888  10.029  0.1382 -0.9887  1.2898
  103OSM    H6T10412   3.446   3.721  10.014  0.2882  0.0820 -0.3674
  103OSM    C7S10413   3.588   3.767   9.870  0.2413 -0.3006 -0.9044
  103OSM    H7S10414   3.640   3.669   9.858 -1.9542 -1.4139 -1.8228
  103OSM    H7T10415   3.663   3.849   9.864  0.0411 -0.1406 -1.2580
  103OSM    C8S10416   3.489   3.781   9.753 -0.1954 -0.4088  0.3832
  103OSM    H8S10417   3.444   3.883   9.741 -0.2430 -0.5429 -0.6664
  103OSM    H8T10418   3.416   3.698   9.764 -1.2847  0.4503 -0.1544
  103OSM    C9S10419   3.557   3.736   9.623  0.4197 -0.2336 -0.0338
  103OSM    H9S10420   3.587   3.629   9.624  0.5071 -0.2960 -2.3432
  103OSM    H9T10421   3.647   3.800   9.613 -0.4106  1.3063  1.7921
  103OSM   C10S10422   3.477   3.772   9.503 -0.2439  0.1641  0.6842
  103OSM   H10S10423   3.460   3.881   9.497 -0.7717  0.0491 -3.4762
  103OSM   H10T10424   3.384   3.710   9.508  0.3005 -0.9876 -1.8019
  103OSM   C11S10425   3.543   3.715   9.373  0.3354 -0.2647 -0.3782
  103OSM   H11S10426   3.578   3.614   9.403  0.4618 -0.1769 -0.2273
  103OSM   H11T10427   3.629   3.783   9.353 -0.6088  0.7499 -1.1028
  103OSM   C12S10428   3.450   3.706   9.259  0.4342 -0.3203 -0.6170
  103OSM   H12S10429   3.425   3.809   9.223  0.5511 -0.1130 -0.1151
  103OSM   H12T10430   3.349   3.663   9.278 -0.0392  1.7602  2.3311
  103OSM   C13S10431   3.529   3.619   9.154 -0.2780  0.2067  0.1137
  103OSM   H13S10432   3.529   3.518   9.199 -0.1695  0.8144  1.5416
  103OSM   H13T10433   3.635   3.645   9.136 -0.5879  0.3314 -1.7264
  103OSM   C14S10434   3.466   3.607   9.014 -0.0272 -0.3150 -0.1532
  103OSM   H14S10435   3.443   3.706   8.968  1.7645 -0.7256 -2.0894
  103OSM   H14T10436   3.370   3.552   9.021  0.8847 -2.0197 -0.4777
  103OSM   C15S10437   3.557   3.528   8.912  0.2358 -0.3201  0.1071
  103OSM   H15S10438   3.580   3.428   8.955 -1.0740  0.3103  2.4516
  103OSM   H15T10439   3.656   3.576   8.901  0.4106 -0.7448 -0.2172
  103OSM   C16S10440   3.490   3.510   8.773  0.5042  0.2609  0.5286
  103OSM   H16S10441   3.494   3.606   8.717  1.7893  0.2005  0.4942
  103OSM   H16T10442   3.381   3.498   8.790  0.5968 -0.3734  0.6888
  103OSM   C17S10443   3.559   3.409   8.681 -0.1952  0.4490  0.1208
  103OSM   H17S10444   3.553   3.314   8.739 -0.1097  0.0753 -0.4792
  103OSM   H17T10445   3.667   3.429   8.669 -0.1924  0.5365  0.2824
  103OSM   C18S10446   3.483   3.387   8.542  0.1218  0.1971  0.1542
  103OSM   H18S10447   3.536   3.326   8.466  0.6234  1.4209 -0.4993
  103OSM   H18T10448   3.464   3.481   8.487  0.5314 -1.6655 -3.4490
  103OSM   H18U10449   3.384   3.343   8.565 -0.8637  1.6366 -1.1855
  103OSM    C1F10450   3.950   3.352  10.098  0.8092  0.3511 -0.4653
  103OSM     OF10451   3.914   3.258  10.171  0.4864  0.2785 -1.1726
  103OSM    C2F10452   4.020   3.320   9.969  0.0477  0.1176 -0.4471
  103OSM    H2F10453   4.123   3.293  10.000  0.2390  0.3490 -0.8849
  103OSM    H2G10454   4.026   3.419   9.920  0.9938  0.3964  0.2144
  103OSM    C3F10455   3.967   3.206   9.877 -0.7055 -0.5619  0.3729
  103OSM    H3F10456   3.864   3.225   9.842 -0.1399 -1.2374 -1.8055
  103OSM    H3G10457   3.959   3.104   9.920  4.8755 -1.3066  0.4989
  103OSM    C4F10458   4.052   3.198   9.751  0.3715 -0.2652  0.2363
  103OSM    H4F10459   4.155   3.157   9.760 -0.0783 -1.4147  0.4141
  103OSM    H4G10460   4.056   3.294   9.696 -2.0743 -1.3699 -2.0897
  103OSM    C5F10461   3.981   3.098   9.661 -0.7213  0.3409  1.1700
  103OSM    H5F10462   3.887   3.138   9.616 -0.2946 -0.3134 -0.3681
  103OSM    H5G10463   3.969   3.003   9.718  2.1281 -0.8601 -0.0748
  103OSM    C6F10464   4.080   3.052   9.556  0.4012  0.4865  0.6109
  103OSM    H6F10465   4.049   2.953   9.515  3.1119 -0.7482  1.2924
  103OSM    H6G10466   4.182   3.036   9.597  0.7253  1.0304  0.0371
  103OSM    C7F10467   4.102   3.140   9.431  0.3944 -0.2147 -0.2702
  103OSM    H7F10468   4.139   3.242   9.455 -2.9281  0.9214  0.5299
  103OSM    H7G10469   3.999   3.150   9.392  0.9251 -2.2259 -2.4473
  103OSM    C8F10470   4.194   3.085   9.326 -0.8676  0.4824  0.3290
  103OSM    H8F10471   4.292   3.055   9.369 -0.0562  2.1386 -0.3193
  103OSM    H8G10472   4.219   3.174   9.265  3.2490 -0.6790  0.0097
  103OSM    C9F10473   4.141   2.979   9.232 -0.0026 -0.5632 -0.6607
  103OSM    H9F10474   4.048   2.933   9.267  0.1108 -0.9251 -0.8347
  103OSM   C10F10475   4.201   2.957   9.115 -0.3072  0.3552  0.1532
  103OSM   H10F10476   4.170   2.860   9.072 -1.2065  1.1642 -1.0815
  103OSM   C11F10477   4.334   3.014   9.068  0.0305  0.6735 -1.0459
  103OSM   H11F10478   4.419   3.005   9.139  0.2217  2.3916 -1.0130
  103OSM   H11G10479   4.325   3.125   9.066  0.5196  0.7020 -2.1512
  103OSM   C12F10480   4.361   2.966   8.915  0.1809 -0.2378 -0.5707
  103OSM   H12F10481   4.355   2.856   8.908  0.4872 -0.2254 -1.0364
  103OSM   H12G10482   4.462   3.000   8.882  0.4583 -1.5300 -1.1048
  103OSM   C13F10483   4.263   3.042   8.816  0.7586  0.7858  0.0171
  103OSM   H13F10484   4.280   3.151   8.821  0.3206  0.8605 -0.1010
  103OSM   H13G10485   4.155   3.030   8.839 -0.0025  3.5431 -1.6416
  103OSM   C14F10486   4.290   2.993   8.670  0.0508 -0.6403  0.1077
  103OSM   H14F10487   4.316   2.885   8.673  2.1812 -0.3978 -3.6991
  103OSM   H14G10488   4.379   3.048   8.633 -0.6956  0.3365 -0.2649
  103OSM   C15F10489   4.163   3.001   8.573  0.6492 -0.0180  0.4580
  103OSM   H15F10490   4.075   2.956   8.623 -0.0402  0.8010  0.0110
  103OSM   H15G10491   4.190   2.937   8.486  0.1488  2.7275 -1.8663
  103OSM   C16F10492   4.123   3.145   8.537  0.5258  0.2957 -0.1284
  103OSM   H16F10493   4.191   3.194   8.464 -1.5385  2.6046 -0.6754
  103OSM   H16G10494   4.114   3.213   8.625 -0.1353  0.4788 -0.3310
  103OSM   C17F10495   3.986   3.152   8.466  0.0592  0.0712 -0.3519
  103OSM   H17F10496   3.902   3.145   8.539  1.1806 -3.5955  0.7754
  103OSM   H17G10497   3.978   3.064   8.399 -3.1020  0.5304 -0.7402
  103OSM   C18F10498   3.961   3.275   8.386 -0.5365 -0.7345  0.4063
  103OSM   H18F10499   3.984   3.364   8.448 -2.3926 -0.8877  1.3691
  103OSM   H18G10500   3.855   3.272   8.354 -0.1148 -1.8004 -0.9954
  103OSM   H18H10501   4.026   3.266   8.296 -1.2715 -1.6717 -0.0366
  104OSM      N10502   6.302   2.592  10.764 -0.3807  0.0741 -0.6638
  104OSM    C1510503   6.373   2.669  10.659 -0.9411 -0.2662  0.3101
  104OSM   H15A10504   6.351   2.629  10.561  3.0305 -0.2744 -0.7352
  104OSM   H15B10505   6.479   2.657  10.671 -0.8694  0.4014  0.3897
  104OSM   H15C10506   6.351   2.775  10.661  0.2035  0.0620 -1.6359
  104OSM    C1410507   6.307   2.674  10.893  0.3201 -0.3272  0.2643
  104OSM   H14A10508   6.408   2.701  10.923 -0.4980  1.4440  1.6054
  104OSM   H14B10509   6.242   2.636  10.970  0.7239  0.3970  0.9726
  104OSM   H14C10510   6.253   2.762  10.863 -0.7260 -0.8986  0.4040
  104OSM    C1310511   6.155   2.586  10.729  0.0688  0.6756  0.0260
  104OSM   H13A10512   6.097   2.530  10.800  1.0238 -1.6376 -0.9050
  104OSM   H13B10513   6.136   2.535  10.635 -0.8252  1.0124  0.0194
  104OSM   H13C10514   6.119   2.684  10.702 -3.6972 -0.9471 -1.5097
  104OSM    C1210515   6.347   2.455  10.780  0.9182 -0.7933 -0.8498
  104OSM   H12A10516   6.324   2.406  10.686 -1.8732  0.2123 -0.7613
  104OSM   H12B10517   6.284   2.400  10.847  1.1872  0.9860  0.9457
  104OSM    C1110518   6.497   2.435  10.813 -0.3251  0.4558 -0.1711
  104OSM   H11A10519   6.504   2.325  10.829 -0.9776  0.3194 -0.7665
  104OSM   H11B10520   6.512   2.486  10.910 -1.8130  2.2542 -0.8207
  104OSM      P10521   6.724   2.547  10.764  0.0420 -0.1194 -0.0472
  104OSM    O1310522   6.687   2.674  10.827  0.2454 -0.0019 -0.5757
  104OSM    O1410523   6.796   2.445  10.845 -0.0780  0.2349 -0.1313
  104OSM    O1110524   6.798   2.580  10.627 -0.3254 -0.0983  0.4022
  104OSM    O1210525   6.586   2.474  10.709  0.1846 -0.0699 -0.7327
  104OSM    C1S10526   6.717   2.631  10.520  0.1312 -0.4060  0.0610
  104OSM    H1S10527   6.691   2.737  10.542  2.8991  1.0811 -2.9930
  104OSM    H1T10528   6.622   2.577  10.498  0.8913 -1.4795 -0.6991
  104OSM     NF10529   6.707   2.676  10.276 -0.2844 -0.2142  0.2993
  104OSM    HNF10530   6.669   2.611  10.211  1.3756 -1.3886  0.4482
  104OSM    C2S10531   6.792   2.619  10.383  0.1882  0.4732 -0.4475
  104OSM    H2S10532   6.892   2.666  10.384  0.3820  0.0727 -0.8788
  104OSM    C3S10533   6.819   2.466  10.357 -0.1197 -0.3787  0.3863
  104OSM    H3S10534   6.722   2.419  10.331 -1.0659  1.2130  0.9198
  104OSM     O310535   6.872   2.392  10.469  0.1799  0.1565  0.2270
  104OSM    HO310536   6.862   2.453  10.542 -1.0164 -0.7710  0.8856
  104OSM    C4S10537   6.912   2.449  10.235 -0.3613  0.3460 -0.1527
  104OSM    H4S10538   6.856   2.450  10.141  0.0760 -0.3659 -0.4312
  104OSM    C5S10539   7.045   2.442  10.231 -0.6165 -1.0400  0.1175
  104OSM    H5S10540   7.093   2.447  10.329  1.8920  1.2207 -1.0902
  104OSM    C6S10541   7.135   2.432  10.112  0.0514 -0.2244  0.3111
  104OSM    H6S10542   7.187   2.335  10.119 -0.7562 -0.6374  0.7312
  104OSM    H6T10543   7.216   2.505  10.131  3.5200 -3.5816 -0.4566
  104OSM    C7S10544   7.078   2.442   9.969  0.2065 -0.2472 -0.5646
  104OSM    H7S10545   7.011   2.530   9.959 -2.4798 -2.0947  0.0386
  104OSM    H7T10546   6.988   2.379   9.950  1.0612 -1.8539  0.4689
  104OSM    C8S10547   7.183   2.440   9.855 -0.6856  0.6060 -0.5720
  104OSM    H8S10548   7.257   2.361   9.878  0.1827  1.0957 -1.5654
  104OSM    H8T10549   7.234   2.538   9.867 -1.9921  1.2732 -0.2562
  104OSM    C9S10550   7.128   2.439   9.718  1.0152 -0.0975  0.0885
  104OSM    H9S10551   7.054   2.522   9.713 -1.4564 -2.0298  1.7520
  104OSM    H9T10552   7.073   2.343   9.704  1.3428 -0.1912 -0.5661
  104OSM   C10S10553   7.237   2.448   9.607  0.7705  0.1815  0.0955
  104OSM   H10S10554   7.297   2.356   9.617 -1.9713 -1.4558  4.1430
  104OSM   H10T10555   7.288   2.541   9.640  0.5901 -0.6624  3.0095
  104OSM   C11S10556   7.182   2.459   9.470 -0.1824 -0.0087 -0.2572
  104OSM   H11S10557   7.123   2.550   9.447 -1.0164 -0.5677 -0.3420
  104OSM   H11T10558   7.113   2.373   9.458  0.3083 -0.3687 -0.5262
  104OSM   C12S10559   7.296   2.446   9.363 -0.0038  0.2519  0.0800
  104OSM   H12S10560   7.347   2.348   9.379  0.7443  0.7964  1.1334
  104OSM   H12T10561   7.375   2.520   9.389  1.9617 -1.8460  0.4366
  104OSM   C13S10562   7.255   2.468   9.215 -0.0773 -0.1081  0.2584
  104OSM   H13S10563   7.194   2.561   9.216 -0.7084 -0.4889 -1.0938
  104OSM   H13T10564   7.188   2.386   9.180 -0.5619  1.0674 -1.7174
  104OSM   C14S10565   7.374   2.488   9.116  0.8906  0.0243  0.1390
  104OSM   H14S10566   7.421   2.392   9.085 -0.4458 -0.0388 -1.8366
  104OSM   H14T10567   7.458   2.546   9.160  0.5411  1.0813 -0.5561
  104OSM   C15S10568   7.318   2.547   8.985 -0.1060 -0.7592 -0.0052
  104OSM   H15S10569   7.302   2.655   9.006 -0.6259 -0.8857  0.2609
  104OSM   H15T10570   7.217   2.503   8.966 -0.2296 -0.3565 -0.2964
  104OSM   C16S10571   7.414   2.529   8.865 -0.7311  0.5949 -0.5248
  104OSM   H16S10572   7.517   2.524   8.906 -1.7173 -0.3143  1.9753
  104OSM   H16T10573   7.402   2.617   8.797 -1.0459  0.7587 -0.2643
  104OSM   C17S10574   7.389   2.402   8.790  0.0955  0.2244  0.5185
  104OSM   H17S10575   7.302   2.418   8.724 -0.2255  0.3404  0.9638
  104OSM   H17T10576   7.364   2.317   8.857  0.2413 -0.6483 -0.4979
  104OSM   C18S10577   7.502   2.353   8.700 -0.1853 -0.1643  0.1744
  104OSM   H18S10578   7.551   2.430   8.636  2.1916 -1.6840  0.0294
  104OSM   H18T10579   7.458   2.269   8.642 -2.1018  0.0590  1.2421
  104OSM   H18U10580   7.582   2.319   8.769 -1.4662 -0.8133  1.3881
  104OSM    C1F10581   6.674   2.808  10.263 -0.4966 -0.0672  0.1073
  104OSM     OF10582   6.685   2.891  10.352 -0.0105 -0.2169  0.0212
  104OSM    C2F10583   6.613   2.853  10.135  0.7361 -0.3647  0.6312
  104OSM    H2F10584   6.503   2.847  10.150  0.7963 -0.7153  0.9521
  104OSM    H2G10585   6.654   2.786  10.057  1.3221 -0.0053  0.6306
  104OSM    C3F10586   6.652   3.006  10.117 -0.0898  0.0472 -0.1289
  104OSM    H3F10587   6.762   3.020  10.107  0.1628  1.1760  3.2014
  104OSM    H3G10588   6.617   3.072  10.199  0.0601  1.2454 -1.0013
  104OSM    C4F10589   6.593   3.068   9.989  0.1239 -0.4411 -0.0935
  104OSM    H4F10590   6.573   3.176  10.008 -0.4870 -0.5213 -0.2652
  104OSM    H4G10591   6.495   3.021   9.967  1.4257 -2.6102 -1.6875
  104OSM    C5F10592   6.678   3.047   9.868 -0.1347 -0.5613  0.0666
  104OSM    H5F10593   6.679   2.936   9.860 -0.0447 -0.4940 -1.0065
  104OSM    H5G10594   6.779   3.084   9.897  0.6070 -2.0640 -0.4888
  104OSM    C6F10595   6.639   3.107   9.734  0.0887 -0.3620 -0.4840
  104OSM    H6F10596   6.671   3.213   9.743  2.8454 -1.0974 -0.4233
  104OSM    H6G10597   6.537   3.092   9.695 -0.4333 -0.2556  0.7869
  104OSM    C7F10598   6.734   3.056   9.626  0.9363 -0.6052  0.2064
  104OSM    H7F10599   6.700   2.958   9.585  0.8379 -0.5917  0.2551
  104OSM    H7G10600   6.833   3.043   9.674  0.0777 -0.1156  2.2000
  104OSM    C8F10601   6.733   3.154   9.505 -0.1859  0.2683  0.1861
  104OSM    H8F10602   6.628   3.177   9.479  0.4450  2.8284 -0.4372
  104OSM    H8G10603   6.766   3.079   9.430  1.3674  0.3692  0.7258
  104OSM    C9F10604   6.807   3.287   9.515  0.4886 -0.2941  0.5686
  104OSM    H9F10605   6.841   3.311   9.617  0.9115 -0.3160  0.4375
  104OSM   C10F10606   6.859   3.365   9.417 -0.3714  0.3632  0.1186
  104OSM   H10F10607   6.897   3.467   9.435 -0.2639  0.5478 -1.0470
  104OSM   C11F10608   6.834   3.323   9.273 -0.6649  0.5048  0.2598
  104OSM   H11F10609   6.729   3.340   9.241 -1.2439 -2.6708  0.1077
  104OSM   H11G10610   6.855   3.216   9.250 -0.9151  0.1449  1.6297
  104OSM   C12F10611   6.935   3.391   9.178  0.1952 -0.2818 -1.0247
  104OSM   H12F10612   7.035   3.343   9.174  1.3895  1.8024  1.1007
  104OSM   H12G10613   6.953   3.494   9.215 -2.8167  0.2065 -0.6601
  104OSM   C13F10614   6.891   3.425   9.037  1.1967 -0.0030  0.4553
  104OSM   H13F10615   6.795   3.480   9.035  1.3840  0.4432 -3.1279
  104OSM   H13G10616   6.870   3.336   8.974 -2.1705  0.3701  0.8630
  104OSM   C14F10617   6.987   3.507   8.949  0.6197 -0.1398  0.2460
  104OSM   H14F10618   7.040   3.578   9.017  0.3176 -0.1424  0.4887
  104OSM   H14G10619   6.932   3.560   8.869  2.5253 -0.9934 -1.7372
  104OSM   C15F10620   7.096   3.434   8.866 -0.5163  0.0391 -0.6018
  104OSM   H15F10621   7.064   3.350   8.801 -0.7530  0.2558 -0.7645
  104OSM   H15G10622   7.157   3.393   8.949 -2.1529  1.2156  1.2703
  104OSM   C16F10623   7.186   3.536   8.784  0.5951 -1.0794 -0.2115
  104OSM   H16F10624   7.219   3.612   8.859 -2.3332  1.1915 -1.0257
  104OSM   H16G10625   7.116   3.590   8.717  1.0427 -2.3662 -1.7615
  104OSM   C17F10626   7.300   3.481   8.694 -0.5227  0.5456 -0.1532
  104OSM   H17F10627   7.247   3.416   8.622  0.4685 -1.4911  0.8853
  104OSM   H17G10628   7.369   3.408   8.743  0.9352  1.0130 -1.4247
  104OSM   C18F10629   7.367   3.595   8.620  0.0038 -0.0502  0.4070
  104OSM   H18F10630   7.425   3.568   8.529 -2.4592  0.2143 -1.3403
  104OSM   H18G10631   7.425   3.645   8.700  1.9269 -2.0254  0.3445
  104OSM   H18H10632   7.290   3.659   8.572  0.5519 -0.7329 -1.4790
  105OSM      N10633   0.221   5.368  10.905  0.0870  0.1541  0.7058
  105OSM    C1510634   0.129   5.313  11.014 -0.2113  0.0413  0.6815
  105OSM   H15A10635   0.056   5.243  10.976  0.2081  0.9935 -2.1635
  105OSM   H15B10636   0.082   5.398  11.062 -2.1522 -1.2623  1.1725
  105OSM   H15C10637   0.196   5.261  11.080 -0.1840 -1.1170 -0.2234
  105OSM    C1410638   0.300   5.482  10.959 -0.0435  0.0305  0.4037
  105OSM   H14A10639   0.234   5.561  10.991  0.8397  1.1348 -0.3936
  105OSM   H14B10640   0.358   5.533  10.883 -2.1835  0.4035 -1.0671
  105OSM   H14C10641   0.351   5.444  11.046 -1.7812 -1.2746  0.9004
  105OSM    C1310642   0.311   5.257  10.864  0.0991  0.4265 -0.0800
  105OSM   H13A10643   0.372   5.221  10.946 -1.1649 -0.5328  0.4660
  105OSM   H13B10644   0.374   5.288  10.782  0.8987  1.5820  0.9352
  105OSM   H13C10645   0.245   5.176  10.835 -0.7485  0.2706  2.1151
  105OSM    C1210646   0.148   5.399  10.774  0.2790 -0.2338  0.1497
  105OSM   H12A10647   0.080   5.478  10.801  0.0401 -0.1882 -0.5842
  105OSM   H12B10648   0.094   5.310  10.743 -1.1762  0.5254  0.4298
  105OSM    C1110649   0.225   5.461  10.653 -0.1708 -0.2594  0.0968
  105OSM   H11A10650   0.165   5.453  10.560  0.6494 -0.5380 -0.4176
  105OSM   H11B10651   0.321   5.412  10.629  0.8246  1.9040 -0.5461
  105OSM      P10652   0.350   5.687  10.643  0.4439 -0.0903 -0.5488
  105OSM    O1310653   0.300   5.827  10.644  0.3244 -0.4260 -0.2553
  105OSM    O1410654   0.469   5.664  10.725  0.0427 -0.0027  0.2880
  105OSM    O1110655   0.379   5.643  10.498  0.2422 -0.1796 -0.0635
  105OSM    O1210656   0.232   5.599  10.686  0.0644  0.0175  0.0180
  105OSM    C1S10657   0.469   5.712  10.414 -0.3165  0.8207 -0.0563
  105OSM    H1S10658   0.571   5.678  10.440 -0.5550 -1.7865 -2.1623
  105OSM    H1T10659   0.454   5.822  10.425  0.2430  0.8700  0.2226
  105OSM     NF10660   0.530   5.792  10.191  0.5650 -0.4551 -0.2109
  105OSM    HNF10661   0.487   5.870  10.147  1.0397 -0.3396 -0.4695
  105OSM    C2S10662   0.450   5.695  10.260 -0.3380 -0.1106  0.4841
  105OSM    H2S10663   0.483   5.593  10.230  0.0136 -0.2061  1.1696
  105OSM    C3S10664   0.298   5.711  10.219 -0.1852 -0.2359 -0.5642
  105OSM    H3S10665   0.266   5.808  10.264  1.4151  0.1368 -0.1567
  105OSM     O310666   0.211   5.615  10.285 -0.4103 -0.3111 -0.1855
  105OSM    HO310667   0.267   5.589  10.358  1.0734  0.3182 -1.0567
  105OSM    C4S10668   0.293   5.706  10.073  0.2120 -0.2539  1.1468
  105OSM    H4S10669   0.268   5.799  10.020 -2.1757 -0.6683  1.4180
  105OSM    C5S10670   0.273   5.591  10.001 -0.6460  0.4302  0.2241
  105OSM    H5S10671   0.295   5.495  10.050  2.7457  0.3275 -1.2159
  105OSM    C6S10672   0.258   5.578   9.848 -0.0306  0.0591  0.4450
  105OSM    H6S10673   0.261   5.684   9.815  0.1544  0.4471  1.6755
  105OSM    H6T10674   0.155   5.544   9.822  0.3855 -1.2112  0.4097
  105OSM    C7S10675   0.365   5.480   9.780  0.0046  0.8274 -0.3495
  105OSM    H7S10676   0.359   5.375   9.815  0.9143 -0.0205 -2.5425
  105OSM    H7T10677   0.461   5.536   9.782  0.5251 -0.0027 -1.2700
  105OSM    C8S10678   0.331   5.472   9.631  0.1175 -0.6755  0.1184
  105OSM    H8S10679   0.324   5.573   9.586 -1.8936  0.0390  1.8743
  105OSM    H8T10680   0.225   5.437   9.628 -0.6335  1.5634 -1.0397
  105OSM    C9S10681   0.426   5.385   9.547 -0.8982 -0.0282 -0.1450
  105OSM    H9S10682   0.422   5.278   9.577  1.4280 -0.2562 -0.5217
  105OSM    H9T10683   0.527   5.430   9.541 -1.1657  0.4144 -2.1360
  105OSM   C10S10684   0.386   5.380   9.394 -0.1902  0.7725  0.0465
  105OSM   H10S10685   0.346   5.477   9.359 -1.6811 -0.2572 -1.2890
  105OSM   H10T10686   0.294   5.318   9.385  1.2586 -1.3301 -1.3859
  105OSM   C11S10687   0.491   5.317   9.308 -0.1684  0.4717  0.0359
  105OSM   H11S10688   0.534   5.229   9.359 -0.5613  0.8378  1.0192
  105OSM   H11T10689   0.573   5.391   9.294 -0.4553  0.4364 -2.1304
  105OSM   C12S10690   0.447   5.302   9.158  0.2212  0.1223  0.1756
  105OSM   H12S10691   0.381   5.214   9.141  2.5692 -1.2894 -2.3671
  105OSM   H12T10692   0.544   5.290   9.105 -0.1403  1.6876 -0.9143
  105OSM   C13S10693   0.384   5.424   9.090  0.2911  0.1929  0.1208
  105OSM   H13S10694   0.435   5.512   9.135  2.4828  0.1272 -2.0055
  105OSM   H13T10695   0.281   5.433   9.130  0.4491  0.3341  0.5034
  105OSM   C14S10696   0.394   5.416   8.943 -0.8172  0.1175 -0.6525
  105OSM   H14S10697   0.331   5.488   8.885 -0.9354 -0.8530 -1.7550
  105OSM   H14T10698   0.361   5.314   8.914 -0.5897 -0.3302  0.6181
  105OSM   C15S10699   0.537   5.438   8.884 -0.6514  0.3888 -0.0370
  105OSM   H15S10700   0.608   5.356   8.909 -0.8108  0.1561 -0.3286
  105OSM   H15T10701   0.584   5.529   8.925  0.8682 -0.4179  0.0811
  105OSM   C16S10702   0.541   5.428   8.733  0.3284  0.5630 -0.6011
  105OSM   H16S10703   0.461   5.497   8.699  1.1748  2.1067  0.4028
  105OSM   H16T10704   0.504   5.329   8.698  0.2245  0.4729 -0.2434
  105OSM   C17S10705   0.688   5.452   8.684 -0.3122 -0.3833  0.4476
  105OSM   H17S10706   0.742   5.355   8.689 -0.5550 -0.5438  0.0176
  105OSM   H17T10707   0.739   5.521   8.755 -1.4029 -0.0729  0.9486
  105OSM   C18S10708   0.671   5.510   8.547  0.0718 -0.4824 -0.2606
  105OSM   H18S10709   0.611   5.450   8.475  0.0095 -0.8116  0.0606
  105OSM   H18T10710   0.767   5.524   8.494 -0.7344  1.0253 -1.4067
  105OSM   H18U10711   0.631   5.613   8.559  1.7569 -0.0604  2.8111
  105OSM    C1F10712   0.665   5.787  10.190 -0.3041 -0.6428  0.7127
  105OSM     OF10713   0.724   5.682  10.192  0.2228 -0.0754  0.2323
  105OSM    C2F10714   0.732   5.922  10.175  0.1388 -0.1174  0.1775
  105OSM    H2F10715   0.713   5.976  10.270  1.5979  1.6400 -0.4711
  105OSM    H2G10716   0.695   5.980  10.088  1.0583 -0.3125 -0.3644
  105OSM    C3F10717   0.891   5.920  10.160 -0.0964 -0.0151 -0.4125
  105OSM    H3F10718   0.900   5.882  10.056 -0.1850  1.7928 -1.1127
  105OSM    H3G10719   0.950   5.854  10.226 -1.2901  0.2029  0.9138
  105OSM    C4F10720   0.954   6.063  10.179  0.3932 -0.2360  0.2137
  105OSM    H4F10721   1.064   6.063  10.162  0.1549  0.3552 -1.5849
  105OSM    H4G10722   0.939   6.089  10.285 -0.6743  1.8261 -0.3885
  105OSM    C5F10723   0.905   6.170  10.075 -0.8795  0.3680  0.1279
  105OSM    H5F10724   0.912   6.270  10.123 -0.5753  0.9606 -1.1249
  105OSM    H5G10725   0.794   6.158  10.067 -1.2215  2.7763  0.4665
  105OSM    C6F10726   0.983   6.166   9.942  0.1021  0.5009 -0.6840
  105OSM    H6F10727   0.977   6.062   9.902  1.7263  0.8858 -2.0965
  105OSM    H6G10728   1.093   6.179   9.951  0.1571  1.9118 -2.6667
  105OSM    C7F10729   0.933   6.264   9.839 -0.0071  0.6385  0.2266
  105OSM    H7F10730   0.920   6.365   9.885  0.1365 -0.0887  1.9107
  105OSM    H7G10731   0.829   6.232   9.818 -1.1371  1.9997  3.2381
  105OSM    C8F10732   1.020   6.278   9.716 -0.5416  0.1088  0.1697
  105OSM    H8F10733   1.044   6.173   9.690 -2.2451  0.2011 -2.1006
  105OSM    H8G10734   1.114   6.327   9.751  0.8456 -3.0057  1.1342
  105OSM    C9F10735   0.961   6.359   9.603  0.0789 -0.0832  0.4948
  105OSM    H9F10736   0.909   6.455   9.615  0.7609  0.3579  0.0241
  105OSM   C10F10737   0.963   6.316   9.479 -0.2085 -0.2192 -0.2240
  105OSM   H10F10738   0.909   6.356   9.392  0.5452 -1.6281 -1.3922
  105OSM   C11F10739   1.029   6.185   9.434 -0.5206 -0.0094 -0.5973
  105OSM   H11F10740   0.988   6.095   9.485  0.7578  0.6785  1.7755
  105OSM   H11G10741   1.139   6.185   9.445 -0.5583 -1.7764  0.1438
  105OSM   C12F10742   1.006   6.165   9.280 -0.5094 -0.3114 -0.1287
  105OSM   H12F10743   0.896   6.174   9.261 -0.5133 -0.7247 -0.3175
  105OSM   H12G10744   1.039   6.065   9.245 -0.1613 -0.1428 -0.2855
  105OSM   C13F10745   1.084   6.253   9.182  0.2457  0.5364  0.1135
  105OSM   H13F10746   1.192   6.250   9.206  0.6199  0.6116 -1.4173
  105OSM   H13G10747   1.054   6.360   9.188 -1.9090 -0.0890  1.6967
  105OSM   C14F10748   1.066   6.191   9.042  0.7271 -0.0470  0.2873
  105OSM   H14F10749   0.966   6.220   9.003 -0.2059  0.9975  3.1776
  105OSM   H14G10750   1.069   6.080   9.039 -1.8527 -0.1546 -0.7250
  105OSM   C15F10751   1.181   6.246   8.954 -0.5839 -0.4518 -0.1358
  105OSM   H15F10752   1.279   6.220   9.000 -1.0685 -0.7717  0.7478
  105OSM   H15G10753   1.176   6.356   8.947  0.2662 -0.4350 -0.5182
  105OSM   C16F10754   1.175   6.200   8.811  0.8948  0.2172 -0.3758
  105OSM   H16F10755   1.079   6.218   8.758 -1.3099 -1.1238  2.8455
  105OSM   H16G10756   1.189   6.090   8.801 -4.7706 -0.7266 -1.0157
  105OSM   C17F10757   1.280   6.275   8.727 -0.1549 -0.0418  0.2408
  105OSM   H17F10758   1.380   6.266   8.775 -0.3606 -1.4025  0.4420
  105OSM   H17G10759   1.260   6.384   8.721 -1.2228 -0.1984  0.8276
  105OSM   C18F10760   1.294   6.232   8.579 -0.7267  0.4137 -0.3092
  105OSM   H18F10761   1.194   6.237   8.531 -1.1774  1.6399  0.6997
  105OSM   H18G10762   1.320   6.125   8.568  2.4762  0.7571  2.4329
  105OSM   H18H10763   1.373   6.292   8.530 -0.1660  1.3900  1.6735
  106OSM      N10764   6.703   5.641  10.462 -0.4247  0.2911 -0.6090
  106OSM    C1510765   6.849   5.672  10.460  0.0376  0.8867  0.5501
  106OSM   H15A10766   6.867   5.777  10.444  0.3433  0.5847 -1.4533
  106OSM   H15B10767   6.893   5.619  10.376 -2.6494  0.1755 -0.5036
  106OSM   H15C10768   6.898   5.631  10.547  0.1552  1.5905  0.8206
  106OSM    C1410769   6.639   5.746  10.374  0.5284 -0.1841  0.5537
  106OSM   H14A10770   6.626   5.837  10.430 -4.2174 -1.4206  1.8764
  106OSM   H14B10771   6.538   5.712  10.359 -0.7682  2.0711  3.3341
  106OSM   H14C10772   6.691   5.758  10.280  1.6705 -2.1453  0.8647
  106OSM    C1310773   6.683   5.514  10.390  0.1488  0.2706  0.0052
  106OSM   H13A10774   6.749   5.439  10.431  1.6073  0.4911 -1.7987
  106OSM   H13B10775   6.715   5.508  10.287  0.5273 -1.0332  0.1767
  106OSM   H13C10776   6.580   5.485  10.404  0.1075  1.0714  1.6547
  106OSM    C1210777   6.647   5.641  10.608 -0.2666 -0.0419  0.4144
  106OSM   H12A10778   6.665   5.736  10.655 -0.2183 -0.5224  1.3984
  106OSM   H12B10779   6.696   5.564  10.666  0.2601 -0.9431 -1.1528
  106OSM    C1110780   6.491   5.623  10.634 -0.5470 -0.5042 -0.1785
  106OSM   H11A10781   6.437   5.706  10.584 -0.4018 -0.9295 -1.0658
  106OSM   H11B10782   6.492   5.631  10.745  1.7279 -2.5837  0.0385
  106OSM      P10783   6.300   5.441  10.590 -0.1760  0.1669 -0.1236
  106OSM    O1310784   6.304   5.294  10.603  0.2497  0.6611  0.6342
  106OSM    O1410785   6.220   5.522  10.687  0.4254  0.0143  0.4676
  106OSM    O1110786   6.249   5.485  10.443 -0.1252  0.4254  0.5849
  106OSM    O1210787   6.445   5.496  10.585 -0.0069 -0.5912 -0.1007
  106OSM    C1S10788   6.304   5.401  10.335  0.3000  0.5040  0.6226
  106OSM    H1S10789   6.238   5.316  10.309  0.4540  0.1689  1.3213
  106OSM    H1T10790   6.405   5.357  10.344 -0.6197 -1.5962  1.1163
  106OSM     NF10791   6.367   5.377  10.082 -0.4431 -0.3163 -0.2690
  106OSM    HNF10792   6.456   5.403  10.047 -0.8669 -1.1859 -2.0786
  106OSM    C2S10793   6.307   5.465  10.186  0.3664 -1.7805 -0.8445
  106OSM    H2S10794   6.200   5.481  10.164  0.4314  1.2827  0.6411
  106OSM    C3S10795   6.374   5.609  10.193 -0.6670 -0.7243  0.1128
  106OSM    H3S10796   6.484   5.614  10.204 -0.6711  1.0434 -0.3374
  106OSM     O310797   6.337   5.685  10.307 -0.1118  0.5065 -0.4979
  106OSM    HO310798   6.304   5.617  10.366  3.0119 -0.3184  0.4987
  106OSM    C4S10799   6.352   5.683  10.064 -0.8052 -0.1815 -0.1123
  106OSM    H4S10800   6.433   5.669   9.990  0.2700  2.5822  0.4372
  106OSM    C5S10801   6.244   5.763  10.033  0.5939 -0.2615 -0.1122
  106OSM    H5S10802   6.169   5.767  10.115 -0.7142 -2.3784 -1.1039
  106OSM    C6S10803   6.217   5.855   9.910  0.3685 -0.2851 -0.0203
  106OSM    H6S10804   6.297   5.930   9.920 -0.3385  0.4986 -0.0907
  106OSM    H6T10805   6.125   5.918   9.920  0.9762  0.7467 -0.7684
  106OSM    C7S10806   6.223   5.779   9.774  0.2581  0.0493  0.3716
  106OSM    H7S10807   6.150   5.696   9.787  0.9644 -0.6558 -0.0067
  106OSM    H7T10808   6.323   5.729   9.773  0.6754  0.8702  0.3198
  106OSM    C8S10809   6.208   5.875   9.656  0.7341  0.2909  0.1443
  106OSM    H8S10810   6.273   5.965   9.660  0.4709  0.5800 -1.4768
  106OSM    H8T10811   6.107   5.919   9.669  0.3900 -0.0692 -1.1678
  106OSM    C9S10812   6.211   5.796   9.521 -0.4401  0.4271 -0.0418
  106OSM    H9S10813   6.150   5.705   9.538 -0.8875  0.7480  0.0926
  106OSM    H9T10814   6.314   5.762   9.499 -0.4753 -0.3546  0.9332
  106OSM   C10S10815   6.167   5.888   9.414  0.5109  1.0179  0.4562
  106OSM   H10S10816   6.247   5.963   9.395  2.3064 -0.6294  1.1724
  106OSM   H10T10817   6.077   5.945   9.445  0.3048 -0.3095  2.4538
  106OSM   C11S10818   6.119   5.807   9.296  0.2202 -0.3673 -0.4486
  106OSM   H11S10819   6.038   5.860   9.242  1.3563  1.1587 -0.7317
  106OSM   H11T10820   6.084   5.709   9.334  1.5977 -0.4564  0.7019
  106OSM   C12S10821   6.231   5.783   9.198 -0.3745 -0.1620 -0.2328
  106OSM   H12S10822   6.315   5.734   9.251 -0.7794 -2.2999 -1.4871
  106OSM   H12T10823   6.269   5.882   9.163  0.6209  0.2147  1.7377
  106OSM   C13S10824   6.192   5.700   9.078  0.0616  0.3325  0.3324
  106OSM   H13S10825   6.157   5.610   9.132  0.8608  0.0026  0.3010
  106OSM   H13T10826   6.281   5.687   9.012  0.0252  1.8561 -0.0612
  106OSM   C14S10827   6.088   5.751   8.984 -0.0091  0.4721  0.3938
  106OSM   H14S10828   6.124   5.846   8.941  0.0682 -0.6489 -2.2287
  106OSM   H14T10829   5.989   5.772   9.030  0.6622 -1.2801  2.8737
  106OSM   C15S10830   6.064   5.648   8.871  0.2395 -0.8759  0.1070
  106OSM   H15S10831   6.017   5.556   8.913  1.3669 -1.2341  0.6149
  106OSM   H15T10832   6.159   5.612   8.827  0.2397 -0.2571 -0.4033
  106OSM   C16S10833   5.979   5.693   8.749 -0.3803  0.0443  1.2777
  106OSM   H16S10834   5.977   5.621   8.663  0.0590  0.3758  0.9850
  106OSM   H16T10835   6.014   5.787   8.700 -1.4858  0.0935  0.5445
  106OSM   C17S10836   5.829   5.713   8.787 -0.1993  0.0060 -0.3973
  106OSM   H17S10837   5.816   5.797   8.859  3.5718  1.7162 -1.4624
  106OSM   H17T10838   5.804   5.616   8.834  1.6904 -0.9285 -1.2119
  106OSM   C18S10839   5.731   5.732   8.670 -0.5036 -0.3813  0.4706
  106OSM   H18S10840   5.767   5.822   8.616  0.4290 -0.3833  1.0711
  106OSM   H18T10841   5.633   5.747   8.719  0.3717  2.9176  1.4716
  106OSM   H18U10842   5.731   5.643   8.604 -0.7856 -1.7738  2.2650
  106OSM    C1F10843   6.306   5.269  10.039 -0.2198 -0.0131  0.4345
  106OSM     OF10844   6.202   5.230  10.093  0.4297  0.7535 -0.0275
  106OSM    C2F10845   6.358   5.206   9.920  0.0106 -0.0581  0.4413
  106OSM    H2F10846   6.287   5.124   9.897  0.1957 -0.0292 -0.2430
  106OSM    H2G10847   6.461   5.173   9.944  0.0006  0.3983  1.1491
  106OSM    C3F10848   6.364   5.303   9.807  0.2870  0.6758 -0.3446
  106OSM    H3F10849   6.457   5.363   9.820  0.9236 -0.0437 -1.3520
  106OSM    H3G10850   6.278   5.371   9.792 -0.2233  0.0407 -0.3585
  106OSM    C4F10851   6.369   5.223   9.671 -0.3047  0.2995  0.1296
  106OSM    H4F10852   6.275   5.168   9.652 -0.0275 -1.4614  3.1939
  106OSM    H4G10853   6.456   5.154   9.665 -1.2106 -0.7774 -0.9902
  106OSM    C5F10854   6.387   5.322   9.558 -0.2569  0.2099  0.2201
  106OSM    H5F10855   6.466   5.387   9.602  0.4621 -1.1953  1.0827
  106OSM    H5G10856   6.289   5.375   9.557 -0.4535 -0.1537  0.1727
  106OSM    C6F10857   6.432   5.259   9.430  0.1360 -0.1310  0.9373
  106OSM    H6F10858   6.351   5.188   9.404 -0.9999  1.5930 -0.4979
  106OSM    H6G10859   6.533   5.216   9.448 -0.2592 -1.3075  0.4690
  106OSM    C7F10860   6.438   5.360   9.316  0.2371 -0.8912  0.6532
  106OSM    H7F10861   6.498   5.449   9.347  2.1564 -1.7446 -0.4537
  106OSM    H7G10862   6.337   5.404   9.303  0.5980 -0.0930  0.4713
  106OSM    C8F10863   6.502   5.307   9.183  0.3062  0.4505 -0.2991
  106OSM    H8F10864   6.452   5.213   9.150 -0.6699  0.5773  0.7565
  106OSM    H8G10865   6.605   5.286   9.218 -0.0816  1.2309  1.3886
  106OSM    C9F10866   6.512   5.404   9.068  0.1722  0.5265  0.8999
  106OSM    H9F10867   6.451   5.494   9.088  0.5241  1.3267 -1.3871
  106OSM   C10F10868   6.558   5.380   8.944  0.0234  0.5363 -0.0161
  106OSM   H10F10869   6.562   5.463   8.872 -0.5009 -0.3229 -1.0573
  106OSM   C11F10870   6.617   5.256   8.887 -0.4095 -0.2034  0.1090
  106OSM   H11F10871   6.621   5.180   8.968 -3.6871 -1.3978 -0.6755
  106OSM   H11G10872   6.723   5.261   8.855 -0.5608  1.4906 -0.2081
  106OSM   C12F10873   6.527   5.197   8.771  0.6035 -0.3493  0.1823
  106OSM   H12F10874   6.435   5.149   8.811 -0.9381  1.6808 -0.7456
  106OSM   H12G10875   6.594   5.115   8.737  0.9197  0.1913 -0.5169
  106OSM   C13F10876   6.484   5.303   8.675 -0.7347  0.5095 -0.3617
  106OSM   H13F10877   6.572   5.371   8.668 -0.2069  0.1008  1.6218
  106OSM   H13G10878   6.394   5.352   8.719 -0.1494  0.4671  0.9332
  106OSM   C14F10879   6.436   5.241   8.540  0.1100  0.6193  0.3311
  106OSM   H14F10880   6.343   5.185   8.564  0.7289  0.0663  1.4852
  106OSM   H14G10881   6.507   5.160   8.516  1.0902  1.9897 -1.6778
  106OSM   C15F10882   6.418   5.326   8.418 -0.6550 -0.8488 -0.4489
  106OSM   H15F10883   6.472   5.421   8.438  0.7580 -1.7459  0.2102
  106OSM   H15G10884   6.314   5.361   8.402 -0.9800 -2.3179 -1.8146
  106OSM   C16F10885   6.477   5.259   8.288  0.1497  0.0352 -0.3140
  106OSM   H16F10886   6.426   5.161   8.272 -0.4931  0.6075 -2.1142
  106OSM   H16G10887   6.583   5.230   8.298  0.3232 -0.0179 -2.0095
  106OSM   C17F10888   6.473   5.355   8.168  0.1429 -0.3895 -0.3851
  106OSM   H17F10889   6.525   5.447   8.203 -2.6947  0.7302  1.2269
  106OSM   H17G10890   6.378   5.405   8.141  0.8976  0.4254 -1.6236
  106OSM   C18F10891   6.538   5.292   8.044  0.6621  0.4670 -0.0071
  106OSM   H18F10892   6.543   5.375   7.970 -0.1880  1.3488  0.8949
  106OSM   H18G10893   6.480   5.210   7.996 -0.5108  1.3259 -0.1315
  106OSM   H18H10894   6.638   5.250   8.065 -0.3141 -3.6597 -2.4924
  107OSM      N10895   3.747   1.242  10.771 -0.5614  0.5958 -0.4666
  107OSM    C1510896   3.827   1.272  10.900  0.2484  0.5026 -0.2276
  107OSM   H15A10897   3.888   1.359  10.882  0.5533  0.3401  0.0145
  107OSM   H15B10898   3.878   1.184  10.937  0.0305  0.6874  0.5428
  107OSM   H15C10899   3.754   1.292  10.978 -0.2983 -0.2607 -0.5299
  107OSM    C1410900   3.696   1.101  10.783 -0.5810 -0.3988 -0.2933
  107OSM   H14A10901   3.634   1.094  10.871  0.8544 -4.2506  0.6233
  107OSM   H14B10902   3.777   1.029  10.785  0.5941  0.8047  3.1590
  107OSM   H14C10903   3.631   1.069  10.703  0.3140 -2.8351 -0.1300
  107OSM    C1310904   3.626   1.333  10.759  0.4870  0.3177  0.3212
  107OSM   H13A10905   3.669   1.430  10.742  2.7374 -0.3930  1.5235
  107OSM   H13B10906   3.586   1.339  10.858  0.7709 -3.6346  0.8304
  107OSM   H13C10907   3.564   1.298  10.678  0.3101  1.3026  0.0279
  107OSM    C1210908   3.836   1.250  10.647  0.3902 -0.6751  0.4928
  107OSM   H12A10909   3.780   1.210  10.563  1.2542  0.6444 -0.7725
  107OSM   H12B10910   3.925   1.189  10.655  0.4784 -1.2729 -3.2261
  107OSM    C1110911   3.901   1.389  10.610 -0.5545  0.4622  0.1139
  107OSM   H11A10912   3.818   1.463  10.613 -0.3798  0.6260  2.1214
  107OSM   H11B10913   3.935   1.384  10.505  1.3429  1.4457  0.6296
  107OSM      P10914   4.152   1.347  10.660  0.1122  0.3499  0.2645
  107OSM    O1310915   4.239   1.352  10.778  0.2147  0.1562 -0.4575
  107OSM    O1410916   4.127   1.207  10.613 -0.2226  0.2451 -0.2624
  107OSM    O1110917   4.211   1.426  10.542  0.1575 -0.4026 -0.2523
  107OSM    O1210918   4.014   1.419  10.697 -0.1245  0.5056 -0.2080
  107OSM    C1S10919   4.212   1.565  10.532 -1.0842  0.2285 -0.2835
  107OSM    H1S10920   4.223   1.599  10.638 -5.8043 -0.1825  0.5959
  107OSM    H1T10921   4.114   1.608  10.501 -0.2302  1.7753 -0.9329
  107OSM     NF10922   4.342   1.761  10.453 -0.4179 -0.5222 -0.3632
  107OSM    HNF10923   4.303   1.824  10.386 -0.5594  0.9278  1.0225
  107OSM    C2S10924   4.319   1.618  10.430  0.3596 -0.1443 -0.6927
  107OSM    H2S10925   4.420   1.578  10.456 -0.0182 -0.6231  0.0823
  107OSM    C3S10926   4.265   1.586  10.293 -0.1034 -0.1898 -0.2581
  107OSM    H3S10927   4.166   1.636  10.285  0.9612  2.0625 -0.3620
  107OSM     O310928   4.249   1.444  10.278 -0.3221 -0.2162 -0.1161
  107OSM    HO310929   4.248   1.403  10.365  1.8521 -0.8710 -0.3359
  107OSM    C4S10930   4.343   1.633  10.184  0.3768  0.5627  0.0116
  107OSM    H4S10931   4.297   1.723  10.141  2.2920  1.5532 -0.0539
  107OSM    C5S10932   4.459   1.591  10.120 -0.0429 -0.1749  0.1027
  107OSM    H5S10933   4.511   1.498  10.146  0.5221 -0.1280 -0.8125
  107OSM    C6S10934   4.526   1.666  10.004 -0.4793  0.0636  0.6957
  107OSM    H6S10935   4.577   1.599   9.931 -1.6313  0.6596 -0.7254
  107OSM    H6T10936   4.618   1.714  10.042  0.7832  0.2280 -2.2757
  107OSM    C7S10937   4.431   1.762   9.934 -0.5667  0.8605 -0.6767
  107OSM    H7S10938   4.401   1.840  10.008 -1.7581  0.5582 -0.8168
  107OSM    H7T10939   4.331   1.722   9.906 -0.8515  0.7971  0.3617
  107OSM    C8S10940   4.492   1.833   9.812  0.3241  0.2975 -0.8413
  107OSM    H8S10941   4.598   1.851   9.841 -0.2064  1.7154  0.3706
  107OSM    H8T10942   4.442   1.931   9.799 -2.7458 -1.0396 -0.0091
  107OSM    C9S10943   4.491   1.753   9.681  0.4667  0.0922  0.6274
  107OSM    H9S10944   4.389   1.720   9.652  0.7825  0.3413 -0.8327
  107OSM    H9T10945   4.552   1.665   9.709 -1.6964 -1.9134 -0.5510
  107OSM   C10S10946   4.535   1.832   9.559 -0.9146 -0.1921 -0.5798
  107OSM   H10S10947   4.636   1.878   9.566 -0.2885 -1.3294 -1.6798
  107OSM   H10T10948   4.472   1.916   9.524  0.6172  1.1728 -0.1970
  107OSM   C11S10949   4.532   1.722   9.450 -0.1530  0.4833 -0.5880
  107OSM   H11S10950   4.437   1.664   9.444 -0.8750  1.5409  0.1745
  107OSM   H11T10951   4.611   1.645   9.463 -0.8278 -0.0081  0.8259
  107OSM   C12S10952   4.563   1.777   9.305 -0.2876  0.4837 -0.2364
  107OSM   H12S10953   4.656   1.838   9.304  0.1470 -0.1720 -1.9970
  107OSM   H12T10954   4.486   1.853   9.277  0.2287  0.3127 -2.2694
  107OSM   C13S10955   4.564   1.672   9.200 -0.5567  0.3043  0.3056
  107OSM   H13S10956   4.485   1.596   9.219 -0.5017 -0.8776 -3.4139
  107OSM   H13T10957   4.655   1.609   9.203 -2.3120 -2.3715  2.0370
  107OSM   C14S10958   4.560   1.730   9.060 -0.0206  0.2800  0.5386
  107OSM   H14S10959   4.647   1.795   9.037  0.9225 -1.4558 -1.0789
  107OSM   H14T10960   4.469   1.793   9.065  0.6160  1.4741 -1.6011
  107OSM   C15S10961   4.550   1.621   8.954  0.0091 -0.2906 -0.4841
  107OSM   H15S10962   4.472   1.550   8.989 -0.8494  1.2676  0.9038
  107OSM   H15T10963   4.650   1.573   8.949 -0.2568 -0.9859  0.5101
  107OSM   C16S10964   4.526   1.671   8.812  0.1028  0.3121 -0.4245
  107OSM   H16S10965   4.607   1.738   8.777  2.4577 -0.5563  2.8222
  107OSM   H16T10966   4.423   1.711   8.800 -0.7323 -1.1707  1.1806
  107OSM   C17S10967   4.547   1.554   8.709 -0.2838  0.2130 -0.4839
  107OSM   H17S10968   4.485   1.581   8.620  0.3088 -0.1027 -0.9997
  107OSM   H17T10969   4.503   1.458   8.742  1.0345  0.0531  0.9253
  107OSM   C18S10970   4.699   1.533   8.673 -0.3876 -0.5538 -0.0019
  107OSM   H18S10971   4.745   1.608   8.604  1.0060  1.0249  2.4844
  107OSM   H18T10972   4.716   1.433   8.629 -0.2288 -0.5743  0.1048
  107OSM   H18U10973   4.752   1.539   8.770  0.8222 -1.3797 -0.5924
  107OSM    C1F10974   4.406   1.814  10.557 -1.0574  0.2401  0.2150
  107OSM     OF10975   4.468   1.748  10.637 -0.0386  0.5991  0.0641
  107OSM    C2F10976   4.400   1.963  10.566 -1.7065  0.8188  0.1273
  107OSM    H2F10977   4.408   1.988  10.674  2.5299  1.3117 -0.1242
  107OSM    H2G10978   4.303   2.005  10.529 -0.8561  2.1362 -0.6945
  107OSM    C3F10979   4.511   2.041  10.484  0.3745 -0.1190 -0.0320
  107OSM    H3F10980   4.616   2.006  10.501  0.3812 -1.3296 -2.2896
  107OSM    H3G10981   4.506   2.148  10.514  0.3038  0.4545 -1.9936
  107OSM    C4F10982   4.475   2.036  10.334 -0.1967  0.1081  0.2698
  107OSM    H4F10983   4.366   2.039  10.315 -0.1323 -1.6350 -0.5049
  107OSM    H4G10984   4.506   1.939  10.291 -0.3095  0.0185  0.3940
  107OSM    C5F10985   4.539   2.152  10.251  0.4057  0.2161 -0.1599
  107OSM    H5F10986   4.649   2.144  10.236  0.6061  0.8839  0.8387
  107OSM    H5G10987   4.521   2.250  10.300 -1.8046 -0.3106  0.1808
  107OSM    C6F10988   4.464   2.149  10.114  0.3220  0.3532  0.4786
  107OSM    H6F10989   4.357   2.179  10.122  1.2105  3.5678  2.1644
  107OSM    H6G10990   4.467   2.047  10.070  2.0222  0.3103  0.6239
  107OSM    C7F10991   4.544   2.232  10.010 -0.6098  1.1163 -0.0511
  107OSM    H7F10992   4.649   2.199  10.000 -0.0694  2.6688  0.1509
  107OSM    H7G10993   4.566   2.331  10.055 -2.0737  1.4395  0.0183
  107OSM    C8F10994   4.481   2.249   9.871  0.0705 -0.8245  0.5840
  107OSM    H8F10995   4.374   2.262   9.895 -0.0197 -1.3720  0.4835
  107OSM    H8G10996   4.480   2.151   9.820  3.4453 -1.4551  1.4521
  107OSM    C9F10997   4.537   2.360   9.793 -0.6012  0.2245  0.4744
  107OSM    H9F10998   4.533   2.461   9.837 -0.3057  0.1973  0.5650
  107OSM   C10F10999   4.590   2.344   9.673 -0.0010 -0.0677  0.4311
  107OSM   H10F11000   4.638   2.428   9.621  1.2353 -0.8571  0.2442
  107OSM   C11F11001   4.585   2.225   9.581 -0.1916  0.4933 -0.7651
  107OSM   H11F11002   4.485   2.176   9.583  0.6218 -1.2537 -0.9846
  107OSM   H11G11003   4.659   2.157   9.629  1.5495  1.9878 -1.2414
  107OSM   C12F11004   4.621   2.266   9.442  0.0038 -0.2736  0.5490
  107OSM   H12F11005   4.726   2.302   9.438  0.1763 -0.8836 -1.5250
  107OSM   H12G11006   4.556   2.345   9.396 -0.5676 -1.2497 -0.3604
  107OSM   C13F11007   4.610   2.151   9.344  0.0902 -0.1735 -0.1374
  107OSM   H13F11008   4.506   2.114   9.340  0.5835 -1.6247 -0.0474
  107OSM   H13G11009   4.673   2.069   9.385 -1.0622 -1.0774 -0.1277
  107OSM   C14F11010   4.647   2.180   9.198  0.1106 -0.2544  0.5843
  107OSM   H14F11011   4.741   2.240   9.195  0.5413 -0.9095  0.6581
  107OSM   H14G11012   4.566   2.246   9.161 -0.5480 -0.6893  1.2360
  107OSM   C15F11013   4.655   2.060   9.097 -0.6210 -0.7072  0.4368
  107OSM   H15F11014   4.556   2.012   9.090 -0.4832 -0.8865 -0.3791
  107OSM   H15G11015   4.732   1.987   9.131 -0.7476 -0.7133  0.7188
  107OSM   C16F11016   4.703   2.117   8.959  0.3683 -0.2630  0.2480
  107OSM   H16F11017   4.759   2.042   8.899  2.8108  1.6577 -0.0160
  107OSM   H16G11018   4.760   2.210   8.981 -0.1002 -0.4956  2.6498
  107OSM   C17F11019   4.584   2.166   8.872 -0.2508  0.0515  0.0329
  107OSM   H17F11020   4.554   2.266   8.910  1.8957  2.0031 -2.9211
  107OSM   H17G11021   4.494   2.103   8.890  1.1333 -2.1101 -0.2108
  107OSM   C18F11022   4.607   2.161   8.722  0.8435 -0.1674  0.0870
  107OSM   H18F11023   4.644   2.062   8.690  0.5004  0.4044 -2.2081
  107OSM   H18G11024   4.666   2.251   8.695 -1.1490  1.1938  0.0300
  107OSM   H18H11025   4.510   2.176   8.670  1.6970  1.0798 -1.1972
  108OSM      N11026   0.073   4.406  10.497  0.0730 -0.2871 -0.2880
  108OSM    C1511027   0.149   4.279  10.515  0.1302  0.0708 -0.3455
  108OSM   H15A11028   0.115   4.199  10.451  0.8446 -1.9508  1.6872
  108OSM   H15B11029   0.167   4.247  10.616  3.7336 -0.1881 -0.9395
  108OSM   H15C11030   0.250   4.301  10.483 -0.4570  2.4593 -0.7470
  108OSM    C1411031   0.151   4.520  10.568 -0.1283 -0.3803 -0.0178
  108OSM   H14A11032   0.134   4.510  10.674  0.2308 -0.7800  0.0047
  108OSM   H14B11033   0.109   4.614  10.535 -0.9903 -0.7174  0.0818
  108OSM   H14C11034   0.257   4.518  10.549 -0.2932  3.1289 -2.1276
  108OSM    C1311035   0.074   4.438  10.348 -0.6063 -0.3717 -0.3448
  108OSM   H13A11036   0.177   4.457  10.320  0.3191 -1.8871  1.7535
  108OSM   H13B11037   0.026   4.532  10.326  0.8334  0.4063 -0.2854
  108OSM   H13C11038   0.024   4.353  10.305 -1.5948 -0.6491  1.2635
  108OSM    C1211039  -0.060   4.401  10.563 -0.2022  0.3840  0.0428
  108OSM   H12A11040  -0.114   4.493  10.543  0.2625  0.2800 -1.8179
  108OSM   H12B11041  -0.049   4.404  10.671 -0.9960  1.8102  0.1133
  108OSM    C1111042  -0.156   4.293  10.513  0.1633 -0.0179  0.3893
  108OSM   H11A11043  -0.113   4.194  10.540 -1.6853 -0.6278  1.2188
  108OSM   H11B11044  -0.158   4.301  10.402 -1.0584  0.1648  0.4183
  108OSM      P11045  -0.392   4.406  10.523 -0.2431 -0.0578 -0.1117
  108OSM    O1311046  -0.514   4.371  10.604 -0.7895 -0.1085  0.1007
  108OSM    O1411047  -0.334   4.545  10.535 -0.1117  0.6876  0.8622
  108OSM    O1111048  -0.416   4.366  10.370  0.8041  0.1928  0.4223
  108OSM    O1211049  -0.286   4.298  10.568  0.2134 -0.1001  0.4208
  108OSM    C1S11050  -0.538   4.322  10.317  0.0339  0.5403 -0.3734
  108OSM    H1S11051  -0.601   4.412  10.305  1.4216  1.8724  1.6053
  108OSM    H1T11052  -0.590   4.255  10.389 -0.4947  1.4411  0.0941
  108OSM     NF11053  -0.651   4.220  10.127  0.0702  0.4499 -0.1768
  108OSM    HNF11054  -0.688   4.135  10.164  0.7829 -0.0324 -0.5588
  108OSM    C2S11055  -0.521   4.256  10.177  0.2719  0.3477  0.0563
  108OSM    H2S11056  -0.465   4.323  10.108 -0.5441  1.0933  0.1091
  108OSM    C3S11057  -0.430   4.137  10.203  0.4363  0.5078  0.1802
  108OSM    H3S11058  -0.467   4.078  10.290 -0.2047  0.2225 -0.2738
  108OSM     O311059  -0.296   4.164  10.242  0.1977 -0.3838  0.2572
  108OSM    HO311060  -0.299   4.244  10.295  4.7304 -1.5808  2.7883
  108OSM    C4S11061  -0.432   4.053  10.076  0.4882 -0.2667 -0.1967
  108OSM    H4S11062  -0.504   3.971  10.081 -0.2033  0.2336 -1.5321
  108OSM    C5S11063  -0.368   4.083   9.961  0.0226  0.1956 -0.0824
  108OSM    H5S11064  -0.311   4.176   9.948 -0.6124  0.2756 -3.1161
  108OSM    C6S11065  -0.374   3.996   9.837  0.6247 -0.3637 -0.3569
  108OSM    H6S11066  -0.449   3.915   9.842  1.3338 -0.9816  3.5999
  108OSM    H6T11067  -0.271   3.956   9.822  1.7356  2.7282 -1.9850
  108OSM    C7S11068  -0.397   4.091   9.724 -0.3540 -0.5529 -0.4533
  108OSM    H7S11069  -0.310   4.160   9.718  1.2943 -2.3763  1.1101
  108OSM    H7T11070  -0.493   4.146   9.739 -0.2070 -0.2500 -0.6141
  108OSM    C8S11071  -0.393   4.028   9.587 -0.1365 -0.0389  0.6398
  108OSM    H8S11072  -0.475   3.953   9.577 -2.0460  1.6987  2.2178
  108OSM    H8T11073  -0.303   3.965   9.570 -1.6314 -2.5726  1.5563
  108OSM    C9S11074  -0.401   4.121   9.473  0.2838  0.4232  0.0626
  108OSM    H9S11075  -0.321   4.198   9.483  0.0615  0.6341  0.2544
  108OSM    H9T11076  -0.493   4.182   9.465  1.3744  1.9069 -2.4741
  108OSM   C10S11077  -0.372   4.055   9.337  0.1325 -0.0419 -0.7026
  108OSM   H10S11078  -0.438   3.971   9.308  0.8407 -1.0541  0.5076
  108OSM   H10T11079  -0.275   4.002   9.349 -0.3704 -0.8845 -0.3088
  108OSM   C11S11080  -0.376   4.155   9.218 -0.4945  0.3749 -0.4601
  108OSM   H11S11081  -0.312   4.245   9.229 -2.2771  1.9070 -1.9175
  108OSM   H11T11082  -0.477   4.200   9.229 -1.3421 -1.9489  2.8706
  108OSM   C12S11083  -0.328   4.086   9.086 -0.9339 -0.0998 -0.0807
  108OSM   H12S11084  -0.398   4.001   9.073  0.4511 -1.5687  1.4967
  108OSM   H12T11085  -0.227   4.049   9.115 -1.1361 -1.6585 -1.1997
  108OSM   C13S11086  -0.323   4.175   8.969 -0.0109  0.3153 -0.8315
  108OSM   H13S11087  -0.267   4.131   8.883 -1.7630  0.5747 -2.1645
  108OSM   H13T11088  -0.269   4.262   9.009 -0.2349 -1.0517  2.8204
  108OSM   C14S11089  -0.461   4.214   8.916 -0.1441 -0.1464  0.2055
  108OSM   H14S11090  -0.497   4.298   8.979  0.7685  0.5944 -0.2425
  108OSM   H14T11091  -0.527   4.127   8.931 -0.5303 -0.4409 -2.6302
  108OSM   C15S11092  -0.448   4.256   8.774  0.3318 -0.0768 -0.7624
  108OSM   H15S11093  -0.398   4.171   8.723  1.4101 -1.2503  2.0224
  108OSM   H15T11094  -0.387   4.349   8.768  1.5203 -0.8605 -1.4044
  108OSM   C16S11095  -0.581   4.282   8.705  0.0888 -0.8964  0.6333
  108OSM   H16S11096  -0.634   4.370   8.747 -1.9992  0.8490 -4.7756
  108OSM   H16T11097  -0.655   4.200   8.713  1.2350 -1.8322  2.4413
  108OSM   C17S11098  -0.564   4.308   8.558 -0.2377  0.0570 -0.4044
  108OSM   H17S11099  -0.531   4.212   8.511 -0.9894 -0.1056 -0.6241
  108OSM   H17T11100  -0.492   4.389   8.536 -0.9153  1.1067  1.0778
  108OSM   C18S11101  -0.689   4.350   8.490 -0.1750  0.1565 -0.3650
  108OSM   H18S11102  -0.709   4.455   8.521  0.5171 -0.2187  1.4689
  108OSM   H18T11103  -0.774   4.284   8.520 -1.2005  1.0259 -1.2496
  108OSM   H18U11104  -0.677   4.349   8.379  1.8409 -0.1119 -0.1792
  108OSM    C1F11105  -0.734   4.317  10.079  0.1904  0.4923  0.1893
  108OSM     OF11106  -0.689   4.427  10.062 -0.0771 -0.0394  0.4008
  108OSM    C2F11107  -0.881   4.289  10.064 -0.5756  0.0418 -0.2492
  108OSM    H2F11108  -0.934   4.370  10.119 -0.2743  0.6578 -0.8583
  108OSM    H2G11109  -0.912   4.188  10.098 -0.0268 -0.1027 -0.1806
  108OSM    C3F11110  -0.921   4.319   9.909  0.3305  0.2760 -0.0740
  108OSM    H3F11111  -0.883   4.421   9.885  0.0994  0.8636  1.8655
  108OSM    H3G11112  -1.031   4.313   9.893  0.5028 -1.0010 -0.9336
  108OSM    C4F11113  -0.856   4.225   9.810 -0.7159  0.2074  1.1279
  108OSM    H4F11114  -0.899   4.123   9.818  0.3286 -0.4861 -1.1406
  108OSM    H4G11115  -0.748   4.217   9.838 -0.1548  2.7102 -0.0717
  108OSM    C5F11116  -0.883   4.272   9.668  0.9065  0.0728 -0.3539
  108OSM    H5F11117  -0.850   4.378   9.662 -2.3354  1.2881  1.0918
  108OSM    H5G11118  -0.991   4.275   9.644  1.0386  1.8840 -0.8451
  108OSM    C6F11119  -0.818   4.190   9.557  0.8780  0.2075  0.3850
  108OSM    H6F11120  -0.856   4.086   9.572  1.6091  0.0373  1.2152
  108OSM    H6G11121  -0.709   4.182   9.577  0.7647 -0.7131  0.7252
  108OSM    C7F11122  -0.852   4.247   9.417  0.3800 -0.2117  0.1790
  108OSM    H7F11123  -0.824   4.355   9.414 -0.9673  0.1882  1.2276
  108OSM    H7G11124  -0.963   4.239   9.415  0.4444 -1.0586 -0.5138
  108OSM    C8F11125  -0.798   4.165   9.297 -1.2957  0.1728  0.0850
  108OSM    H8F11126  -0.836   4.062   9.316 -0.4349 -0.0817  0.4787
  108OSM    H8G11127  -0.687   4.165   9.296 -1.2340 -0.1012 -2.9132
  108OSM    C9F11128  -0.847   4.236   9.168 -0.3144 -0.6467 -0.5714
  108OSM    H9F11129  -0.856   4.346   9.173 -1.7202 -0.6143 -2.6292
  108OSM   C10F11130  -0.874   4.180   9.053  0.2880 -0.3868 -0.2134
  108OSM   H10F11131  -0.903   4.246   8.969  2.0152  1.7051  0.7316
  108OSM   C11F11132  -0.860   4.028   9.030 -0.1969  0.2172  0.6325
  108OSM   H11F11133  -0.855   3.976   9.128 -2.7178  0.5499  1.0179
  108OSM   H11G11134  -0.766   4.006   8.976 -0.1679  1.4089  0.1626
  108OSM   C12F11135  -0.976   3.972   8.949 -0.7529  0.2733 -0.2892
  108OSM   H12F11136  -1.069   4.001   9.002 -1.1418  0.1139 -0.8826
  108OSM   H12G11137  -0.969   3.861   8.939  1.0793  0.4511 -1.4688
  108OSM   C13F11138  -1.009   4.032   8.813  0.5310 -1.1087  0.3918
  108OSM   H13F11139  -0.917   4.042   8.751  0.5293  0.0387  0.5473
  108OSM   H13G11140  -1.045   4.133   8.840 -0.3194 -1.3800  0.2747
  108OSM   C14F11141  -1.125   3.959   8.749  0.0882 -0.6832 -0.2783
  108OSM   H14F11142  -1.219   3.975   8.805 -1.6737  0.6719 -3.3367
  108OSM   H14G11143  -1.086   3.856   8.735  1.1863 -0.1383 -1.4807
  108OSM   C15F11144  -1.157   4.012   8.610 -0.2162 -0.6829 -0.2729
  108OSM   H15F11145  -1.059   4.032   8.562 -0.3502  2.5704  0.5402
  108OSM   H15G11146  -1.214   4.105   8.631  1.0357 -0.2859  1.5799
  108OSM   C16F11147  -1.248   3.917   8.532 -0.2068 -0.1070 -0.3087
  108OSM   H16F11148  -1.353   3.918   8.569 -0.1897  0.7805 -0.2638
  108OSM   H16G11149  -1.207   3.814   8.532 -1.4549 -0.6435 -2.3062
  108OSM   C17F11150  -1.245   3.965   8.385 -0.0705  0.2485  0.6908
  108OSM   H17F11151  -1.149   3.947   8.333 -1.4853  2.1368 -2.9096
  108OSM   H17G11152  -1.264   4.075   8.382  0.1487  0.2924 -2.5353
  108OSM   C18F11153  -1.353   3.899   8.304 -0.2797  0.3260 -0.3995
  108OSM   H18F11154  -1.326   3.794   8.279  1.0765 -0.0943  2.4421
  108OSM   H18G11155  -1.387   3.966   8.222  0.0917  0.2571 -0.6091
  108OSM   H18H11156  -1.450   3.884   8.356 -1.0299 -0.4627 -1.9506
  109OSM      N11157   6.747   3.833  10.905  0.1312  0.0801 -0.0007
  109OSM    C1511158   6.658   3.857  11.016 -0.3756  0.1895 -0.1498
  109OSM   H15A11159   6.636   3.764  11.068 -1.5128  0.9985  0.8607
  109OSM   H15B11160   6.565   3.905  10.989  0.2047  3.3526  2.7889
  109OSM   H15C11161   6.715   3.918  11.084  1.3481  0.0202 -1.3571
  109OSM    C1411162   6.866   3.759  10.952 -0.1654  0.2044  0.3412
  109OSM   H14A11163   6.843   3.658  10.981 -0.2641 -0.2146 -1.0929
  109OSM   H14B11164   6.922   3.816  11.024  0.4441  2.7132 -1.9677
  109OSM   H14C11165   6.932   3.740  10.868  3.1468 -0.0803  2.8054
  109OSM    C1311166   6.664   3.747  10.817 -0.3068  0.3241 -0.3089
  109OSM   H13A11167   6.616   3.665  10.868  0.7100 -1.1849 -1.6617
  109OSM   H13B11168   6.711   3.706  10.729  0.1367  1.7477 -0.7620
  109OSM   H13C11169   6.588   3.808  10.772  0.4801 -0.6772 -3.2450
  109OSM    C1211170   6.788   3.966  10.833  0.2723 -0.3552  0.0460
  109OSM   H12A11171   6.861   4.018  10.894  0.1506  0.1275 -0.2172
  109OSM   H12B11172   6.700   4.028  10.837 -0.7994 -1.8933  2.1500
  109OSM    C1111173   6.860   3.957  10.697 -0.1248 -0.0201  0.3551
  109OSM   H11A11174   6.886   4.060  10.662 -0.3591  0.3539  1.2455
  109OSM   H11B11175   6.791   3.920  10.618  0.8527 -0.5723 -0.2458
  109OSM      P11176   7.114   3.945  10.714 -0.0277 -0.2356 -0.2917
  109OSM    O1311177   7.101   4.071  10.795 -0.2768 -0.2141  0.3588
  109OSM    O1411178   7.213   3.855  10.775  0.1972 -0.1039 -0.3196
  109OSM    O1111179   7.142   3.971  10.559  0.4138 -0.0852 -0.1819
  109OSM    O1211180   6.979   3.874  10.707  0.1908 -0.0719  0.4132
  109OSM    C1S11181   7.214   3.872  10.480 -0.5041  0.1115  0.3369
  109OSM    H1S11182   7.249   3.783  10.537 -0.4633 -0.1805 -0.1399
  109OSM    H1T11183   7.306   3.917  10.436 -1.3973 -0.1481 -1.9518
  109OSM     NF11184   7.246   3.745  10.268  0.4715  0.0814 -0.5381
  109OSM    HNF11185   7.295   3.789  10.193 -0.0239  0.1400 -0.8340
  109OSM    C2S11186   7.149   3.822  10.342  0.0312 -0.4541 -0.7067
  109OSM    H2S11187   7.052   3.770  10.358 -1.2822  1.2926 -2.5181
  109OSM    C3S11188   7.091   3.944  10.263 -0.3828 -0.7342  0.0341
  109OSM    H3S11189   7.173   4.017  10.250 -0.4617 -0.7117 -0.3475
  109OSM     O311190   6.994   4.021  10.335  0.1165 -0.1471  0.2699
  109OSM    HO311191   7.015   3.985  10.422 -0.5484 -1.8787 -0.2482
  109OSM    C4S11192   7.043   3.905  10.130 -0.3882  0.5585 -0.3797
  109OSM    H4S11193   7.118   3.930  10.054 -0.8763  0.8710 -0.7624
  109OSM    C5S11194   6.925   3.849  10.085  0.2356 -0.1400  0.3232
  109OSM    H5S11195   6.850   3.817  10.159  0.9267 -0.1933  1.0079
  109OSM    C6S11196   6.884   3.815   9.945  0.0383  0.4835  0.1085
  109OSM    H6S11197   6.787   3.865   9.930 -0.7316 -1.4016 -1.7366
  109OSM    H6T11198   6.869   3.705   9.945 -1.4493  0.6573  1.3397
  109OSM    C7S11199   6.971   3.858   9.823 -0.1219 -0.1253 -0.0583
  109OSM    H7S11200   7.069   3.808   9.834 -0.9320 -1.4062  2.0164
  109OSM    H7T11201   6.971   3.968   9.809 -2.1089 -0.2587 -1.5292
  109OSM    C8S11202   6.911   3.803   9.689 -0.5724 -0.0005 -0.2496
  109OSM    H8S11203   6.810   3.848   9.680  0.2733  2.6332  1.9895
  109OSM    H8T11204   6.903   3.692   9.693  0.1113 -0.0355  0.3150
  109OSM    C9S11205   6.995   3.857   9.575 -0.3181  0.4883  0.0214
  109OSM    H9S11206   7.100   3.831   9.597 -0.9404 -0.0301  2.7737
  109OSM    H9T11207   7.000   3.968   9.573  0.8536  0.4502  0.3968
  109OSM   C10S11208   6.945   3.805   9.439 -0.0535 -0.8016  0.1016
  109OSM   H10S11209   6.846   3.850   9.419 -0.2251  0.1129  2.7356
  109OSM   H10T11210   6.929   3.695   9.438  1.1012 -0.9756 -0.5795
  109OSM   C11S11211   7.049   3.848   9.336  0.2887  0.5625  0.0216
  109OSM   H11S11212   7.129   3.771   9.338  2.0739  2.2434 -1.9669
  109OSM   H11T11213   7.086   3.950   9.360  1.5914 -0.0936  0.9110
  109OSM   C12S11214   6.993   3.844   9.196 -0.1317  0.4133  0.1144
  109OSM   H12S11215   6.898   3.898   9.180 -0.7667 -0.7884 -0.2793
  109OSM   H12T11216   6.959   3.742   9.167  1.7567 -0.4798  0.8826
  109OSM   C13S11217   7.105   3.880   9.095  0.2776 -0.1054 -0.2489
  109OSM   H13S11218   7.183   3.803   9.076  1.5462  1.3250 -1.0199
  109OSM   H13T11219   7.166   3.969   9.122 -0.1376  0.6335 -1.6296
  109OSM   C14S11220   7.052   3.911   8.949  0.3579  0.0797  0.9685
  109OSM   H14S11221   6.987   4.000   8.957 -0.1439 -0.1977  0.1802
  109OSM   H14T11222   6.985   3.828   8.917  2.5724 -1.2743 -0.4733
  109OSM   C15S11223   7.176   3.948   8.863  0.1302  0.2560 -0.9719
  109OSM   H15S11224   7.250   3.866   8.866 -2.2317 -1.9685  0.9315
  109OSM   H15T11225   7.232   4.032   8.909  1.3381 -1.3305  0.5843
  109OSM   C16S11226   7.132   3.974   8.719  0.1720 -0.3983 -0.1060
  109OSM   H16S11227   7.058   4.057   8.716  1.4616  0.7829  0.2035
  109OSM   H16T11228   7.095   3.879   8.674  2.6774 -1.5850  0.2183
  109OSM   C17S11229   7.254   4.018   8.635  0.8503  0.6451 -0.3796
  109OSM   H17S11230   7.218   4.063   8.540  2.6629  2.0863 -0.4370
  109OSM   H17T11231   7.314   3.930   8.602  0.2917  0.0134  0.2748
  109OSM   C18S11232   7.355   4.110   8.696 -0.2098  0.1677 -0.4313
  109OSM   H18S11233   7.303   4.201   8.735 -0.5456 -0.6322  1.1004
  109OSM   H18T11234   7.434   4.136   8.623  1.4231 -2.6246  0.1973
  109OSM   H18U11235   7.418   4.075   8.781 -1.2442 -0.1572  0.2332
  109OSM    C1F11236   7.299   3.630  10.317  0.2369 -0.6105 -0.1317
  109OSM     OF11237   7.244   3.562  10.406 -0.0448  0.0491  0.0231
  109OSM    C2F11238   7.423   3.586  10.242 -0.3855  0.1036  0.4303
  109OSM    H2F11239   7.504   3.658  10.269 -0.3274  0.5389 -0.8153
  109OSM    H2G11240   7.414   3.602  10.132  0.7135  0.6906  0.4038
  109OSM    C3F11241   7.465   3.443  10.284 -0.4438  0.4436  0.3619
  109OSM    H3F11242   7.376   3.378  10.303 -0.8334  0.0525 -2.4249
  109OSM    H3G11243   7.505   3.448  10.388 -0.5910 -2.9255  0.7095
  109OSM    C4F11244   7.562   3.374  10.189  0.4333  0.1617 -0.6631
  109OSM    H4F11245   7.512   3.352  10.092 -2.5100 -0.2871  0.8469
  109OSM    H4G11246   7.591   3.275  10.230  1.4318 -0.3222 -2.4043
  109OSM    C5F11247   7.696   3.452  10.181  0.4944  0.0506  0.4552
  109OSM    H5F11248   7.751   3.424  10.274 -0.9375  0.1417  1.3737
  109OSM    H5G11249   7.678   3.561  10.179  1.5266  0.2178 -1.8572
  109OSM    C6F11250   7.771   3.411  10.057 -0.7534  0.8440 -0.6872
  109OSM    H6F11251   7.871   3.457  10.070  0.3112 -1.9002  2.3222
  109OSM    H6G11252   7.717   3.445   9.967 -2.4615 -1.0208 -0.4488
  109OSM    C7F11253   7.780   3.259  10.046 -0.6719  0.0885  0.5971
  109OSM    H7F11254   7.689   3.207  10.010  1.5325 -2.7673 -1.4384
  109OSM    H7G11255   7.794   3.218  10.148  0.2676 -0.5822  0.2217
  109OSM    C8F11256   7.903   3.216   9.955 -0.4169  0.4990  0.7034
  109OSM    H8F11257   7.998   3.250  10.000 -0.3601 -2.0861  2.8490
  109OSM    H8G11258   7.895   3.268   9.857 -2.2356 -1.4624 -0.2886
  109OSM    C9F11259   7.895   3.069   9.917 -0.7967 -0.0735 -0.8406
  109OSM    H9F11260   7.889   3.011  10.010 -0.1317  1.4314  0.1842
  109OSM   C10F11261   7.908   3.011   9.797 -0.5391 -0.2816 -0.4557
  109OSM   H10F11262   7.892   2.903   9.786  0.6447 -0.8033  2.1577
  109OSM   C11F11263   7.932   3.096   9.678 -0.2497 -0.1804  0.3404
  109OSM   H11F11264   8.019   3.166   9.685 -1.9951  2.6893 -3.3977
  109OSM   H11G11265   7.847   3.154   9.636  0.9809  0.5348 -1.2815
  109OSM   C12F11266   7.973   3.002   9.558 -0.9829 -0.5752 -0.1543
  109OSM   H12F11267   7.903   2.916   9.557  1.0882 -2.3363  0.2641
  109OSM   H12G11268   8.070   2.950   9.574 -0.8935 -0.6530 -0.9182
  109OSM   C13F11269   7.970   3.068   9.420  0.5913 -0.5104  0.8222
  109OSM   H13F11270   8.027   3.164   9.414 -0.7644  0.3350  0.9385
  109OSM   H13G11271   7.863   3.093   9.402  1.2693  1.5910 -0.6487
  109OSM   C14F11272   8.042   2.983   9.315  0.3576  0.0691  0.1048
  109OSM   H14F11273   7.996   2.882   9.320  2.2547 -0.8100  0.7265
  109OSM   H14G11274   8.150   2.977   9.339  0.7151  0.8545 -1.2140
  109OSM   C15F11275   8.020   3.032   9.174  0.1592 -0.5974 -0.5127
  109OSM   H15F11276   8.062   3.134   9.187 -1.8428 -0.0195  2.6212
  109OSM   H15G11277   7.912   3.034   9.146 -0.2439 -0.5965  0.9517
  109OSM   C16F11278   8.099   2.964   9.070  0.3040 -0.3509  0.1143
  109OSM   H16F11279   8.061   2.864   9.043 -0.7827  0.3378 -0.9636
  109OSM   H16G11280   8.200   2.945   9.114 -0.7401 -0.0511  2.8036
  109OSM   C17F11281   8.126   3.052   8.947  0.2783 -0.2598 -0.2349
  109OSM   H17F11282   8.165   3.150   8.982 -0.3178 -0.7939  2.0557
  109OSM   H17G11283   8.031   3.063   8.892 -0.2178 -4.0248 -0.4339
  109OSM   C18F11284   8.229   2.992   8.850  0.0518  0.8392 -0.6966
  109OSM   H18F11285   8.194   2.888   8.834 -0.6224  1.1360 -1.2470
  109OSM   H18G11286   8.331   2.986   8.891 -0.3210  1.0584  0.2887
  109OSM   H18H11287   8.229   3.037   8.748 -1.4910 -0.5744 -1.3621
  110OSM      N11288   6.529   1.242  10.961 -0.8434  0.2833  0.0519
  110OSM    C1511289   6.487   1.144  10.854  0.0896 -0.4241 -0.4960
  110OSM   H15A11290   6.379   1.143  10.858 -0.0023  1.8725 -1.2161
  110OSM   H15B11291   6.521   1.044  10.875 -1.2104 -0.6875  0.5291
  110OSM   H15C11292   6.517   1.169  10.754  0.1513 -0.4393 -0.4815
  110OSM    C1411293   6.467   1.376  10.950  0.0531 -0.6239  0.0067
  110OSM   H14A11294   6.486   1.420  10.853 -2.5227 -0.0319 -0.3139
  110OSM   H14B11295   6.519   1.440  11.020  0.3315  1.5437 -2.0638
  110OSM   H14C11296   6.359   1.379  10.963  0.0414  2.5028  0.0144
  110OSM    C1311297   6.473   1.176  11.086  0.0937 -0.0175 -0.2416
  110OSM   H13A11298   6.366   1.175  11.097  0.1045 -1.7008  0.0783
  110OSM   H13B11299   6.514   1.222  11.175  1.9205  1.1896 -1.6343
  110OSM   H13C11300   6.509   1.074  11.088 -0.6608 -0.3186 -1.4798
  110OSM    C1211301   6.679   1.253  10.955  0.6363 -0.3870 -0.4253
  110OSM   H12A11302   6.721   1.312  11.036 -0.0455 -0.3075 -0.1272
  110OSM   H12B11303   6.699   1.307  10.863  0.1078  0.1003 -0.2621
  110OSM    C1111304   6.756   1.123  10.930 -0.8192 -0.0117  0.0076
  110OSM   H11A11305   6.713   1.043  10.994  2.5235  0.4193  3.1061
  110OSM   H11B11306   6.857   1.147  10.970 -1.1220 -0.1758  0.8832
  110OSM      P11307   6.857   0.959  10.745  0.2705 -0.3233 -0.3544
  110OSM    O1311308   6.996   0.992  10.785  0.5877  0.5598  0.5077
  110OSM    O1411309   6.808   0.831  10.791  0.0411  0.3847 -0.3464
  110OSM    O1111310   6.842   0.977  10.589 -0.2726 -0.3247 -0.6433
  110OSM    O1211311   6.759   1.075  10.796  0.1052 -0.2440 -0.2176
  110OSM    C1S11312   6.743   0.895  10.520 -1.1081 -0.0461  0.1609
  110OSM    H1S11313   6.645   0.943  10.541 -0.4533  1.3003  0.2659
  110OSM    H1T11314   6.737   0.789  10.553  0.4222 -0.8719 -1.9990
  110OSM     NF11315   6.670   0.807  10.295  0.3748  0.2065 -0.1262
  110OSM    HNF11316   6.693   0.712  10.275 -1.6629 -0.1285 -1.1443
  110OSM    C2S11317   6.767   0.894  10.367  0.0560 -1.3129  0.5056
  110OSM    H2S11318   6.742   0.992  10.322 -2.5580 -1.6486  1.0770
  110OSM    C3S11319   6.914   0.842  10.332  0.8718 -0.2144 -0.0140
  110OSM    H3S11320   6.926   0.737  10.367  0.3520 -0.1023  0.5211
  110OSM     O311321   7.012   0.917  10.389  0.0762  0.4020 -0.2907
  110OSM    HO311322   6.962   0.973  10.450  0.5797 -1.5651  2.0813
  110OSM    C4S11323   6.921   0.855  10.184  0.2407  0.2836 -0.0370
  110OSM    H4S11324   6.913   0.754  10.140  0.3370  0.7536 -1.1850
  110OSM    C5S11325   6.938   0.957  10.100 -0.3644 -0.2056  1.1645
  110OSM    H5S11326   6.942   1.056  10.149 -0.4373  1.1463 -1.4178
  110OSM    C6S11327   6.943   0.959   9.950  0.0939  0.4659 -0.5246
  110OSM    H6S11328   7.047   0.982   9.918  0.4030 -1.2202 -0.8475
  110OSM    H6T11329   6.878   1.039   9.910 -1.5075  0.3405  1.6355
  110OSM    C7S11330   6.912   0.827   9.873 -0.4944  0.2297  0.2209
  110OSM    H7S11331   6.811   0.799   9.911 -0.9799  2.0330  0.3931
  110OSM    H7T11332   6.988   0.756   9.911 -0.6446 -0.0916 -0.0797
  110OSM    C8S11333   6.933   0.833   9.716  0.3326  0.1838  0.8319
  110OSM    H8S11334   7.037   0.865   9.696  0.1410 -0.4394 -1.4875
  110OSM    H8T11335   6.870   0.910   9.667  1.4809  0.8944  0.4346
  110OSM    C9S11336   6.909   0.703   9.633 -0.4634 -0.4888  0.4152
  110OSM    H9S11337   6.803   0.679   9.656 -0.5032  0.0251  0.7773
  110OSM    H9T11338   6.965   0.615   9.672  0.2153 -0.7364 -1.0442
  110OSM   C10S11339   6.928   0.724   9.481  0.0229 -0.3271  0.1621
  110OSM   H10S11340   7.030   0.763   9.463  0.0432  0.7409  2.3322
  110OSM   H10T11341   6.856   0.797   9.437 -1.4863 -1.7577  0.1556
  110OSM   C11S11342   6.894   0.606   9.397  0.0180 -0.6751 -0.2674
  110OSM   H11S11343   6.790   0.570   9.411 -0.1350  0.4801  1.8813
  110OSM   H11T11344   6.961   0.530   9.443 -1.3432 -0.3632  2.3915
  110OSM   C12S11345   6.924   0.637   9.243  0.0756 -0.0723 -0.0796
  110OSM   H12S11346   7.030   0.670   9.239  0.6251 -1.6265  0.5527
  110OSM   H12T11347   6.865   0.721   9.201  1.1390  1.3490  1.1506
  110OSM   C13S11348   6.893   0.515   9.157 -1.5824  0.1868  0.4687
  110OSM   H13S11349   6.782   0.503   9.166 -1.4629  0.0488  2.0642
  110OSM   H13T11350   6.940   0.420   9.190 -0.2760  0.2301 -1.1798
  110OSM   C14S11351   6.934   0.524   9.012 -0.3130  0.2660 -0.0348
  110OSM   H14S11352   6.878   0.613   8.976  0.1006  0.5606  0.0457
  110OSM   H14T11353   6.906   0.431   8.958 -0.4125  0.5632 -0.5075
  110OSM   C15S11354   7.083   0.549   8.989  1.0535 -0.2062  0.3909
  110OSM   H15S11355   7.133   0.498   9.074  1.8018  0.9444  0.6747
  110OSM   H15T11356   7.092   0.660   8.996  0.4498 -0.2070  1.2435
  110OSM   C16S11357   7.128   0.503   8.849 -0.0923  0.3562  0.5123
  110OSM   H16S11358   7.084   0.551   8.758  0.2936 -0.0127  0.1249
  110OSM   H16T11359   7.115   0.393   8.847  0.8843  0.1796  2.1619
  110OSM   C17S11360   7.278   0.530   8.828 -0.6431 -0.3770  0.8835
  110OSM   H17S11361   7.272   0.641   8.820 -2.9498 -0.5663 -1.3453
  110OSM   H17T11362   7.303   0.494   8.727  0.5978 -3.6236  2.2175
  110OSM   C18S11363   7.373   0.468   8.931 -0.3507 -0.0119  0.3316
  110OSM   H18S11364   7.410   0.541   9.006 -1.8374 -1.0716  2.1895
  110OSM   H18T11365   7.459   0.430   8.872 -0.1354  0.2260  0.4884
  110OSM   H18U11366   7.326   0.381   8.981  0.2269 -0.9170 -0.6582
  110OSM    C1F11367   6.536   0.831  10.302  0.2156 -0.2183 -0.2348
  110OSM     OF11368   6.502   0.946  10.339  0.7380  0.0435 -0.4487
  110OSM    C2F11369   6.440   0.716  10.279 -0.0132 -0.2305 -0.4251
  110OSM    H2F11370   6.363   0.719  10.359 -3.3018  0.2087 -3.3315
  110OSM    H2G11371   6.496   0.620  10.278 -0.3662 -0.4520  0.2201
  110OSM    C3F11372   6.367   0.727  10.142  0.0699  0.2707  0.1500
  110OSM    H3F11373   6.431   0.736  10.051 -1.9795 -1.6719 -1.5808
  110OSM    H3G11374   6.320   0.827  10.154  0.9870  0.6024  1.1878
  110OSM    C4F11375   6.269   0.615  10.120  0.7415 -0.1961 -0.2434
  110OSM    H4F11376   6.198   0.623  10.205  0.0040 -1.7990 -0.6554
  110OSM    H4G11377   6.321   0.519  10.138 -0.7085 -1.1244 -0.7729
  110OSM    C5F11378   6.193   0.615   9.984 -0.1562  0.0508 -0.0795
  110OSM    H5F11379   6.124   0.702   9.979  0.2775  0.3452 -1.5730
  110OSM    H5G11380   6.128   0.525   9.978 -1.6143  1.0243  0.7409
  110OSM    C6F11381   6.287   0.633   9.862  0.4101 -0.2430  0.3698
  110OSM    H6F11382   6.354   0.544   9.851 -0.5791 -1.0892  1.0312
  110OSM    H6G11383   6.365   0.712   9.872  0.2669  0.0314 -0.5814
  110OSM    C7F11384   6.214   0.648   9.727 -0.5354  0.5309  0.4180
  110OSM    H7F11385   6.132   0.722   9.740  0.4904  1.7091  0.3092
  110OSM    H7G11386   6.183   0.545   9.700  1.2857 -0.9752  3.4780
  110OSM    C8F11387   6.302   0.704   9.617 -0.2875 -0.6720 -0.0318
  110OSM    H8F11388   6.349   0.796   9.660 -2.3695  0.1440  0.6074
  110OSM    H8G11389   6.238   0.731   9.530  1.1369  1.0059 -0.6398
  110OSM    C9F11390   6.406   0.603   9.578 -0.1396  0.2906 -0.6769
  110OSM    H9F11391   6.456   0.557   9.664 -1.6474 -0.4969 -0.1826
  110OSM   C10F11392   6.430   0.556   9.455  0.4815  0.8011 -0.1119
  110OSM   H10F11393   6.506   0.477   9.445 -1.8597 -1.7860  1.4468
  110OSM   C11F11394   6.357   0.603   9.328 -0.1568  0.7413  0.4457
  110OSM   H11F11395   6.417   0.684   9.281  0.4850 -0.0813 -0.2038
  110OSM   H11G11396   6.259   0.648   9.356 -1.2670 -1.8376  1.0390
  110OSM   C12F11397   6.337   0.506   9.225 -0.3134 -0.3681  0.0804
  110OSM   H12F11398   6.266   0.536   9.145 -0.3507 -1.2143 -0.2191
  110OSM   H12G11399   6.295   0.409   9.259 -0.9208 -0.9738 -2.1803
  110OSM   C13F11400   6.466   0.469   9.151  0.0852 -0.6507 -0.7008
  110OSM   H13F11401   6.521   0.399   9.217 -1.6320 -1.0887  0.3438
  110OSM   H13G11402   6.522   0.564   9.147 -1.8109  0.6330  1.2014
  110OSM   C14F11403   6.445   0.404   9.011  0.5370  0.4009 -0.1500
  110OSM   H14F11404   6.388   0.486   8.961 -0.3477  1.1472  1.9696
  110OSM   H14G11405   6.395   0.306   9.022  0.5506  0.2544 -1.2897
  110OSM   C15F11406   6.579   0.377   8.956  0.6680 -0.4011  0.1548
  110OSM   H15F11407   6.636   0.331   9.039  1.0693  1.7944  1.1877
  110OSM   H15G11408   6.637   0.471   8.943  0.7479 -0.1912  1.8105
  110OSM   C16F11409   6.569   0.290   8.831  0.3596 -0.0696 -0.1974
  110OSM   H16F11410   6.532   0.346   8.743  0.2940 -0.5488 -0.4804
  110OSM   H16G11411   6.508   0.198   8.840  0.1628  0.1273  0.4904
  110OSM   C17F11412   6.705   0.234   8.790 -0.4701  0.8267  0.2575
  110OSM   H17F11413   6.776   0.317   8.766 -0.7641  1.5290  1.6928
  110OSM   H17G11414   6.678   0.178   8.698  0.0763  3.0312 -1.3201
  110OSM   C18F11415   6.766   0.138   8.895 -0.6068 -0.6830  0.6463
  110OSM   H18F11416   6.859   0.088   8.858 -0.3293 -1.9161  2.8451
  110OSM   H18G11417   6.696   0.057   8.925 -1.9985  0.3037  0.1546
  110OSM   H18H11418   6.791   0.201   8.983  1.5212  0.7993 -0.9041
  111OSM      N11419   0.863   6.308  10.641  0.7220 -0.1414  0.3515
  111OSM    C1511420   0.923   6.173  10.663 -0.8140 -0.4488  0.5557
  111OSM   H15A11421   0.859   6.087  10.658 -1.2957 -0.0778  0.2255
  111OSM   H15B11422   0.976   6.175  10.757  0.9072 -2.1613 -0.3120
  111OSM   H15C11423   0.999   6.153  10.588  0.0624  0.4129  1.1799
  111OSM    C1411424   0.759   6.320  10.749 -0.1732 -0.7596 -0.1449
  111OSM   H14A11425   0.800   6.316  10.849 -0.5615  0.0709  0.0529
  111OSM   H14B11426   0.680   6.247  10.737 -1.7883  0.8309  0.3155
  111OSM   H14C11427   0.710   6.416  10.748  0.2876 -0.4861  1.5154
  111OSM    C1311428   0.969   6.409  10.667 -0.1015 -0.0607  0.0735
  111OSM   H13A11429   1.014   6.384  10.762  1.9025 -1.2730 -1.1341
  111OSM   H13B11430   0.929   6.509  10.671 -0.5660 -0.2382 -0.0079
  111OSM   H13C11431   1.045   6.395  10.593  0.5638  1.2712  0.4831
  111OSM    C1211432   0.802   6.333  10.505 -0.0377 -0.1884 -0.4718
  111OSM   H12A11433   0.873   6.360  10.429  0.0673  0.4701 -0.1453
  111OSM   H12B11434   0.737   6.418  10.518 -0.1601 -0.5831  2.2035
  111OSM    C1111435   0.720   6.220  10.446 -0.1241 -0.1997 -0.3020
  111OSM   H11A11436   0.784   6.131  10.428 -0.5164 -0.6450  0.4682
  111OSM   H11B11437   0.690   6.251  10.343 -0.3185 -0.9035 -0.4633
  111OSM      P11438   0.481   6.288  10.502  0.3069  0.4844 -0.0059
  111OSM    O1311439   0.364   6.222  10.567  0.3637 -0.6642 -0.1598
  111OSM    O1411440   0.527   6.418  10.551 -0.3126  0.1503 -0.0903
  111OSM    O1111441   0.452   6.289  10.352 -0.4049 -0.1729  1.0825
  111OSM    O1211442   0.603   6.184  10.524 -0.2458 -0.5370  1.0104
  111OSM    C1S11443   0.326   6.335  10.295  0.0980  0.7575  0.3432
  111OSM    H1S11444   0.323   6.446  10.290 -2.8769  0.8224  1.7301
  111OSM    H1T11445   0.240   6.321  10.363 -1.4873  0.3553 -1.6556
  111OSM     NF11446   0.159   6.335  10.116  0.7311  0.4170  0.1129
  111OSM    HNF11447   0.082   6.276  10.139  2.8110 -2.5664  0.0413
  111OSM    C2S11448   0.290   6.274  10.151  0.9885 -0.7201  0.2669
  111OSM    H2S11449   0.357   6.314  10.073 -1.4555  2.0339 -0.5930
  111OSM    C3S11450   0.302   6.121  10.154 -0.2119  0.1728  0.1921
  111OSM    H3S11451   0.248   6.083  10.243 -0.2869 -0.6728 -0.2070
  111OSM     O311452   0.441   6.087  10.169  0.8677  0.6512 -0.0084
  111OSM    HO311453   0.484   6.163  10.208  0.5163  0.7177  0.2538
  111OSM    C4S11454   0.246   6.069  10.025 -0.1690 -0.4554 -0.5183
  111OSM    H4S11455   0.163   5.998  10.039  0.9021 -1.5234  0.6834
  111OSM    C5S11456   0.296   6.091   9.900  0.6779 -0.4596 -0.7755
  111OSM    H5S11457   0.379   6.160   9.876 -1.4655  2.5501 -0.1799
  111OSM    C6S11458   0.238   6.024   9.784 -0.1737  0.3695  0.2344
  111OSM    H6S11459   0.194   6.105   9.722 -0.6437  1.7767  2.3428
  111OSM    H6T11460   0.154   5.955   9.808  1.0522 -1.3498 -0.2026
  111OSM    C7S11461   0.344   5.939   9.715 -0.5570 -0.2535 -0.7207
  111OSM    H7S11462   0.360   5.837   9.756 -0.3396  0.2710  0.5441
  111OSM    H7T11463   0.442   5.991   9.727 -0.9171  0.7767 -1.9761
  111OSM    C8S11464   0.311   5.924   9.570  0.5288  0.4345 -0.1155
  111OSM    H8S11465   0.282   6.022   9.527 -1.2939 -0.9767 -2.2824
  111OSM    H8T11466   0.215   5.873   9.549  1.2135 -1.1591  0.4308
  111OSM    C9S11467   0.432   5.861   9.500  0.4960 -0.0234 -0.3954
  111OSM    H9S11468   0.460   5.762   9.541 -2.1435  0.5941  3.4383
  111OSM    H9T11469   0.512   5.938   9.504  0.2526  0.3382 -1.8474
  111OSM   C10S11470   0.413   5.852   9.339 -0.5746  0.1762 -0.5562
  111OSM   H10S11471   0.368   5.950   9.310 -0.7755  0.4227  0.5229
  111OSM   H10T11472   0.355   5.758   9.326  0.8532 -0.9581  0.9362
  111OSM   C11S11473   0.546   5.832   9.267  0.1817 -0.1493  0.3617
  111OSM   H11S11474   0.588   5.730   9.284 -1.4991 -0.6790  1.5434
  111OSM   H11T11475   0.618   5.911   9.297 -0.5702  0.3028  1.0181
  111OSM   C12S11476   0.531   5.859   9.120 -0.0470 -0.1139  0.3054
  111OSM   H12S11477   0.469   5.950   9.109  1.0806  1.0608  2.9922
  111OSM   H12T11478   0.464   5.775   9.091 -1.6250  0.3274  2.4361
  111OSM   C13S11479   0.655   5.894   9.047 -0.3023 -0.0072  0.5663
  111OSM   H13S11480   0.727   5.813   9.074  1.0475  1.4745  1.6160
  111OSM   H13T11481   0.706   5.989   9.074  0.6731  0.4409 -2.4684
  111OSM   C14S11482   0.620   5.912   8.894 -0.2453  0.1896 -0.1849
  111OSM   H14S11483   0.553   5.997   8.870 -0.1220  0.2427 -0.3409
  111OSM   H14T11484   0.560   5.823   8.864  0.7871 -0.3290 -0.7607
  111OSM   C15S11485   0.738   5.930   8.793 -0.3706  0.5713  0.1180
  111OSM   H15S11486   0.802   5.841   8.809 -3.0073 -1.4142  0.4566
  111OSM   H15T11487   0.791   6.025   8.815 -0.1688  0.4890 -0.0146
  111OSM   C16S11488   0.700   5.916   8.646 -0.1239 -0.2459  0.2215
  111OSM   H16S11489   0.618   5.986   8.620 -0.3682 -0.8328 -0.6156
  111OSM   H16T11490   0.662   5.815   8.618 -0.0315  0.1891 -1.6190
  111OSM   C17S11491   0.822   5.952   8.556  0.0446  0.2919 -0.8360
  111OSM   H17S11492   0.867   6.044   8.598  2.1466 -1.3253  0.7176
  111OSM   H17T11493   0.784   5.961   8.452  0.8897 -1.9089 -1.4134
  111OSM   C18S11494   0.919   5.842   8.549 -0.3393  0.3092 -0.1256
  111OSM   H18S11495   0.980   5.854   8.457  0.4642 -0.3097  0.3102
  111OSM   H18T11496   0.874   5.741   8.535 -0.6187  0.4845 -0.5292
  111OSM   H18U11497   0.989   5.844   8.635 -2.4899  1.0096  1.7088
  111OSM    C1F11498   0.148   6.471  10.082  0.1942 -0.1284  0.1867
  111OSM     OF11499   0.249   6.544  10.086  0.1993 -0.2305  0.4294
  111OSM    C2F11500   0.016   6.532  10.037 -0.3343 -0.6652  0.0174
  111OSM    H2F11501  -0.038   6.555  10.131 -0.7664  1.0171 -0.5975
  111OSM    H2G11502  -0.043   6.456   9.982 -2.9513 -0.6468  2.5432
  111OSM    C3F11503   0.043   6.656   9.947  0.7308  0.1376 -0.3109
  111OSM    H3F11504   0.148   6.671   9.913  0.5245 -0.3402 -1.1905
  111OSM    H3G11505   0.020   6.737  10.019 -0.2860  2.0177 -2.6096
  111OSM    C4F11506  -0.045   6.671   9.827  0.3673 -0.8564 -0.6084
  111OSM    H4F11507  -0.020   6.773   9.793 -0.8619  0.0123  0.9629
  111OSM    H4G11508  -0.153   6.668   9.856  0.5864  1.0342  0.5888
  111OSM    C5F11509  -0.000   6.576   9.718 -0.0288  0.1770  0.1481
  111OSM    H5F11510  -0.024   6.476   9.762 -1.4367  0.8143  0.9229
  111OSM    H5G11511   0.108   6.586   9.696  0.0708 -0.2650  0.4285
  111OSM    C6F11512  -0.094   6.581   9.599  0.3059  0.5740  0.5233
  111OSM    H6F11513  -0.091   6.687   9.564  1.9664  0.4132  0.0956
  111OSM    H6G11514  -0.201   6.565   9.623 -0.3707 -0.0204 -2.4343
  111OSM    C7F11515  -0.065   6.495   9.476 -0.1749 -0.0217 -0.0246
  111OSM    H7F11516  -0.062   6.386   9.497  1.9315  0.0524  0.2982
  111OSM    H7G11517   0.040   6.523   9.453  0.4062 -1.9526  0.0755
  111OSM    C8F11518  -0.160   6.539   9.362 -0.1139  0.3199 -0.5267
  111OSM    H8F11519  -0.261   6.561   9.404  0.3092  1.4839 -0.0994
  111OSM    H8G11520  -0.182   6.455   9.292 -0.5082  0.7111 -0.8779
  111OSM    C9F11521  -0.116   6.663   9.288 -0.5198  0.4026 -0.0870
  111OSM    H9F11522  -0.113   6.752   9.353  2.5983  1.2280 -1.1761
  111OSM   C10F11523  -0.088   6.678   9.160 -0.5632  0.3568 -0.1645
  111OSM   H10F11524  -0.044   6.770   9.120 -0.1368  0.1176 -0.2575
  111OSM   C11F11525  -0.093   6.574   9.052  0.2403 -0.0937  0.6152
  111OSM   H11F11526  -0.082   6.476   9.102 -2.2170 -0.1514  1.1772
  111OSM   H11G11527  -0.018   6.591   8.972 -0.2763 -0.7120 -0.0160
  111OSM   C12F11528  -0.228   6.592   8.986 -0.1485  0.7027 -0.0446
  111OSM   H12F11529  -0.255   6.699   8.973 -1.6746  0.3545  0.1467
  111OSM   H12G11530  -0.304   6.557   9.059  1.8442 -0.1159  1.7617
  111OSM   C13F11531  -0.242   6.515   8.860  0.0546 -0.5863 -0.2915
  111OSM   H13F11532  -0.211   6.409   8.872  1.3227 -0.3478 -1.1995
  111OSM   H13G11533  -0.174   6.558   8.783  0.6085 -2.0958 -0.6732
  111OSM   C14F11534  -0.384   6.530   8.791  0.1932  0.3465 -0.7015
  111OSM   H14F11535  -0.419   6.632   8.814 -2.8554 -1.2169  2.3536
  111OSM   H14G11536  -0.458   6.472   8.850  2.1444 -0.8691  0.6632
  111OSM   C15F11537  -0.388   6.486   8.651 -0.3881  0.0549 -0.4763
  111OSM   H15F11538  -0.353   6.381   8.647 -0.0647  0.0984  0.7317
  111OSM   H15G11539  -0.306   6.531   8.592  0.1796 -0.7105 -0.2833
  111OSM   C16F11540  -0.519   6.512   8.574 -1.1039  0.1511  0.5512
  111OSM   H16F11541  -0.546   6.620   8.583  0.3618  0.5245  0.7815
  111OSM   H16G11542  -0.595   6.461   8.636  0.5878 -2.2169  0.8089
  111OSM   C17F11543  -0.534   6.455   8.432  0.6762  0.5157  0.2194
  111OSM   H17F11544  -0.531   6.344   8.431 -1.2350  0.4044 -2.4293
  111OSM   H17G11545  -0.449   6.472   8.362  1.0666 -1.6561  0.1056
  111OSM   C18F11546  -0.666   6.488   8.355 -0.7031  0.5465 -0.4508
  111OSM   H18F11547  -0.742   6.507   8.434 -0.9334 -2.2208  0.1097
  111OSM   H18G11548  -0.694   6.408   8.283  0.3464  1.7385 -2.2541
  111OSM   H18H11549  -0.657   6.581   8.295 -1.4906  1.9020  1.4256
  112OSM      N11550   6.083   4.247  10.837 -0.7375 -0.0930 -0.2572
  112OSM    C1511551   5.958   4.174  10.875  0.1512 -0.6954  0.0745
  112OSM   H15A11552   5.984   4.090  10.938 -0.6634 -0.3134  0.9397
  112OSM   H15B11553   5.907   4.129  10.791  1.4125 -0.6305 -0.7586
  112OSM   H15C11554   5.892   4.239  10.930  0.4174  0.1204 -0.5482
  112OSM    C1411555   6.041   4.378  10.775  0.5126 -0.6176 -0.2103
  112OSM   H14A11556   6.131   4.434  10.754  0.0615 -0.5774 -2.2987
  112OSM   H14B11557   5.983   4.432  10.848  0.0675 -2.8065  1.1392
  112OSM   H14C11558   5.980   4.365  10.687  0.8686  1.3802 -0.8087
  112OSM    C1311559   6.161   4.277  10.963  0.5271 -0.2996  0.8032
  112OSM   H13A11560   6.255   4.327  10.947  2.1646 -2.8970  1.6935
  112OSM   H13B11561   6.192   4.181  11.002  0.0760 -0.4749  0.7321
  112OSM   H13C11562   6.107   4.322  11.046  1.1425 -0.8765  1.5307
  112OSM    C1211563   6.179   4.191  10.741 -0.5096  0.4884  0.0572
  112OSM   H12A11564   6.234   4.110  10.786  1.1749  1.3474 -0.3927
  112OSM   H12B11565   6.254   4.264  10.712  1.1519 -0.4479  1.8261
  112OSM    C1111566   6.130   4.108  10.619 -0.0553  0.9907  0.5830
  112OSM   H11A11567   6.214   4.080  10.551 -1.1003  1.0620 -0.7749
  112OSM   H11B11568   6.061   4.170  10.558 -0.9910  0.1416  0.7527
  112OSM      P11569   6.097   3.861  10.715  0.3814  0.4216  0.2136
  112OSM    O1311570   6.180   3.895  10.829  0.1465 -0.2378  0.0366
  112OSM    O1411571   5.984   3.782  10.753  0.3385  0.2009  0.7181
  112OSM    O1111572   6.181   3.791  10.607  0.1412  0.0095 -0.2581
  112OSM    O1211573   6.052   3.994  10.642  0.1135 -0.1541 -0.2181
  112OSM    C1S11574   6.153   3.795  10.467  0.1258  0.5845  0.0467
  112OSM    H1S11575   6.095   3.886  10.441  2.9836  2.2238 -1.0826
  112OSM    H1T11576   6.085   3.709  10.450  1.6482 -0.6308 -0.1541
  112OSM     NF11577   6.226   3.749  10.246  0.0155  0.4344 -0.4289
  112OSM    HNF11578   6.226   3.652  10.222 -2.1360  0.5789 -1.2425
  112OSM    C2S11579   6.280   3.771  10.382 -0.3385 -0.4342 -0.8498
  112OSM    H2S11580   6.344   3.862  10.387 -0.1969 -0.5935  0.6868
  112OSM    C3S11581   6.370   3.657  10.437  0.6213  0.5164 -0.3906
  112OSM    H3S11582   6.317   3.559  10.435  2.2138 -0.4321  0.6394
  112OSM     O311583   6.409   3.688  10.569 -0.4019 -0.4143  0.6153
  112OSM    HO311584   6.343   3.748  10.604  1.2892  0.3197  2.7779
  112OSM    C4S11585   6.491   3.665  10.348  0.1580  0.3386  0.3390
  112OSM    H4S11586   6.527   3.764  10.314 -2.9040  1.2341 -0.6074
  112OSM    C5S11587   6.562   3.555  10.305 -0.3239 -0.3115  0.3315
  112OSM    H5S11588   6.533   3.452  10.333  1.1630 -0.7413  0.3734
  112OSM    C6S11589   6.681   3.570  10.216  0.3081 -0.4911 -0.5590
  112OSM    H6S11590   6.766   3.512  10.256 -0.3929 -1.8950 -1.0390
  112OSM    H6T11591   6.727   3.672  10.214 -0.5785 -0.0378  0.9086
  112OSM    C7S11592   6.640   3.519  10.076  0.1992  0.0496  0.4190
  112OSM    H7S11593   6.587   3.422  10.092 -1.6715  0.8343 -0.7052
  112OSM    H7T11594   6.723   3.509  10.004 -2.2249  2.2933 -3.0097
  112OSM    C8S11595   6.534   3.604   9.999  0.2881 -0.5059  0.0518
  112OSM    H8S11596   6.576   3.706   9.985  0.1929 -0.7049 -1.9578
  112OSM    H8T11597   6.452   3.620  10.072  0.8676 -2.1072  1.1055
  112OSM    C9S11598   6.486   3.539   9.871 -0.2715  0.0755 -1.1098
  112OSM    H9S11599   6.390   3.579   9.831 -0.2651  0.0019 -1.2005
  112OSM    H9T11600   6.478   3.429   9.887  1.3952  0.2826  1.7974
  112OSM   C10S11601   6.583   3.567   9.757  0.7718 -0.2598 -0.0401
  112OSM   H10S11602   6.665   3.492   9.759  0.4765 -0.5832 -0.0115
  112OSM   H10T11603   6.620   3.672   9.767 -0.8803  0.3918 -0.4935
  112OSM   C11S11604   6.517   3.562   9.616  0.3599 -0.0971  0.2421
  112OSM   H11S11605   6.427   3.626   9.617  0.6348  0.4313 -2.1989
  112OSM   H11T11606   6.482   3.460   9.590  3.4362 -1.5462  1.3497
  112OSM   C12S11607   6.610   3.620   9.511 -0.1053  0.5508  0.1661
  112OSM   H12S11608   6.697   3.552   9.500 -0.3960  0.4005 -1.4997
  112OSM   H12T11609   6.639   3.724   9.538 -0.7483  1.3155 -1.9047
  112OSM   C13S11610   6.534   3.646   9.382 -0.1485 -0.4378  0.3854
  112OSM   H13S11611   6.459   3.728   9.388  0.3749  0.2307 -1.6078
  112OSM   H13T11612   6.485   3.550   9.355  0.3745 -0.3688 -0.8505
  112OSM   C14S11613   6.620   3.676   9.256  0.0423 -0.0998 -0.5511
  112OSM   H14S11614   6.685   3.587   9.242 -2.0245 -1.7897  0.0086
  112OSM   H14T11615   6.678   3.769   9.277  0.6457 -0.8277  1.2559
  112OSM   C15S11616   6.533   3.695   9.133 -0.4943  0.1264  0.7265
  112OSM   H15S11617   6.481   3.791   9.149 -3.7278 -1.8798  3.7485
  112OSM   H15T11618   6.468   3.605   9.128 -0.8154  0.3109  1.4570
  112OSM   C16S11619   6.602   3.709   8.995  0.0497 -0.1053 -0.6726
  112OSM   H16S11620   6.667   3.621   8.976  1.0330  0.7553 -1.4212
  112OSM   H16T11621   6.675   3.793   8.997  1.0246 -0.9172 -1.2089
  112OSM   C17S11622   6.513   3.724   8.872 -0.5844  0.6987  0.4471
  112OSM   H17S11623   6.553   3.811   8.814  2.5071 -0.6510  0.3804
  112OSM   H17T11624   6.406   3.736   8.899 -0.8956  0.4929 -0.6384
  112OSM   C18S11625   6.514   3.604   8.782 -0.4304 -0.8884  0.1762
  112OSM   H18S11626   6.622   3.588   8.757 -0.7374  0.7119 -2.5159
  112OSM   H18T11627   6.454   3.616   8.690 -0.4179  0.6482  0.3539
  112OSM   H18U11628   6.476   3.516   8.839  1.0745 -0.9489  1.1546
  112OSM    C1F11629   6.156   3.841  10.170 -1.1481  0.7063 -0.4210
  112OSM     OF11630   6.148   3.954  10.213  0.5965  0.1491  0.2962
  112OSM    C2F11631   6.099   3.795  10.049  0.2098 -0.2489  0.3179
  112OSM    H2F11632   5.997   3.839  10.043  0.6208  0.8405  1.1128
  112OSM    H2G11633   6.093   3.684  10.044 -2.2633 -0.3273  2.5274
  112OSM    C3F11634   6.180   3.852   9.925  0.2175 -0.5078 -0.2009
  112OSM    H3F11635   6.282   3.808   9.926  0.5725  0.3118 -0.3323
  112OSM    H3G11636   6.197   3.961   9.935 -0.0309 -0.6121  1.6782
  112OSM    C4F11637   6.095   3.833   9.801 -0.4069 -0.9509  0.5550
  112OSM    H4F11638   6.139   3.908   9.731 -0.2880  0.5541  2.1583
  112OSM    H4G11639   5.989   3.868   9.803 -0.5430 -1.0190 -1.8053
  112OSM    C5F11640   6.106   3.693   9.744  0.1684  0.4094  0.2263
  112OSM    H5F11641   6.073   3.611   9.811 -0.9067 -0.1269 -0.9192
  112OSM    H5G11642   6.216   3.675   9.739  0.2409  1.0358 -0.6008
  112OSM    C6F11643   6.068   3.678   9.598  0.1973  0.2746  0.4589
  112OSM    H6F11644   5.964   3.715   9.584  0.6213  0.9559 -1.1141
  112OSM    H6G11645   6.069   3.568   9.581  2.3689  0.1293  1.2147
  112OSM    C7F11646   6.162   3.732   9.488  0.1690 -0.2986  1.5546
  112OSM    H7F11647   6.261   3.684   9.471  0.2444  0.3861 -0.1606
  112OSM    H7G11648   6.174   3.838   9.517 -0.2216 -0.3641  1.9644
  112OSM    C8F11649   6.084   3.734   9.347  0.1435 -0.0713 -0.3297
  112OSM    H8F11650   6.152   3.783   9.274  2.7190 -0.8273  1.4180
  112OSM    H8G11651   5.992   3.793   9.365  0.0504 -1.0741  3.2825
  112OSM    C9F11652   6.046   3.594   9.298 -0.3011  0.3394  0.4792
  112OSM    H9F11653   6.031   3.524   9.382  0.8099  0.5550  0.8786
  112OSM   C10F11654   6.018   3.561   9.170 -0.8000 -0.0641 -0.2878
  112OSM   H10F11655   5.995   3.456   9.148 -1.2082 -0.3329  1.2586
  112OSM   C11F11656   6.023   3.655   9.050  0.7812 -0.3494  0.3428
  112OSM   H11F11657   6.016   3.762   9.079  0.7624 -0.3004  0.1648
  112OSM   H11G11658   5.934   3.646   8.984  0.0634  0.8587  1.1143
  112OSM   C12F11659   6.150   3.639   8.966  0.3787 -0.1784 -0.4780
  112OSM   H12F11660   6.147   3.532   8.935  0.3568 -0.1733 -0.4924
  112OSM   H12G11661   6.238   3.662   9.031 -1.3348  2.5648  1.0422
  112OSM   C13F11662   6.151   3.727   8.838 -0.9102  0.2728 -0.4995
  112OSM   H13F11663   6.242   3.699   8.781 -2.1128 -2.2445 -1.3013
  112OSM   H13G11664   6.159   3.834   8.870  1.8807  0.1916 -0.6858
  112OSM   C14F11665   6.042   3.697   8.737 -0.3296 -0.0201 -0.3038
  112OSM   H14F11666   6.075   3.744   8.642 -0.1287  1.4462  0.4621
  112OSM   H14G11667   5.942   3.735   8.766 -0.5086 -0.3975 -0.4118
  112OSM   C15F11668   6.023   3.544   8.715 -0.3561 -0.0678  0.0175
  112OSM   H15F11669   5.952   3.513   8.794 -0.0414  0.9863  0.7383
  112OSM   H15G11670   6.119   3.491   8.734 -1.2715 -1.7924 -0.0358
  112OSM   C16F11671   5.971   3.510   8.575  0.4699  0.4845 -0.7400
  112OSM   H16F11672   6.056   3.455   8.530 -0.1929 -0.3756 -0.9737
  112OSM   H16G11673   5.944   3.597   8.512 -2.0748  2.1045  2.2871
  112OSM   C17F11674   5.838   3.420   8.578 -0.8988  0.1997  0.1142
  112OSM   H17F11675   5.874   3.325   8.624  4.7565  2.0568  0.3029
  112OSM   H17G11676   5.818   3.397   8.471 -1.0555 -1.9941  0.5716
  112OSM   C18F11677   5.703   3.482   8.633 -0.4294  0.4297 -0.1510
  112OSM   H18F11678   5.624   3.418   8.589  1.3466 -0.9103 -1.5314
  112OSM   H18G11679   5.694   3.590   8.609  0.3486  0.9807  1.8010
  112OSM   H18H11680   5.707   3.479   8.744 -3.2184 -1.5110 -0.0043
  113OSM      N11681   2.189   2.011  11.116 -0.8841  1.1333 -0.5333
  113OSM    C1511682   2.184   2.143  11.186 -0.1756 -0.0404  0.5228
  113OSM   H15A11683   2.089   2.194  11.181  0.0603  0.3196 -0.4180
  113OSM   H15B11684   2.259   2.206  11.141  0.8546 -0.2568  1.8815
  113OSM   H15C11685   2.221   2.128  11.286 -0.0197 -3.4002  0.0769
  113OSM    C1411686   2.331   1.959  11.122  0.0593  0.3166  0.6189
  113OSM   H14A11687   2.376   1.975  11.219 -0.1975  0.0090  0.7929
  113OSM   H14B11688   2.392   2.007  11.046  0.4897  0.1623  0.8591
  113OSM   H14C11689   2.341   1.851  11.115 -0.7999  0.2411  0.4747
  113OSM    C1311690   2.104   1.928  11.206  0.2397  0.2846 -0.1944
  113OSM   H13A11691   2.000   1.947  11.185  0.8642  1.3880 -2.6041
  113OSM   H13B11692   2.126   1.939  11.311 -1.8870  0.7110  0.2556
  113OSM   H13C11693   2.119   1.824  11.182  1.8445  0.8622 -1.9323
  113OSM    C1211694   2.130   2.023  10.977  0.3195 -0.0953  0.4296
  113OSM   H12A11695   2.177   2.110  10.934  1.0273 -1.1586 -1.0033
  113OSM   H12B11696   2.029   2.060  10.991  2.1023  5.7847  0.3035
  113OSM    C1111697   2.125   1.904  10.879  0.2337 -0.2380 -0.7606
  113OSM   H11A11698   2.063   1.922  10.789 -2.0583  1.7394  1.0693
  113OSM   H11B11699   2.061   1.833  10.935 -1.8029  2.5885  0.7264
  113OSM      P11700   2.290   1.717  10.816  0.0340 -0.3466  0.2494
  113OSM    O1311701   2.411   1.715  10.734  0.3647 -0.6556  0.7600
  113OSM    O1411702   2.285   1.622  10.928 -0.0417 -0.1015 -0.6714
  113OSM    O1111703   2.175   1.677  10.718 -1.0271  0.1817  0.5374
  113OSM    O1211704   2.259   1.864  10.853 -0.0454 -0.2592  0.4721
  113OSM    C1S11705   2.156   1.746  10.593  0.2810 -0.0051 -0.2710
  113OSM    H1S11706   2.250   1.796  10.561 -0.3617 -0.0198 -2.2879
  113OSM    H1T11707   2.076   1.822  10.607 -0.4038 -0.5271 -1.2165
  113OSM     NF11708   2.110   1.717  10.355  0.9196  0.2618  0.3818
  113OSM    HNF11709   2.022   1.751  10.322  0.5798 -0.4731  0.5041
  113OSM    C2S11710   2.113   1.647  10.489 -0.2918  0.3810 -0.2765
  113OSM    H2S11711   2.194   1.572  10.476  1.4294  1.7938  1.7128
  113OSM    C3S11712   1.977   1.585  10.520 -0.8379 -0.3729  0.4728
  113OSM    H3S11713   1.909   1.673  10.520  0.3330  0.6492 -2.1132
  113OSM     O311714   1.973   1.533  10.645  0.7355  0.6363 -0.5312
  113OSM    HO311715   2.047   1.571  10.692 -0.2159 -0.5300  2.1268
  113OSM    C4S11716   1.931   1.486  10.415  0.4476 -0.1358  0.2473
  113OSM    H4S11717   1.993   1.396  10.397 -1.2068 -0.8405 -2.5063
  113OSM    C5S11718   1.819   1.499  10.349 -0.3795 -0.1704  0.9153
  113OSM    H5S11719   1.754   1.585  10.373  0.1490 -0.1005  2.1825
  113OSM    C6S11720   1.777   1.412  10.237  0.0062  0.6421 -0.0780
  113OSM    H6S11721   1.701   1.462  10.174 -0.5408  0.8895  0.7620
  113OSM    H6T11722   1.734   1.314  10.266  1.2453 -0.2176 -1.0392
  113OSM    C7S11723   1.891   1.375  10.140 -0.4589 -0.3293 -0.4579
  113OSM    H7S11724   1.961   1.323  10.208 -2.3165 -1.2856  0.8271
  113OSM    H7T11725   1.942   1.466  10.103  0.6413 -1.3652 -1.5606
  113OSM    C8S11726   1.879   1.279  10.022  0.3411  0.4222  0.0766
  113OSM    H8S11727   1.827   1.186  10.053  0.2547  0.1378 -0.8946
  113OSM    H8T11728   1.985   1.251  10.000 -0.4395 -0.6073 -2.7789
  113OSM    C9S11729   1.804   1.342   9.906  0.3695 -0.1579  0.2698
  113OSM    H9S11730   1.870   1.428   9.879 -0.4773 -0.1211 -1.9232
  113OSM    H9T11731   1.703   1.379   9.935  0.2740 -0.1997 -0.0004
  113OSM   C10S11732   1.806   1.251   9.784 -0.9754  0.4400  0.8584
  113OSM   H10S11733   1.767   1.156   9.826 -0.7431  1.4007  3.4537
  113OSM   H10T11734   1.911   1.229   9.753 -1.2959  0.1718 -0.0611
  113OSM   C11S11735   1.748   1.312   9.659  0.4495  0.2036  0.1733
  113OSM   H11S11736   1.779   1.413   9.625  1.0639 -0.2761 -0.7428
  113OSM   H11T11737   1.639   1.334   9.663  0.2317 -0.3376 -1.6811
  113OSM   C12S11738   1.768   1.215   9.543  0.0120 -0.3980  0.3836
  113OSM   H12S11739   1.737   1.112   9.569  1.2807 -0.6757  0.8569
  113OSM   H12T11740   1.877   1.199   9.526  0.2602  2.2261 -0.9755
  113OSM   C13S11741   1.709   1.261   9.405  0.2517  0.6181  0.0234
  113OSM   H13S11742   1.754   1.359   9.381  1.1913 -0.3756 -2.6844
  113OSM   H13T11743   1.600   1.267   9.425  0.7867  3.2742  3.0182
  113OSM   C14S11744   1.760   1.156   9.297 -0.0152 -0.5636 -0.2602
  113OSM   H14S11745   1.754   1.056   9.345 -0.3701 -0.2873  0.2946
  113OSM   H14T11746   1.864   1.162   9.258  0.2735  0.6203  0.6090
  113OSM   C15S11747   1.667   1.168   9.173 -0.5638 -0.4345  0.7641
  113OSM   H15S11748   1.694   1.269   9.136  1.1253 -1.0173  0.3109
  113OSM   H15T11749   1.561   1.164   9.207 -0.8790 -0.2755 -0.1685
  113OSM   C16S11750   1.691   1.062   9.062 -0.9156  0.5422 -0.1242
  113OSM   H16S11751   1.671   0.961   9.103 -0.7695  0.8143  0.6458
  113OSM   H16T11752   1.797   1.061   9.029 -0.7744 -0.2309  0.3373
  113OSM   C17S11753   1.609   1.077   8.935  0.5579 -0.1594 -0.3115
  113OSM   H17S11754   1.623   1.180   8.897  2.0669 -0.0074  0.5496
  113OSM   H17T11755   1.501   1.065   8.959  0.3351 -0.3565 -1.3811
  113OSM   C18S11756   1.645   0.989   8.821 -0.1930  0.2272  0.5166
  113OSM   H18S11757   1.552   0.980   8.761 -0.3507  2.1444  0.4299
  113OSM   H18T11758   1.660   0.883   8.853 -5.0086 -1.4394 -1.7462
  113OSM   H18U11759   1.732   1.030   8.767  0.4534  0.3120  1.5853
  113OSM    C1F11760   2.214   1.753  10.289  0.1059 -0.4220 -0.3156
  113OSM     OF11761   2.322   1.712  10.329 -0.6559  0.1847 -0.2756
  113OSM    C2F11762   2.191   1.844  10.167  0.1884  0.5516  0.3044
  113OSM    H2F11763   2.293   1.881  10.146  0.2640  1.2790  1.8165
  113OSM    H2G11764   2.130   1.933  10.195 -2.6285 -0.6619 -1.5170
  113OSM    C3F11765   2.120   1.776  10.051  0.1284 -0.3369 -0.0428
  113OSM    H3F11766   2.099   1.848   9.969 -0.6857 -0.4828  0.0242
  113OSM    H3G11767   2.025   1.736  10.094  2.0608 -1.8032  3.2909
  113OSM    C4F11768   2.198   1.654  10.003 -0.4657 -0.0503  0.2181
  113OSM    H4F11769   2.191   1.567  10.072  2.8132  0.1686  0.9606
  113OSM    H4G11770   2.306   1.678  10.008 -0.9361  2.1667  0.8601
  113OSM    C5F11771   2.155   1.629   9.856  0.1968 -0.4956 -0.9096
  113OSM    H5F11772   2.190   1.722   9.806  1.8077  0.2706  1.4550
  113OSM    H5G11773   2.047   1.604   9.857  0.0414  0.1615 -0.5642
  113OSM    C6F11774   2.220   1.497   9.805  0.1886 -0.0570 -0.3377
  113OSM    H6F11775   2.195   1.422   9.882  0.6963  0.8455  0.7422
  113OSM    H6G11776   2.330   1.514   9.809 -0.0217  1.1304  1.2146
  113OSM    C7F11777   2.179   1.462   9.662 -0.3742 -0.2339 -0.0998
  113OSM    H7F11778   2.069   1.454   9.649 -0.7006  0.3690  1.8284
  113OSM    H7G11779   2.226   1.363   9.650 -1.7479 -1.0679  0.9832
  113OSM    C8F11780   2.237   1.569   9.563  0.0584 -0.1414 -0.3883
  113OSM    H8F11781   2.347   1.568   9.579 -0.1169  2.9594  1.9550
  113OSM    H8G11782   2.206   1.674   9.584 -0.0693 -0.3388  0.4702
  113OSM    C9F11783   2.215   1.534   9.416  0.7560  0.0433  0.4004
  113OSM    H9F11784   2.260   1.435   9.397  0.6234 -0.0077  0.3546
  113OSM   C10F11785   2.154   1.603   9.316  0.5214  0.2833 -0.5310
  113OSM   H10F11786   2.150   1.557   9.216 -1.6091  0.4134 -0.5501
  113OSM   C11F11787   2.081   1.732   9.334 -0.6383 -0.4173 -0.0944
  113OSM   H11F11788   2.088   1.779   9.434  0.4693 -0.9999  0.1182
  113OSM   H11G11789   1.973   1.721   9.312 -0.9473 -0.6786  1.4794
  113OSM   C12F11790   2.114   1.830   9.223  0.2226 -0.1145  0.2157
  113OSM   H12F11791   2.220   1.861   9.218  1.4409 -3.8900 -0.3740
  113OSM   H12G11792   2.065   1.928   9.240  1.5114  0.5441  0.2263
  113OSM   C13F11793   2.075   1.784   9.086  0.0388  0.9180 -0.0959
  113OSM   H13F11794   1.990   1.713   9.087  0.5120  0.3555  0.8086
  113OSM   H13G11795   2.165   1.724   9.058 -1.0980 -0.5176 -0.8004
  113OSM   C14F11796   2.061   1.900   8.992  0.0094  0.3005 -0.7673
  113OSM   H14F11797   2.151   1.964   9.007 -0.6536  1.6421 -2.2043
  113OSM   H14G11798   1.985   1.967   9.036 -0.3834 -0.3505 -0.4426
  113OSM   C15F11799   2.021   1.873   8.848  0.3284 -0.0698 -0.6204
  113OSM   H15F11800   1.924   1.819   8.851  1.1766 -1.6796 -0.8090
  113OSM   H15G11801   2.084   1.804   8.787 -1.4609 -0.2208 -2.3717
  113OSM   C16F11802   2.008   2.006   8.774  0.4649  0.1551 -0.2986
  113OSM   H16F11803   2.101   2.065   8.791  0.8023 -0.4414 -0.0412
  113OSM   H16G11804   1.918   2.058   8.813 -0.5790 -1.1650 -0.8507
  113OSM   C17F11805   1.983   1.987   8.626  0.3424  0.2239 -0.0349
  113OSM   H17F11806   1.898   1.916   8.615  0.3515  0.3199 -0.8275
  113OSM   H17G11807   2.073   1.938   8.583  1.2321 -0.9456  2.9143
  113OSM   C18F11808   1.944   2.111   8.546  0.4913 -0.0627  0.2573
  113OSM   H18F11809   1.926   2.088   8.439  3.8283 -0.6212 -0.3131
  113OSM   H18G11810   2.037   2.173   8.552  0.6623 -0.0573 -1.6489
  113OSM   H18H11811   1.862   2.176   8.582  1.1920  1.1216 -0.1991
  114OSM      N11812   1.975   0.232  11.481 -0.2762 -0.2676  0.2907
  114OSM    C1511813   1.917   0.171  11.607 -0.0767 -0.3977  0.1949
  114OSM   H15A11814   1.993   0.105  11.644  1.3556 -0.1640 -2.1358
  114OSM   H15B11815   1.820   0.128  11.586 -0.1128 -0.9235  1.3782
  114OSM   H15C11816   1.900   0.251  11.678 -3.0252  1.1053 -1.9933
  114OSM    C1411817   2.108   0.303  11.513  0.2634 -0.4168 -0.1836
  114OSM   H14A11818   2.191   0.235  11.512  1.9968  1.5907 -1.3124
  114OSM   H14B11819   2.099   0.357  11.606 -1.5479 -1.5327  0.3531
  114OSM   H14C11820   2.118   0.377  11.435 -1.8553  0.7080  0.5257
  114OSM    C1311821   1.998   0.122  11.387 -0.4112  0.0772 -0.3962
  114OSM   H13A11822   1.903   0.089  11.349 -0.5569  1.0308 -0.8783
  114OSM   H13B11823   2.069   0.052  11.428  2.6229  3.1021 -0.0263
  114OSM   H13C11824   2.047   0.155  11.296 -0.3353  2.3590  0.4040
  114OSM    C1211825   1.885   0.336  11.411  0.2143  0.4779  0.3040
  114OSM   H12A11826   1.867   0.416  11.480  0.7898  0.6005  0.3159
  114OSM   H12B11827   1.791   0.286  11.392  2.1260 -2.4294 -2.9124
  114OSM    C1111828   1.928   0.398  11.282 -0.3931  0.7805 -0.6057
  114OSM   H11A11829   1.849   0.477  11.275 -1.2663  0.2559  2.1323
  114OSM   H11B11830   1.925   0.327  11.197  0.5436 -0.3744  0.3087
  114OSM      P11831   2.073   0.610  11.331  0.2269  0.1775  0.1269
  114OSM    O1311832   1.964   0.636  11.425  0.3645 -0.6167 -0.1471
  114OSM    O1411833   2.211   0.635  11.371  0.1033 -0.4657  0.2723
  114OSM    O1111834   2.038   0.696  11.198  0.3075  0.0704  0.1616
  114OSM    O1211835   2.058   0.461  11.281 -0.1529 -0.2490 -0.0657
  114OSM    C1S11836   2.138   0.693  11.089  0.0370 -0.2140  0.0483
  114OSM    H1S11837   2.235   0.642  11.111  0.0924 -0.2322 -0.2380
  114OSM    H1T11838   2.174   0.794  11.060  0.2743 -0.5405 -0.8284
  114OSM     NF11839   2.179   0.610  10.857 -0.8467 -0.2768 -0.2469
  114OSM    HNF11840   2.176   0.671  10.779  1.6309  0.5074  0.1761
  114OSM    C2S11841   2.079   0.636  10.958  0.1391  0.7109 -0.2076
  114OSM    H2S11842   2.031   0.537  10.976 -0.4879  0.4970 -2.6489
  114OSM    C3S11843   1.952   0.720  10.911 -0.6337  0.2077  0.7060
  114OSM    H3S11844   1.986   0.825  10.898  2.3857 -0.6927  0.3906
  114OSM     O311845   1.847   0.731  11.004 -0.1214  0.4335  0.2533
  114OSM    HO311846   1.884   0.730  11.093 -3.2730 -0.6986  1.7030
  114OSM    C4S11847   1.902   0.654  10.786 -0.4230  0.0993 -0.6992
  114OSM    H4S11848   1.860   0.554  10.806  0.8232 -0.7945 -2.2962
  114OSM    C5S11849   1.891   0.702  10.663  0.1962 -0.7268  0.0790
  114OSM    H5S11850   1.921   0.808  10.654  2.8721 -1.2267  1.9207
  114OSM    C6S11851   1.851   0.636  10.539 -0.0855 -0.5532 -0.6560
  114OSM    H6S11852   1.930   0.648  10.462 -0.7361  1.6588 -1.0548
  114OSM    H6T11853   1.756   0.681  10.503 -1.0100 -0.3711  1.8280
  114OSM    C7S11854   1.826   0.487  10.550 -0.2387 -0.8467  0.5968
  114OSM    H7S11855   1.722   0.461  10.578 -0.0956 -1.2775  0.7265
  114OSM    H7T11856   1.890   0.441  10.628 -2.1456 -1.4984  1.8482
  114OSM    C8S11857   1.842   0.425  10.408 -0.0244  0.4562 -0.3830
  114OSM    H8S11858   1.835   0.315  10.421 -3.7884  0.6446  0.0645
  114OSM    H8T11859   1.943   0.460  10.375 -0.0137  0.0935 -0.7468
  114OSM    C9S11860   1.729   0.471  10.318  0.5730 -0.1676  0.5605
  114OSM    H9S11861   1.724   0.580  10.299 -1.7582 -0.4100 -0.5091
  114OSM    H9T11862   1.632   0.447  10.367  0.9590 -1.9635  0.5153
  114OSM   C10S11863   1.732   0.402  10.180  0.0210 -0.0117 -0.4957
  114OSM   H10S11864   1.633   0.410  10.131 -0.2441  1.3554  0.2179
  114OSM   H10T11865   1.753   0.294  10.194  0.0192 -0.0750 -0.9626
  114OSM   C11S11866   1.839   0.473  10.096 -0.1145 -0.0637  0.3353
  114OSM   H11S11867   1.934   0.455  10.152  1.0276  0.4703 -1.3458
  114OSM   H11T11868   1.834   0.583  10.092 -1.6451 -0.0389  1.8219
  114OSM   C12S11869   1.856   0.419   9.951 -0.0536 -0.8705 -0.0201
  114OSM   H12S11870   1.788   0.476   9.883  0.6142  0.8314  0.6652
  114OSM   H12T11871   1.826   0.312   9.950  0.3431 -0.9997 -1.7136
  114OSM   C13S11872   2.002   0.441   9.898  0.0795 -0.6059 -1.0510
  114OSM   H13S11873   2.075   0.403   9.973 -2.7569 -3.3259  0.5925
  114OSM   H13T11874   2.012   0.551   9.896  0.8859 -0.6159  0.5897
  114OSM   C14S11875   2.023   0.399   9.751 -0.0886  0.5148  0.1037
  114OSM   H14S11876   1.936   0.433   9.690  0.1389  1.4094  0.2630
  114OSM   H14T11877   2.025   0.288   9.755 -1.1680  0.4666 -0.2206
  114OSM   C15S11878   2.148   0.461   9.684 -0.5909 -0.0406  0.1941
  114OSM   H15S11879   2.230   0.456   9.759  0.5802 -1.1332 -1.0851
  114OSM   H15T11880   2.126   0.568   9.666 -1.7459 -0.1196  1.0760
  114OSM   C16S11881   2.202   0.391   9.558  0.0976 -0.1944 -0.7860
  114OSM   H16S11882   2.225   0.283   9.574  1.4520 -0.0279 -1.5121
  114OSM   H16T11883   2.288   0.447   9.517 -0.1829  0.5961 -0.3258
  114OSM   C17S11884   2.095   0.392   9.443 -0.3817 -0.2086  1.0222
  114OSM   H17S11885   1.998   0.362   9.490 -1.9301  0.9034 -1.2899
  114OSM   H17T11886   2.120   0.322   9.361 -4.2818 -0.1430 -0.4092
  114OSM   C18S11887   2.069   0.526   9.383 -0.3192  0.1655 -0.3962
  114OSM   H18S11888   1.981   0.506   9.319 -0.3332 -2.1980  0.2638
  114OSM   H18T11889   2.154   0.556   9.318 -0.1271 -1.0974 -0.7558
  114OSM   H18U11890   2.036   0.603   9.456  1.3531  1.8132 -1.3023
  114OSM    C1F11891   2.282   0.523  10.880  0.1745  0.1322  0.5309
  114OSM     OF11892   2.290   0.460  10.988  0.4069 -0.5206 -0.0844
  114OSM    C2F11893   2.386   0.518  10.772  0.3602 -0.1113  0.1644
  114OSM    H2F11894   2.483   0.515  10.825 -0.9550 -3.6424  2.7787
  114OSM    H2G11895   2.383   0.615  10.719  1.7779  0.5591  1.2533
  114OSM    C3F11896   2.389   0.390  10.684 -0.0354  1.0408  0.3225
  114OSM    H3F11897   2.400   0.296  10.744  2.6485 -0.0381 -1.6543
  114OSM    H3G11898   2.480   0.402  10.622 -0.2004  0.3863 -0.0591
  114OSM    C4F11899   2.271   0.378  10.591 -0.1182 -0.2973  0.3596
  114OSM    H4F11900   2.186   0.429  10.641  1.2442  0.1622  2.3437
  114OSM    H4G11901   2.236   0.273  10.583 -3.1655  0.5499  1.1909
  114OSM    C5F11902   2.291   0.464  10.470 -0.4155 -0.8107  0.4852
  114OSM    H5F11903   2.346   0.559  10.484 -0.5551 -0.1786 -2.5220
  114OSM    H5G11904   2.193   0.500  10.433  0.2689  0.9653  0.3221
  114OSM    C6F11905   2.366   0.398  10.349  0.9774  0.7227  0.1547
  114OSM    H6F11906   2.328   0.298  10.320  2.2292 -0.7066  2.9928
  114OSM    H6G11907   2.474   0.385  10.370  1.0130  2.0720  0.9686
  114OSM    C7F11908   2.353   0.489  10.219  0.1906 -0.5795 -0.2354
  114OSM    H7F11909   2.414   0.579  10.243 -3.7118  2.2457  0.2030
  114OSM    H7G11910   2.247   0.523  10.212  0.9135  1.9557 -0.0750
  114OSM    C8F11911   2.417   0.423  10.096  0.0608  0.4831 -0.4218
  114OSM    H8F11912   2.392   0.492  10.013 -1.3103  3.0278  1.9584
  114OSM    H8G11913   2.377   0.321  10.077  0.7335  0.0710  0.3129
  114OSM    C9F11914   2.565   0.418  10.105 -0.5934  0.1669  0.2590
  114OSM    H9F11915   2.596   0.402  10.210  0.0322 -2.1478 -0.2228
  114OSM   C10F11916   2.660   0.442  10.017 -0.4780 -0.1616  0.3553
  114OSM   H10F11917   2.764   0.439  10.052 -0.7908 -1.2143  1.2349
  114OSM   C11F11918   2.636   0.476   9.870 -0.7993 -0.3879  0.4709
  114OSM   H11F11919   2.709   0.556   9.846 -0.1466 -1.1305 -0.0849
  114OSM   H11G11920   2.533   0.508   9.847 -0.9759 -0.9083  0.5217
  114OSM   C12F11921   2.676   0.353   9.781  0.3483 -0.2106  0.1708
  114OSM   H12F11922   2.610   0.271   9.816 -0.1157  0.7764  1.6993
  114OSM   H12G11923   2.780   0.321   9.805  0.4730 -0.3742 -0.5490
  114OSM   C13F11924   2.688   0.383   9.631  0.1889  0.0562  0.6181
  114OSM   H13F11925   2.791   0.361   9.595 -0.0670 -2.2900  1.1509
  114OSM   H13G11926   2.660   0.487   9.605  1.7452  0.2848 -0.2647
  114OSM   C14F11927   2.586   0.303   9.543  0.0962 -0.4009  0.9536
  114OSM   H14F11928   2.487   0.335   9.581  0.6535  0.4412  1.7289
  114OSM   H14G11929   2.602   0.194   9.558 -0.6093 -0.1587  4.1355
  114OSM   C15F11930   2.614   0.334   9.387 -0.0698 -0.9000  0.2026
  114OSM   H15F11931   2.544   0.272   9.327 -0.0574 -1.0675  0.3595
  114OSM   H15G11932   2.717   0.303   9.359  0.9843  2.2432  0.2260
  114OSM   C16F11933   2.582   0.480   9.348  0.3072  0.0163 -0.0493
  114OSM   H16F11934   2.649   0.548   9.403  1.4248 -0.6304 -0.5772
  114OSM   H16G11935   2.475   0.501   9.371  0.4031 -0.2906  0.6918
  114OSM   C17F11936   2.592   0.498   9.200 -0.2146  0.1873  0.1879
  114OSM   H17F11937   2.570   0.603   9.173 -1.2366 -0.3226 -1.0775
  114OSM   H17G11938   2.515   0.430   9.156 -0.7365 -1.5108  3.4296
  114OSM   C18F11939   2.731   0.460   9.154  0.4706 -0.1703  0.9957
  114OSM   H18F11940   2.811   0.513   9.209  0.9244 -0.1445  0.3207
  114OSM   H18G11941   2.748   0.489   9.048  2.4275 -1.0915  1.0274
  114OSM   H18H11942   2.747   0.351   9.157 -3.1449 -0.9431 -0.9677
  115OSM      N11943   3.591   4.187   6.180 -0.0117  0.4415 -0.2659
  115OSM    C1511944   3.465   4.273   6.202 -0.4532 -0.2778  0.8421
  115OSM   H15A11945   3.466   4.360   6.138 -0.2647  0.5251  1.8997
  115OSM   H15B11946   3.462   4.306   6.305  0.5268  1.3789  0.3724
  115OSM   H15C11947   3.377   4.212   6.186 -0.3354 -0.4717  0.9226
  115OSM    C1411948   3.595   4.136   6.040  0.2340 -0.7556 -0.3366
  115OSM   H14A11949   3.604   4.214   5.966  1.1409 -0.1016  0.4281
  115OSM   H14B11950   3.510   4.073   6.020 -2.6089  1.2728  3.9047
  115OSM   H14C11951   3.682   4.071   6.042  2.5189  2.0792  1.8806
  115OSM    C1311952   3.708   4.271   6.210  0.2812 -0.6105  0.2143
  115OSM   H13A11953   3.796   4.208   6.214  0.8821  0.2663  1.1455
  115OSM   H13B11954   3.712   4.329   6.301 -0.3124 -0.0230 -0.1238
  115OSM   H13C11955   3.724   4.339   6.128 -2.2832  0.4043  0.4640
  115OSM    C1211956   3.588   4.074   6.287  0.5826 -0.1023 -0.1497
  115OSM   H12A11957   3.583   4.129   6.380 -1.2165 -0.9205  0.2775
  115OSM   H12B11958   3.681   4.020   6.280  0.6907 -0.3705  2.4749
  115OSM    C1111959   3.467   3.982   6.283 -0.2154 -0.1200  0.2149
  115OSM   H11A11960   3.378   4.048   6.273  1.9764  3.0831  0.1393
  115OSM   H11B11961   3.465   3.925   6.378 -0.6802  1.1045  0.9685
  115OSM      P11962   3.440   3.755   6.156 -0.0991 -0.0438  0.1060
  115OSM    O1311963   3.294   3.748   6.158  0.8255 -0.1686  0.6500
  115OSM    O1411964   3.505   3.687   6.042  0.1966  0.1743 -0.0524
  115OSM    O1111965   3.500   3.698   6.291 -0.6438  0.0151 -0.1275
  115OSM    O1211966   3.475   3.903   6.163 -0.3971  0.1663 -0.2403
  115OSM    C1S11967   3.642   3.674   6.308 -0.0619 -0.4401 -0.1350
  115OSM    H1S11968   3.701   3.736   6.238  0.7254  0.7680  1.5471
  115OSM    H1T11969   3.676   3.569   6.297  1.3693  0.1345 -1.5223
  115OSM     NF11970   3.833   3.739   6.451 -0.0221  0.6879  0.1172
  115OSM    HNF11971   3.873   3.670   6.511 -1.2962  1.3016  1.7677
  115OSM    C2S11972   3.688   3.733   6.447 -0.0820  0.8555 -0.0881
  115OSM    H2S11973   3.651   3.838   6.455 -0.7282  0.6395 -0.2025
  115OSM    C3S11974   3.627   3.650   6.561  0.3915  1.2823  0.6666
  115OSM    H3S11975   3.673   3.549   6.570 -2.1647 -0.3540 -2.5190
  115OSM     O311976   3.487   3.622   6.545  0.1634 -0.5998  0.3264
  115OSM    HO311977   3.458   3.672   6.469  0.2757  2.1739  1.9900
  115OSM    C4S11978   3.645   3.717   6.694 -0.1738 -0.2468 -0.3934
  115OSM    H4S11979   3.603   3.819   6.695 -2.3475 -1.0764  1.4002
  115OSM    C5S11980   3.691   3.664   6.811  0.7266  0.1584  0.2007
  115OSM    H5S11981   3.722   3.558   6.815  2.0785  0.5356  0.1824
  115OSM    C6S11982   3.708   3.750   6.930  0.4163 -0.1433 -0.2780
  115OSM    H6S11983   3.668   3.853   6.921  2.2021  0.8109  1.8551
  115OSM    H6T11984   3.816   3.765   6.951  0.2682 -2.2376  2.5745
  115OSM    C7S11985   3.636   3.698   7.054  0.2887  0.1166  1.2294
  115OSM    H7S11986   3.690   3.602   7.070  1.5014  0.5602 -0.0596
  115OSM    H7T11987   3.530   3.662   7.050  0.8185 -1.8421  2.9490
  115OSM    C8S11988   3.656   3.786   7.177 -0.2517  0.0542 -0.3360
  115OSM    H8S11989   3.558   3.838   7.189  0.1461  0.5254  1.1433
  115OSM    H8T11990   3.725   3.869   7.151  0.6331 -0.2611  0.8794
  115OSM    C9S11991   3.678   3.705   7.298  0.1552 -0.9648 -1.0898
  115OSM    H9S11992   3.785   3.673   7.296  1.3427  1.9800  2.5770
  115OSM    H9T11993   3.620   3.611   7.298  1.1496 -1.5877 -1.4122
  115OSM   C10S11994   3.653   3.788   7.427  0.3081  0.6025  0.1270
  115OSM   H10S11995   3.546   3.791   7.456  0.6263  0.7816  1.3542
  115OSM   H10T11996   3.690   3.893   7.423 -1.9283  1.6818  3.5206
  115OSM   C11S11997   3.720   3.714   7.545  0.0603 -1.4723  0.1912
  115OSM   H11S11998   3.830   3.716   7.552  0.0850 -0.2906 -0.2803
  115OSM   H11T11999   3.686   3.609   7.532 -1.1443 -0.7116 -4.3755
  115OSM   C12S12000   3.670   3.780   7.676  0.5833 -0.3946  0.2496
  115OSM   H12S12001   3.559   3.779   7.672  0.6127 -2.0389 -0.7593
  115OSM   H12T12002   3.700   3.887   7.687 -0.7418  0.1134 -0.7907
  115OSM   C13S12003   3.713   3.716   7.804 -0.2354 -0.0810  0.2781
  115OSM   H13S12004   3.824   3.728   7.808 -0.3871  1.7686 -0.1930
  115OSM   H13T12005   3.692   3.607   7.806  2.2802 -0.6136  0.7562
  115OSM   C14S12006   3.644   3.763   7.940 -0.1153 -0.0823  0.7566
  115OSM   H14S12007   3.680   3.693   8.018 -0.2531 -4.1657 -2.5384
  115OSM   H14T12008   3.539   3.735   7.916 -0.2794  1.8979 -1.1520
  115OSM   C15S12009   3.661   3.914   7.957  0.1398  0.4910 -0.1057
  115OSM   H15S12010   3.615   3.962   7.868 -2.8216 -0.1402  0.9770
  115OSM   H15T12011   3.769   3.943   7.952  0.2349  0.2216  0.3767
  115OSM   C16S12012   3.596   3.955   8.094 -0.7869 -0.3069  0.4230
  115OSM   H16S12013   3.622   3.880   8.171 -1.4755  0.3522  1.3215
  115OSM   H16T12014   3.489   3.945   8.069 -0.8343  1.3334 -0.1666
  115OSM   C17S12015   3.640   4.090   8.149  0.6539  0.9655 -0.3129
  115OSM   H17S12016   3.624   4.173   8.077  2.5997  1.2713 -0.4341
  115OSM   H17T12017   3.748   4.081   8.172  0.3981  1.5394  1.2832
  115OSM   C18S12018   3.563   4.132   8.280  0.5055 -0.2769 -0.1933
  115OSM   H18S12019   3.586   4.063   8.365 -1.0911 -0.3421  0.2171
  115OSM   H18T12020   3.456   4.120   8.253  0.3340  3.2705 -1.5676
  115OSM   H18U12021   3.589   4.238   8.300  1.0344 -0.2136 -1.1478
  115OSM    C1F12022   3.918   3.818   6.389  0.2016  0.1974  0.1038
  115OSM     OF12023   3.868   3.902   6.313 -0.2445 -0.2456 -0.0380
  115OSM    C2F12024   4.064   3.798   6.402 -0.0972 -0.0436 -0.9124
  115OSM    H2F12025   4.099   3.824   6.300 -0.2247 -1.2701 -1.2774
  115OSM    H2G12026   4.099   3.693   6.400  0.1081  0.0034 -0.2552
  115OSM    C3F12027   4.131   3.887   6.508 -0.1526 -0.8715  0.2475
  115OSM    H3F12028   4.106   3.991   6.477 -0.1550 -0.9719 -0.1010
  115OSM    H3G12029   4.242   3.883   6.497  0.0331  2.6748 -0.6798
  115OSM    C4F12030   4.094   3.848   6.653 -0.6414  0.8040  0.2305
  115OSM    H4F12031   4.135   3.745   6.653 -2.6144 -0.0271  0.3172
  115OSM    H4G12032   3.985   3.836   6.672 -0.6394  0.0355 -0.1832
  115OSM    C5F12033   4.147   3.936   6.764 -0.1707  0.2223 -0.3402
  115OSM    H5F12034   4.116   4.042   6.751 -0.7703  0.2704  1.2476
  115OSM    H5G12035   4.256   3.917   6.768 -0.3291 -1.3896 -2.2546
  115OSM    C6F12036   4.089   3.901   6.898  0.3492  0.3618  1.4403
  115OSM    H6F12037   4.094   3.791   6.912 -0.6225  0.2035  0.6653
  115OSM    H6G12038   3.984   3.936   6.896  0.7584  1.5936  0.5751
  115OSM    C7F12039   4.156   3.984   7.015 -0.0935  1.2108 -0.1434
  115OSM    H7F12040   4.135   4.089   6.985 -2.3032  0.5352 -1.2030
  115OSM    H7G12041   4.263   3.958   7.012 -0.2409  0.6620 -1.2077
  115OSM    C8F12042   4.084   3.949   7.142  0.0079  0.9428  0.2593
  115OSM    H8F12043   4.133   3.854   7.171 -0.6662  0.6058  0.3228
  115OSM    H8G12044   3.978   3.917   7.128 -0.2520  1.9097 -0.0322
  115OSM    C9F12045   4.115   4.044   7.254 -0.9216  0.3724  0.3072
  115OSM    H9F12046   4.127   4.151   7.231  1.7769  0.2834  0.9865
  115OSM   C10F12047   4.092   4.018   7.386 -0.2830 -0.7751 -0.4913
  115OSM   H10F12048   4.109   4.094   7.463  1.9128  0.1365 -1.7612
  115OSM   C11F12049   4.028   3.893   7.433 -0.3920 -0.3600  0.7039
  115OSM   H11F12050   4.039   3.815   7.354 -1.3703  0.7530 -0.5951
  115OSM   H11G12051   3.919   3.904   7.455 -0.3601  2.6253 -0.2045
  115OSM   C12F12052   4.110   3.840   7.552  0.4857  0.4767  0.5979
  115OSM   H12F12053   4.219   3.842   7.534  0.1733  0.4440 -1.5462
  115OSM   H12G12054   4.083   3.732   7.564 -2.2382  1.0544  0.4263
  115OSM   C13F12055   4.078   3.906   7.680 -0.0705 -0.7325 -0.2331
  115OSM   H13F12056   3.968   3.906   7.694  0.0743  2.0232  1.8223
  115OSM   H13G12057   4.112   4.012   7.687 -1.5725 -0.2301 -0.1908
  115OSM   C14F12058   4.128   3.829   7.804 -0.2444  0.2028  0.6943
  115OSM   H14F12059   4.235   3.807   7.820 -0.3640 -1.1908 -0.2674
  115OSM   H14G12060   4.070   3.734   7.803 -0.6932  0.4382  2.0042
  115OSM   C15F12061   4.098   3.894   7.939 -0.2334  0.0410  0.3613
  115OSM   H15F12062   3.989   3.910   7.939 -0.0231  1.6822  0.9348
  115OSM   H15G12063   4.148   3.993   7.941  2.3075 -1.0343 -2.2633
  115OSM   C16F12064   4.149   3.824   8.070  0.7732 -1.0851 -0.3581
  115OSM   H16F12065   4.254   3.788   8.069  0.3397 -2.5209  0.7745
  115OSM   H16G12066   4.090   3.730   8.084 -0.8219  0.2140  2.6056
  115OSM   C17F12067   4.133   3.907   8.198  0.4415 -0.0016  0.4611
  115OSM   H17F12068   4.226   3.964   8.217  0.6953  0.8249 -2.7785
  115OSM   H17G12069   4.106   3.840   8.283  1.4709  0.3802  1.1057
  115OSM   C18F12070   4.024   4.009   8.201  0.0208 -0.3796  0.6000
  115OSM   H18F12071   4.007   4.042   8.306 -1.3430  1.1216 -0.0521
  115OSM   H18G12072   3.934   3.968   8.150  0.8126 -2.0276  0.4795
  115OSM   H18H12073   4.058   4.092   8.135  0.5191 -0.1375  1.1514
  116OSM      N12074   0.482   1.170   5.992  0.5270  0.2608  0.5173
  116OSM    C1512075   0.580   1.092   5.904  0.1771 -0.1113 -0.1368
  116OSM   H15A12076   0.630   1.156   5.834  0.2897 -0.4395 -0.3611
  116OSM   H15B12077   0.529   1.020   5.842  1.1527 -0.5276 -0.4880
  116OSM   H15C12078   0.650   1.031   5.960 -2.0762 -1.4536  1.4103
  116OSM    C1412079   0.431   1.284   5.915  0.1442  0.5770  0.5129
  116OSM   H14A12080   0.385   1.256   5.822  0.7069  1.3164  0.0016
  116OSM   H14B12081   0.517   1.340   5.880  1.0831 -1.4336 -0.6014
  116OSM   H14C12082   0.366   1.352   5.968  0.6529  1.3634  0.1511
  116OSM    C1312083   0.364   1.086   6.034  0.4835 -0.6462 -0.0823
  116OSM   H13A12084   0.312   1.120   6.122  2.0299 -2.9219  1.8454
  116OSM   H13B12085   0.400   0.985   6.045  1.1958 -1.0412 -4.1702
  116OSM   H13C12086   0.293   1.087   5.952  0.4347  1.3351 -0.0586
  116OSM    C1212087   0.559   1.219   6.114 -0.4195 -0.4274  0.4258
  116OSM   H12A12088   0.641   1.284   6.087 -0.8219  2.5210  5.0560
  116OSM   H12B12089   0.602   1.131   6.159  0.0328 -0.1200  0.6080
  116OSM    C1112090   0.486   1.305   6.220 -0.1847 -0.0423  0.6035
  116OSM   H11A12091   0.559   1.307   6.304  0.0160 -1.2790  0.4775
  116OSM   H11B12092   0.401   1.240   6.251 -1.1492  0.0966 -1.5739
  116OSM      P12093   0.539   1.557   6.173  0.2518  0.3475 -0.3116
  116OSM    O1312094   0.661   1.532   6.098 -0.2723 -0.3615 -0.1343
  116OSM    O1412095   0.456   1.671   6.132  1.0570 -0.1518  0.1815
  116OSM    O1112096   0.570   1.576   6.327 -0.4416  0.0679 -0.8539
  116OSM    O1212097   0.444   1.436   6.173 -0.0141  0.0404  0.4362
  116OSM    C1S12098   0.483   1.591   6.438  0.5841 -0.6224  0.2292
  116OSM    H1S12099   0.396   1.524   6.421  1.9953 -1.8972 -2.7027
  116OSM    H1T12100   0.428   1.688   6.439  0.6822 -0.5340 -1.1216
  116OSM     NF12101   0.448   1.576   6.683  0.5147  0.1725 -0.3050
  116OSM    HNF12102   0.425   1.659   6.733  0.9262 -0.8886  1.7119
  116OSM    C2S12103   0.546   1.570   6.577  0.0329  0.3043  0.4229
  116OSM    H2S12104   0.587   1.466   6.574  2.9709  1.3538  0.7221
  116OSM    C3S12105   0.668   1.661   6.588 -0.2288  1.0248  0.4330
  116OSM    H3S12106   0.643   1.759   6.542 -2.5590  0.0838 -0.4955
  116OSM     O312107   0.793   1.607   6.529 -0.7852  0.5285  0.0832
  116OSM    HO312108   0.753   1.549   6.463  0.9433 -0.7507  0.1038
  116OSM    C4S12109   0.711   1.670   6.733 -0.1019  0.4142 -0.7394
  116OSM    H4S12110   0.677   1.579   6.786 -0.2884  0.3313 -0.9964
  116OSM    C5S12111   0.788   1.751   6.804  0.0523 -0.5351  0.6969
  116OSM    H5S12112   0.826   1.841   6.753  0.2043 -0.7917  0.3566
  116OSM    C6S12113   0.823   1.734   6.950  0.8366 -0.3045 -0.4359
  116OSM    H6S12114   0.757   1.810   6.997 -1.6256 -2.0447 -0.8329
  116OSM    H6T12115   0.927   1.760   6.978  0.7270 -1.2775  1.0356
  116OSM    C7S12116   0.787   1.604   7.024 -0.4981 -0.5109  0.6217
  116OSM    H7S12117   0.853   1.527   6.980 -0.2365  0.5864 -0.9911
  116OSM    H7T12118   0.683   1.576   6.997  0.4029 -1.9794 -1.6145
  116OSM    C8S12119   0.807   1.617   7.177  0.0471 -0.2078  0.3021
  116OSM    H8S12120   0.736   1.690   7.221 -0.3026 -1.0412  1.1588
  116OSM    H8T12121   0.915   1.635   7.195  0.4624  0.6907 -2.5937
  116OSM    C9S12122   0.778   1.489   7.241 -0.1724  0.3904  0.0758
  116OSM    H9S12123   0.823   1.409   7.179  0.9473 -1.4756  3.0868
  116OSM    H9T12124   0.668   1.473   7.232 -0.2987  0.3764  1.4474
  116OSM   C10S12125   0.821   1.472   7.390 -0.0516  0.4320  0.4295
  116OSM   H10S12126   0.925   1.504   7.410  0.4188 -0.9645  0.3559
  116OSM   H10T12127   0.814   1.364   7.418 -0.6081  0.3022 -0.2004
  116OSM   C11S12128   0.728   1.547   7.486  0.3026  0.1760 -0.2559
  116OSM   H11S12129   0.635   1.487   7.499  1.3506 -1.5169 -0.1750
  116OSM   H11T12130   0.705   1.651   7.457 -1.4076  0.0272  0.4629
  116OSM   C12S12131   0.793   1.565   7.627 -0.2513  0.0591  0.1787
  116OSM   H12S12132   0.853   1.658   7.622 -0.4085  0.1953  0.8206
  116OSM   H12T12133   0.848   1.471   7.651 -0.2652 -0.8061 -2.7346
  116OSM   C13S12134   0.684   1.569   7.734 -0.0471  0.0953 -0.4999
  116OSM   H13S12135   0.619   1.478   7.731 -1.1695  0.8654 -0.1013
  116OSM   H13T12136   0.612   1.645   7.698 -1.5559 -1.6861 -1.4768
  116OSM   C14S12137   0.744   1.588   7.877 -0.0940  0.3152 -0.5994
  116OSM   H14S12138   0.664   1.638   7.936 -0.4885 -2.9317  1.8959
  116OSM   H14T12139   0.832   1.656   7.882  0.9837 -0.9788 -1.6044
  116OSM   C15S12140   0.778   1.455   7.945 -0.0143  0.3351 -0.2156
  116OSM   H15S12141   0.841   1.389   7.883 -0.4228  0.1165 -0.4037
  116OSM   H15T12142   0.681   1.404   7.961  0.0180  0.4136  0.2444
  116OSM   C16S12143   0.859   1.472   8.082  0.1334 -0.0369 -0.1011
  116OSM   H16S12144   0.870   1.367   8.114  1.0416  1.0991  3.9153
  116OSM   H16T12145   0.794   1.523   8.157  1.1660 -2.7139  2.8619
  116OSM   C17S12146   0.998   1.531   8.077 -0.5090 -0.8303 -0.3287
  116OSM   H17S12147   0.992   1.636   8.040  0.5213 -0.8375 -0.5506
  116OSM   H17T12148   1.064   1.487   8.000  2.2183  1.5114  0.5045
  116OSM   C18S12149   1.077   1.549   8.206 -0.0252  0.2585  0.0232
  116OSM   H18S12150   1.016   1.602   8.282  0.3135  3.2566 -1.6745
  116OSM   H18T12151   1.162   1.616   8.182  0.5525 -0.0071  1.2449
  116OSM   H18U12152   1.124   1.457   8.249  2.3905  0.5070 -1.8450
  116OSM    C1F12153   0.345   1.484   6.698 -0.2127 -0.3895  0.2188
  116OSM     OF12154   0.329   1.394   6.619 -0.4076  0.4890 -0.0055
  116OSM    C2F12155   0.255   1.516   6.810  0.3663  0.1608 -0.7460
  116OSM    H2F12156   0.296   1.600   6.870 -1.4702  0.3536  0.3336
  116OSM    H2G12157   0.262   1.429   6.879  0.3068 -0.1516 -1.1315
  116OSM    C3F12158   0.114   1.551   6.779  0.7642  0.0081  0.0350
  116OSM    H3F12159   0.057   1.462   6.743  0.5595 -0.1200  0.6642
  116OSM    H3G12160   0.112   1.622   6.693  0.8045  2.1141  1.7055
  116OSM    C4F12161   0.032   1.612   6.894 -0.5186  0.6434  0.3054
  116OSM    H4F12162  -0.048   1.675   6.850 -1.7068  0.1757  1.7143
  116OSM    H4G12163   0.105   1.668   6.955  2.2524 -0.2041 -2.0103
  116OSM    C5F12164  -0.027   1.513   6.996  0.3179 -0.1127  0.0458
  116OSM    H5F12165   0.042   1.436   7.035  0.4570  0.5292  1.1220
  116OSM    H5G12166  -0.112   1.457   6.952  1.2879 -1.0612 -0.6663
  116OSM    C6F12167  -0.077   1.595   7.117  0.1031  0.1556 -0.1419
  116OSM    H6F12168  -0.136   1.682   7.080  0.2049  1.2682  2.1792
  116OSM    H6G12169   0.016   1.630   7.166 -0.0685 -0.0501  0.3338
  116OSM    C7F12170  -0.168   1.513   7.210 -0.1809 -0.1220  0.2691
  116OSM    H7F12171  -0.249   1.457   7.159  1.4180 -1.6871 -0.6503
  116OSM    H7G12172  -0.213   1.587   7.280  1.0084  2.6277 -1.6963
  116OSM    C8F12173  -0.089   1.402   7.284  0.2275  0.1878  0.1714
  116OSM    H8F12174   0.004   1.450   7.323  2.1317 -1.9249 -1.4868
  116OSM    H8G12175  -0.050   1.338   7.202 -0.9186  1.0956 -1.1190
  116OSM    C9F12176  -0.164   1.329   7.391 -0.3465  0.3628  0.1449
  116OSM    H9F12177  -0.192   1.227   7.362 -1.0751  0.2392  1.2313
  116OSM   C10F12178  -0.176   1.372   7.516 -0.0627  0.3443  0.1515
  116OSM   H10F12179  -0.227   1.306   7.588  0.3793 -1.3538 -1.0390
  116OSM   C11F12180  -0.123   1.505   7.568  0.3343  0.2701  0.6953
  116OSM   H11F12181  -0.191   1.588   7.539  0.8559  0.2533 -0.6415
  116OSM   H11G12182  -0.028   1.542   7.524  1.7327 -2.2357  1.4560
  116OSM   C12F12183  -0.088   1.509   7.716 -0.6364 -0.6491  0.7168
  116OSM   H12F12184  -0.035   1.605   7.736 -0.0888 -0.8623  0.3009
  116OSM   H12G12185  -0.012   1.430   7.733 -0.9758 -0.8007  1.6151
  116OSM   C13F12186  -0.201   1.498   7.815 -0.5607 -0.3254 -0.0134
  116OSM   H13F12187  -0.253   1.400   7.826 -2.8027  0.8545  0.4702
  116OSM   H13G12188  -0.280   1.564   7.775  0.0871 -0.6620 -1.9784
  116OSM   C14F12189  -0.157   1.530   7.959 -0.5687  0.4311 -0.1731
  116OSM   H14F12190  -0.238   1.503   8.030  0.6061 -0.8943  0.7112
  116OSM   H14G12191  -0.140   1.639   7.978  1.7134 -0.1782  1.8322
  116OSM   C15F12192  -0.020   1.459   7.998 -0.1938 -0.7943 -0.1592
  116OSM   H15F12193   0.060   1.479   7.924 -1.2415 -0.7505 -1.3036
  116OSM   H15G12194  -0.039   1.350   7.999  0.2632 -0.8743 -0.1689
  116OSM   C16F12195   0.028   1.483   8.141  0.1049 -0.3597 -0.3195
  116OSM   H16F12196  -0.043   1.433   8.210  0.5368  0.3128  0.6341
  116OSM   H16G12197   0.026   1.586   8.181  2.0499 -1.5531  3.3823
  116OSM   C17F12198   0.166   1.416   8.179 -0.1428 -0.5426 -0.2966
  116OSM   H17F12199   0.251   1.426   8.108 -0.0866 -2.4908 -0.5449
  116OSM   H17G12200   0.153   1.310   8.209  0.5832 -0.4521  0.3704
  116OSM   C18F12201   0.225   1.506   8.301 -0.4704  0.4142 -0.5496
  116OSM   H18F12202   0.251   1.607   8.261 -1.0665  1.1581  0.8738
  116OSM   H18G12203   0.323   1.463   8.327 -1.0034 -0.4127  0.1182
  116OSM   H18H12204   0.156   1.520   8.387 -2.0033  0.1873 -1.6895
  117OSM      N12205   1.880   5.275   6.035 -0.1868 -0.4853  0.3654
  117OSM    C1512206   2.010   5.242   5.973  0.6064 -0.7039 -0.1659
  117OSM   H15A12207   2.008   5.166   5.896 -0.3154  0.3037 -1.1630
  117OSM   H15B12208   2.084   5.200   6.040  2.0763  1.9747  0.0173
  117OSM   H15C12209   2.056   5.331   5.934 -2.0729  0.0658 -1.8120
  117OSM    C1412210   1.907   5.385   6.127 -0.1941 -0.8949 -0.6429
  117OSM   H14A12211   1.849   5.377   6.217 -0.6824 -0.9071 -0.9547
  117OSM   H14B12212   1.874   5.477   6.082 -0.0321  0.0617  1.1068
  117OSM   H14C12213   2.012   5.408   6.135 -0.6052  0.5789  1.3547
  117OSM    C1312214   1.774   5.323   5.930 -0.2066 -0.4291  0.2837
  117OSM   H13A12215   1.674   5.328   5.972 -1.1047  2.9272 -1.8304
  117OSM   H13B12216   1.772   5.259   5.843  3.5163 -1.4129  0.7631
  117OSM   H13C12217   1.793   5.425   5.900  1.3337 -0.8263 -0.1961
  117OSM    C1212218   1.817   5.160   6.114  0.8926  0.1434  0.3763
  117OSM   H12A12219   1.794   5.086   6.039 -1.7009  1.0210  0.2296
  117OSM   H12B12220   1.721   5.192   6.150  1.5281 -0.4238  2.7872
  117OSM    C1112221   1.900   5.092   6.229  0.4387 -0.4958  0.5776
  117OSM   H11A12222   1.830   5.026   6.285 -0.2218 -0.1709  0.1609
  117OSM   H11B12223   1.936   5.172   6.296  2.7253 -0.8348 -0.1842
  117OSM      P12224   2.000   4.864   6.119 -0.0612  0.0356 -0.0253
  117OSM    O1312225   1.859   4.826   6.095  0.1707 -0.4081  0.0822
  117OSM    O1412226   2.094   4.835   6.010  0.5685 -0.1705  0.2628
  117OSM    O1112227   2.067   4.781   6.237  0.4929 -0.3156  0.3462
  117OSM    O1212228   2.012   5.015   6.171  0.8031  0.4855 -0.6684
  117OSM    C1S12229   2.091   4.819   6.367  0.5389  0.1458  0.1865
  117OSM    H1S12230   2.094   4.930   6.381 -1.5379  0.1280  1.1000
  117OSM    H1T12231   2.191   4.782   6.399 -0.2576 -2.6106 -0.2946
  117OSM     NF12232   2.009   4.803   6.605  0.0744  0.6601 -0.1179
  117OSM    HNF12233   2.055   4.741   6.667  1.1598 -0.5747 -2.0738
  117OSM    C2S12234   1.986   4.752   6.466  0.2246  0.4422  0.5531
  117OSM    H2S12235   1.887   4.795   6.439  0.7994  2.4935  1.5090
  117OSM    C3S12236   1.992   4.602   6.453  0.1981  0.2004  0.3887
  117OSM    H3S12237   2.094   4.565   6.474  0.8614  1.3905 -0.6020
  117OSM     O312238   1.955   4.545   6.330  0.4415 -0.1630 -1.4392
  117OSM    HO312239   1.941   4.631   6.291 -1.1889  1.6840  2.6694
  117OSM    C4S12240   1.897   4.548   6.561  0.5356  0.1000  0.5005
  117OSM    H4S12241   1.944   4.568   6.658  0.0176 -3.0903  1.4965
  117OSM    C5S12242   1.782   4.480   6.561 -0.7389 -1.1828 -0.1705
  117OSM    H5S12243   1.730   4.458   6.466  0.1665 -0.1667 -0.9238
  117OSM    C6S12244   1.696   4.429   6.667  0.2784  0.8020  0.0725
  117OSM    H6S12245   1.687   4.318   6.670 -1.5249  0.7649 -2.7089
  117OSM    H6T12246   1.592   4.465   6.650  0.1046  0.2216 -0.1194
  117OSM    C7S12247   1.731   4.500   6.795  0.5742  0.3424 -0.2046
  117OSM    H7S12248   1.718   4.609   6.783 -1.0084  0.0874 -0.9879
  117OSM    H7T12249   1.836   4.475   6.822  0.2784  0.8649  1.5132
  117OSM    C8S12250   1.648   4.447   6.917 -0.0363  0.3885  0.7259
  117OSM    H8S12251   1.681   4.343   6.942  2.1177  0.3231 -1.8807
  117OSM    H8T12252   1.540   4.442   6.892  0.3967  0.3661 -1.3271
  117OSM    C9S12253   1.664   4.528   7.048 -0.6009 -0.2087  0.1769
  117OSM    H9S12254   1.566   4.571   7.079 -0.5128 -0.0912  0.2964
  117OSM    H9T12255   1.745   4.602   7.029 -0.5656 -0.1094  0.6844
  117OSM   C10S12256   1.695   4.435   7.165 -0.8538  0.0564  0.5003
  117OSM   H10S12257   1.791   4.383   7.143 -0.3610  0.8037  0.8603
  117OSM   H10T12258   1.624   4.349   7.170 -3.3450  2.0105  0.4034
  117OSM   C11S12259   1.707   4.506   7.303  0.2428  0.9227 -0.1399
  117OSM   H11S12260   1.627   4.583   7.308 -0.0341  0.5423  3.0247
  117OSM   H11T12261   1.801   4.564   7.300  1.6026 -1.2089 -0.8759
  117OSM   C12S12262   1.700   4.419   7.432 -0.6464  0.3166  0.0325
  117OSM   H12S12263   1.765   4.331   7.412 -0.7780  0.5177 -1.3625
  117OSM   H12T12264   1.591   4.400   7.444 -0.6746 -0.3048 -1.1091
  117OSM   C13S12265   1.757   4.489   7.555  0.2327 -0.0041  0.9187
  117OSM   H13S12266   1.697   4.582   7.569 -0.9859  0.0495 -3.3928
  117OSM   H13T12267   1.865   4.513   7.550  0.1737  0.0694 -0.3333
  117OSM   C14S12268   1.733   4.401   7.675  0.5899 -0.3288  0.0494
  117OSM   H14S12269   1.785   4.304   7.657  0.8580 -0.3284  0.7649
  117OSM   H14T12270   1.624   4.379   7.683  0.2803  1.7114  2.7074
  117OSM   C15S12271   1.795   4.477   7.800  0.4209  0.0850 -0.5220
  117OSM   H15S12272   1.745   4.575   7.808 -1.9495 -1.2070  2.7402
  117OSM   H15T12273   1.900   4.502   7.772  1.3304 -1.0900  1.5665
  117OSM   C16S12274   1.770   4.387   7.927 -0.2580 -0.9381 -0.1785
  117OSM   H16S12275   1.810   4.283   7.918  1.4335 -0.3307 -0.0826
  117OSM   H16T12276   1.660   4.383   7.941 -0.6616  2.0267 -1.6688
  117OSM   C17S12277   1.833   4.453   8.062 -0.2550  0.3673 -0.8751
  117OSM   H17S12278   1.804   4.558   8.085 -0.6314 -0.2279  1.7110
  117OSM   H17T12279   1.942   4.467   8.047  0.3070 -1.3504  1.0616
  117OSM   C18S12280   1.814   4.364   8.182 -0.5580 -0.5868 -0.0892
  117OSM   H18S12281   1.848   4.259   8.172  2.9703  0.3932  0.1104
  117OSM   H18T12282   1.710   4.368   8.221 -2.0982  3.5741 -3.7026
  117OSM   H18U12283   1.871   4.405   8.268 -3.6796 -0.2828  1.9911
  117OSM    C1F12284   1.978   4.925   6.643 -0.5493  0.5927  0.0161
  117OSM     OF12285   1.918   4.992   6.561 -0.3510 -0.2352  0.0016
  117OSM    C2F12286   2.046   4.977   6.769  0.1683  0.3490 -0.0872
  117OSM    H2F12287   2.103   5.069   6.742 -0.9335  0.5548 -1.8795
  117OSM    H2G12288   2.115   4.900   6.810 -0.4484 -0.4670 -0.5418
  117OSM    C3F12289   1.943   5.013   6.878  0.0293 -0.3860 -0.2109
  117OSM    H3F12290   1.869   5.080   6.830 -0.6801  0.1318  1.5107
  117OSM    H3G12291   1.989   5.065   6.966  0.3692  0.7565 -1.0346
  117OSM    C4F12292   1.871   4.887   6.938  0.0029 -0.4969 -0.1842
  117OSM    H4F12293   1.947   4.810   6.963 -1.1089 -2.0125 -1.3134
  117OSM    H4G12294   1.800   4.844   6.864  2.5471 -1.8934 -1.9527
  117OSM    C5F12295   1.779   4.918   7.061  0.2312  0.1578 -0.6396
  117OSM    H5F12296   1.723   4.822   7.058  3.6774 -2.0241 -2.8501
  117OSM    H5G12297   1.699   4.995   7.049  0.7232  0.3093 -3.7825
  117OSM    C6F12298   1.842   4.929   7.199 -0.2892 -0.2673 -0.6670
  117OSM    H6F12299   1.878   5.029   7.231  0.6892 -0.9272  0.3907
  117OSM    H6G12300   1.928   4.862   7.176  0.1734  0.7536 -2.0540
  117OSM    C7F12301   1.762   4.862   7.309  0.8375  0.1423 -0.1105
  117OSM    H7F12302   1.714   4.770   7.268 -2.8481  0.8097  2.2002
  117OSM    H7G12303   1.673   4.922   7.337  0.6854 -0.5133  0.8543
  117OSM    C8F12304   1.850   4.824   7.432  0.0983  0.9631 -0.0418
  117OSM    H8F12305   1.922   4.746   7.400  0.7498  1.3751  0.4064
  117OSM    H8G12306   1.785   4.769   7.504 -1.7619  1.8115 -0.9956
  117OSM    C9F12307   1.930   4.938   7.499 -0.7548 -0.1118  1.4246
  117OSM    H9F12308   1.966   5.023   7.439 -0.1919 -0.6172  1.0327
  117OSM   C10F12309   1.953   4.939   7.630 -0.0117  0.2608 -0.3798
  117OSM   H10F12310   2.002   5.030   7.668  1.0996 -0.6940  0.5604
  117OSM   C11F12311   1.906   4.837   7.729  0.4020 -0.0575  0.6744
  117OSM   H11F12312   1.915   4.737   7.683 -0.8885  0.7050 -1.3854
  117OSM   H11G12313   1.801   4.845   7.763 -0.2504 -4.4398  0.2002
  117OSM   C12F12314   1.983   4.848   7.863 -0.1721 -0.4894 -0.7777
  117OSM   H12F12315   2.084   4.892   7.849  0.5215 -0.2367  3.7939
  117OSM   H12G12316   1.981   4.750   7.916 -4.9727 -1.1313 -1.7001
  117OSM   C13F12317   1.915   4.953   7.955 -0.3845  0.3415  0.5358
  117OSM   H13F12318   1.854   5.019   7.889  1.1421 -1.3611 -2.8217
  117OSM   H13G12319   1.994   5.015   8.001  0.1718 -0.2441  0.3829
  117OSM   C14F12320   1.828   4.893   8.066  0.4913 -0.6654  0.3340
  117OSM   H14F12321   1.891   4.809   8.103  0.2372 -1.7896 -1.6326
  117OSM   H14G12322   1.734   4.849   8.027  0.1595 -0.4188  0.8488
  117OSM   C15F12323   1.773   4.990   8.176 -0.0661 -1.5287  0.1338
  117OSM   H15F12324   1.867   5.032   8.219  0.3768 -0.9599 -1.3278
  117OSM   H15G12325   1.715   4.942   8.258 -3.0283  1.0789 -0.2635
  117OSM   C16F12326   1.687   5.102   8.106 -0.1311  0.1227  0.4877
  117OSM   H16F12327   1.621   5.046   8.036  1.3820 -1.4342  0.2561
  117OSM   H16G12328   1.748   5.174   8.048 -1.8175  1.6988  0.5725
  117OSM   C17F12329   1.602   5.185   8.199  0.5206 -0.1911 -0.0345
  117OSM   H17F12330   1.562   5.117   8.276 -1.3583  0.4736 -0.3853
  117OSM   H17G12331   1.665   5.256   8.258  0.6101 -0.7797  0.5851
  117OSM   C18F12332   1.477   5.250   8.125 -0.3185 -0.0360 -0.5276
  117OSM   H18F12333   1.499   5.296   8.026 -1.4417  0.4965 -0.5406
  117OSM   H18G12334   1.437   5.335   8.184 -1.3678 -0.8147 -0.0926
  117OSM   H18H12335   1.399   5.172   8.107 -0.5280  0.0024  0.1874
  118OSM      N12336   4.258   4.848   6.108  0.3880  0.4009  0.7304
  118OSM    C1512337   4.118   4.907   6.097 -0.0620  0.2061 -0.5729
  118OSM   H15A12338   4.101   4.974   6.014 -0.7041 -0.6846 -1.1829
  118OSM   H15B12339   4.087   4.950   6.191 -0.5728 -0.4515 -0.4356
  118OSM   H15C12340   4.049   4.826   6.077  1.7741 -1.5378 -0.0736
  118OSM    C1412341   4.326   4.856   5.967  0.0697 -0.1765 -0.6883
  118OSM   H14A12342   4.261   4.796   5.904 -2.3033  1.0202  0.5013
  118OSM   H14B12343   4.426   4.815   5.972  0.4903  0.8401 -0.5987
  118OSM   H14C12344   4.326   4.957   5.928 -2.1055  0.7080  1.3428
  118OSM    C1312345   4.329   4.929   6.212 -0.2031  0.5867 -0.5800
  118OSM   H13A12346   4.434   4.902   6.216 -0.9718 -3.1901  4.1331
  118OSM   H13B12347   4.285   4.919   6.310 -0.8379 -0.1855 -0.9343
  118OSM   H13C12348   4.328   5.033   6.184  1.9574  0.8836  0.2000
  118OSM    C1212349   4.260   4.699   6.143  0.0357  0.1870  0.5691
  118OSM   H12A12350   4.235   4.637   6.058  1.6667 -2.5415  1.9414
  118OSM   H12B12351   4.180   4.675   6.211 -1.6259  2.8498 -0.2797
  118OSM    C1112352   4.390   4.644   6.215 -0.1672 -0.1133 -0.3780
  118OSM   H11A12353   4.361   4.539   6.236 -0.9302  0.1198 -0.2396
  118OSM   H11B12354   4.397   4.691   6.315 -1.3264  0.7993 -0.7012
  118OSM      P12355   4.557   4.549   6.032  0.4106  0.3148  0.3223
  118OSM    O1312356   4.439   4.496   5.961 -0.0163 -1.2208  0.3321
  118OSM    O1412357   4.660   4.608   5.947 -0.1707  0.2908  0.2313
  118OSM    O1112358   4.623   4.435   6.122 -0.0151  0.2323 -0.0838
  118OSM    O1212359   4.515   4.661   6.134  0.5330 -0.0966  0.2363
  118OSM    C1S12360   4.722   4.444   6.216  0.5037  0.1027  0.0440
  118OSM    H1S12361   4.774   4.540   6.194 -1.4011  0.8264 -1.6893
  118OSM    H1T12362   4.794   4.360   6.214  1.3744  0.8505 -0.6065
  118OSM     NF12363   4.776   4.476   6.443  0.2751 -0.3266 -0.4988
  118OSM    HNF12364   4.821   4.399   6.487  1.3732  1.2649  1.3640
  118OSM    C2S12365   4.663   4.455   6.357 -0.2801 -0.3353 -0.3542
  118OSM    H2S12366   4.603   4.548   6.363 -1.5175 -0.7607 -3.7860
  118OSM    C3S12367   4.577   4.329   6.382  0.0410  0.1137  0.1098
  118OSM    H3S12368   4.635   4.238   6.354 -0.4929 -0.1943 -0.0023
  118OSM     O312369   4.451   4.330   6.302 -0.6598  0.0508  0.2508
  118OSM    HO312370   4.477   4.372   6.220  0.7472 -2.4697 -0.7172
  118OSM    C4S12371   4.546   4.317   6.530 -0.3124  0.0091 -0.1833
  118OSM    H4S12372   4.627   4.269   6.586  0.2588  0.5003 -0.5729
  118OSM    C5S12373   4.432   4.350   6.597  0.3716 -0.5592 -0.0651
  118OSM    H5S12374   4.340   4.393   6.556  0.6537  0.5922  0.4866
  118OSM    C6S12375   4.422   4.342   6.750 -0.2689 -0.1740 -0.0548
  118OSM    H6S12376   4.316   4.335   6.782 -0.5321 -0.4048 -0.9338
  118OSM    H6T12377   4.463   4.437   6.791  0.3822 -0.8015  0.7604
  118OSM    C7S12378   4.498   4.228   6.819 -0.5932  0.2119  0.1685
  118OSM    H7S12379   4.605   4.238   6.789 -0.6215 -0.8741 -0.3342
  118OSM    H7T12380   4.452   4.140   6.768 -0.0366 -0.7687  1.3077
  118OSM    C8S12381   4.477   4.216   6.969  0.1028  0.3928 -0.1210
  118OSM    H8S12382   4.368   4.220   6.988  0.2227  3.1206  0.3990
  118OSM    H8T12383   4.523   4.303   7.021 -0.0188 -0.7439  2.0226
  118OSM    C9S12384   4.525   4.091   7.038 -0.3089  0.5471  0.0222
  118OSM    H9S12385   4.635   4.076   7.028 -0.4189 -1.9626  1.7189
  118OSM    H9T12386   4.481   3.999   6.995 -0.6844  0.7892 -0.1115
  118OSM   C10S12387   4.507   4.116   7.188  0.1165 -1.1064  0.2154
  118OSM   H10S12388   4.401   4.139   7.211 -0.3754 -3.7859  0.9369
  118OSM   H10T12389   4.564   4.210   7.202 -0.7739 -0.5102 -0.0790
  118OSM   C11S12390   4.543   4.005   7.285 -0.2921 -0.7530 -0.2262
  118OSM   H11S12391   4.653   3.993   7.291 -0.3990 -1.1014  2.2179
  118OSM   H11T12392   4.510   3.906   7.246  0.0466 -0.1264 -2.1918
  118OSM   C12S12393   4.503   4.046   7.429  0.0868  0.9162  0.1787
  118OSM   H12S12394   4.393   4.038   7.444  0.2935 -0.0355  1.4335
  118OSM   H12T12395   4.538   4.151   7.435  2.0657  0.4761 -2.1874
  118OSM   C13S12396   4.574   3.960   7.545 -0.0481 -0.2583  0.5344
  118OSM   H13S12397   4.684   3.972   7.534 -0.0489  0.1569  0.9491
  118OSM   H13T12398   4.550   3.852   7.531  2.1853 -0.6064 -1.2952
  118OSM   C14S12399   4.533   3.998   7.685  0.2016 -0.2538 -0.3494
  118OSM   H14S12400   4.423   3.984   7.686  0.0812  0.3549 -2.0168
  118OSM   H14T12401   4.560   4.105   7.697 -0.7222 -0.1343  0.8425
  118OSM   C15S12402   4.591   3.917   7.803  0.0734  0.3537  0.3991
  118OSM   H15S12403   4.699   3.920   7.829  0.3608  1.0429 -0.8214
  118OSM   H15T12404   4.570   3.814   7.768 -0.3223  0.5713 -0.0021
  118OSM   C16S12405   4.519   3.952   7.930 -0.8459  0.1279  0.8418
  118OSM   H16S12406   4.411   3.929   7.923 -0.6172 -0.9580  0.7073
  118OSM   H16T12407   4.533   4.062   7.938  1.6509  0.1341 -1.8497
  118OSM   C17S12408   4.588   3.880   8.043 -0.3698  0.3714  0.3655
  118OSM   H17S12409   4.695   3.906   8.039 -0.2215 -0.2306  0.3218
  118OSM   H17T12410   4.576   3.771   8.020  1.6530  0.2486 -0.2228
  118OSM   C18S12411   4.534   3.897   8.189  0.4820  0.7249  0.4009
  118OSM   H18S12412   4.592   3.838   8.263 -1.4795 -0.8913  0.7571
  118OSM   H18T12413   4.433   3.849   8.190  1.5276 -1.5940  0.9205
  118OSM   H18U12414   4.520   4.003   8.218 -1.2655  1.1646 -1.7653
  118OSM    C1F12415   4.829   4.595   6.454 -0.8576  0.3041 -0.0785
  118OSM     OF12416   4.799   4.690   6.383 -0.6456 -0.3883 -0.3987
  118OSM    C2F12417   4.928   4.601   6.563 -0.4186 -0.1286  0.3568
  118OSM    H2F12418   4.997   4.515   6.549  1.3304  1.2264  0.3377
  118OSM    H2G12419   4.875   4.585   6.660 -2.0874  1.0671 -0.3179
  118OSM    C3F12420   5.008   4.728   6.569 -0.2446  0.2746 -0.9305
  118OSM    H3F12421   4.938   4.813   6.580 -0.5203  0.0796 -1.1647
  118OSM    H3G12422   5.065   4.752   6.476  0.7328  0.5213 -0.2865
  118OSM    C4F12423   5.098   4.741   6.687 -0.8712  0.6600  0.3703
  118OSM    H4F12424   5.088   4.645   6.744 -0.4779 -0.1882 -0.9438
  118OSM    H4G12425   5.061   4.816   6.760 -0.6739  0.1918  0.9725
  118OSM    C5F12426   5.240   4.780   6.654 -0.0625 -0.2557  0.0635
  118OSM    H5F12427   5.239   4.886   6.619  3.0477 -0.2151 -0.1845
  118OSM    H5G12428   5.281   4.716   6.573  2.4936 -1.1763  1.9644
  118OSM    C6F12429   5.339   4.777   6.772 -0.0581  0.0854 -0.0659
  118OSM    H6F12430   5.363   4.670   6.787 -0.9320 -0.1550 -0.3194
  118OSM    H6G12431   5.298   4.810   6.870 -3.0255 -1.6494 -0.6242
  118OSM    C7F12432   5.465   4.857   6.739 -0.2211  0.1946  0.2796
  118OSM    H7F12433   5.445   4.955   6.691  3.0424  1.4078  1.0993
  118OSM    H7G12434   5.536   4.803   6.673 -1.4280 -0.2081 -0.7135
  118OSM    C8F12435   5.553   4.910   6.861 -0.2751  0.5858  0.0311
  118OSM    H8F12436   5.491   4.967   6.933 -1.2778 -1.9346  1.3068
  118OSM    H8G12437   5.626   4.979   6.812  1.0822  1.1847  2.6898
  118OSM    C9F12438   5.627   4.790   6.931 -0.0641 -0.3370 -0.5234
  118OSM    H9F12439   5.672   4.718   6.861  1.1387  0.2474 -0.3807
  118OSM   C10F12440   5.632   4.765   7.066 -0.3164  0.3735  0.0578
  118OSM   H10F12441   5.693   4.681   7.101 -0.2479 -0.7826 -2.5910
  118OSM   C11F12442   5.567   4.864   7.161 -0.5515 -0.6639 -0.8170
  118OSM   H11F12443   5.469   4.829   7.201 -1.1475  1.6187 -0.1299
  118OSM   H11G12444   5.541   4.963   7.118  3.0561  0.7310 -0.1477
  118OSM   C12F12445   5.649   4.902   7.292  0.4188 -0.3490 -1.0431
  118OSM   H12F12446   5.752   4.937   7.270  1.4594 -1.6561  1.3585
  118OSM   H12G12447   5.661   4.809   7.351 -0.9777  1.1921  1.9013
  118OSM   C13F12448   5.590   5.004   7.387  0.2245  0.1454 -0.5237
  118OSM   H13F12449   5.479   4.997   7.399  0.1748  1.2015 -0.2067
  118OSM   H13G12450   5.608   5.103   7.340 -1.2169  0.9696  0.5420
  118OSM   C14F12451   5.646   4.996   7.526  0.8410 -0.4427 -0.5332
  118OSM   H14F12452   5.628   5.091   7.580 -0.8613 -0.6213 -0.7477
  118OSM   H14G12453   5.757   4.992   7.522  0.8545 -1.6823  0.4885
  118OSM   C15F12454   5.587   4.883   7.610 -0.4489 -0.1500 -0.9667
  118OSM   H15F12455   5.660   4.801   7.591 -0.3077 -0.1813 -0.3295
  118OSM   H15G12456   5.487   4.845   7.580 -0.3350 -1.4910  0.2634
  118OSM   C16F12457   5.589   4.913   7.758 -0.0006 -0.0435 -0.0956
  118OSM   H16F12458   5.520   4.833   7.791 -1.1155  0.6942 -0.5892
  118OSM   H16G12459   5.534   5.007   7.777 -0.0534 -0.3302  1.2599
  118OSM   C17F12460   5.719   4.911   7.834 -0.0980  0.1273  0.0781
  118OSM   H17F12461   5.787   4.962   7.763  1.0486 -2.3725 -0.7385
  118OSM   H17G12462   5.768   4.811   7.839 -0.2249  0.1147  1.5481
  118OSM   C18F12463   5.713   4.971   7.980 -0.0063 -0.4301 -0.1093
  118OSM   H18F12464   5.683   4.896   8.057 -1.5762 -2.1828 -2.3235
  118OSM   H18G12465   5.646   5.057   7.999 -0.5169 -1.1251  1.4381
  118OSM   H18H12466   5.814   5.004   8.011  1.0230 -1.7785 -1.8155
  119OSM      N12467   6.809   6.376   5.500  0.0081 -0.8337  0.4242
  119OSM    C1512468   6.912   6.475   5.445  0.6625 -0.0316  0.1596
  119OSM   H15A12469   6.865   6.557   5.392  1.3184  0.2134 -0.0519
  119OSM   H15B12470   6.982   6.427   5.378  2.2984  1.1897  0.9297
  119OSM   H15C12471   6.972   6.518   5.524  0.0092 -0.0135  0.6480
  119OSM    C1412472   6.717   6.326   5.392 -0.4286 -0.0252  0.0290
  119OSM   H14A12473   6.772   6.289   5.308  2.0707 -1.3614  2.1021
  119OSM   H14B12474   6.649   6.405   5.364  0.6537  0.1394 -2.3536
  119OSM   H14C12475   6.652   6.245   5.421 -2.0740 -0.4053 -4.1698
  119OSM    C1312476   6.888   6.256   5.556 -0.2989 -0.2740 -0.7069
  119OSM   H13A12477   6.817   6.199   5.614  0.3749 -0.2422  0.1813
  119OSM   H13B12478   6.972   6.283   5.620 -0.7279  0.7098 -0.5391
  119OSM   H13C12479   6.927   6.195   5.476  0.5368  0.2266 -0.7016
  119OSM    C1212480   6.731   6.452   5.604 -0.1643 -0.6157 -0.3242
  119OSM   H12A12481   6.653   6.385   5.637 -0.8861 -0.4665 -1.6730
  119OSM   H12B12482   6.684   6.546   5.576 -1.8137 -1.0439  0.8299
  119OSM    C1112483   6.794   6.485   5.741 -0.5128  0.1513 -0.4207
  119OSM   H11A12484   6.823   6.398   5.803  1.6424  0.5341 -0.8146
  119OSM   H11B12485   6.722   6.541   5.804  0.4835 -0.7369  1.5941
  119OSM      P12486   7.041   6.565   5.795  0.0626  0.0924 -0.4637
  119OSM    O1312487   7.155   6.579   5.705 -0.0945 -0.0366  0.6683
  119OSM    O1412488   7.040   6.652   5.917  0.1466 -0.0126  0.3859
  119OSM    O1112489   7.043   6.416   5.839 -0.2939  0.2709  0.4813
  119OSM    O1212490   6.905   6.567   5.720 -0.0097  0.2405 -0.5071
  119OSM    C1S12491   7.107   6.364   5.959 -0.6613 -0.0264 -0.2527
  119OSM    H1S12492   7.176   6.443   5.998  3.9066 -2.7521 -2.0227
  119OSM    H1T12493   7.178   6.282   5.933  1.0785  1.4457 -0.4075
  119OSM     NF12494   7.059   6.289   6.194 -0.3045 -0.2654  0.8788
  119OSM    HNF12495   7.076   6.194   6.220  0.9217  0.1722  1.7814
  119OSM    C2S12496   7.001   6.319   6.065 -0.1544  0.5930  0.2336
  119OSM    H2S12497   6.936   6.409   6.074  1.4948  1.9554 -0.9508
  119OSM    C3S12498   6.918   6.194   6.018 -0.2227 -0.1459 -0.0794
  119OSM    H3S12499   6.977   6.101   6.033 -0.7949 -0.5779 -0.4403
  119OSM     O312500   6.892   6.183   5.878 -0.2061  0.4655 -0.0596
  119OSM    HO312501   6.944   6.259   5.849  0.6305  0.3008  0.9565
  119OSM    C4S12502   6.798   6.181   6.102 -0.2555  0.5032  1.3274
  119OSM    H4S12503   6.808   6.121   6.193  1.6091 -0.9449  0.2367
  119OSM    C5S12504   6.674   6.226   6.066  0.2335 -0.2705 -0.0001
  119OSM    H5S12505   6.652   6.267   5.966  0.4073 -0.8637 -0.2825
  119OSM    C6S12506   6.552   6.204   6.153 -0.7939 -0.4274 -0.4482
  119OSM    H6S12507   6.467   6.259   6.110 -0.9982 -1.9113 -2.0568
  119OSM    H6T12508   6.571   6.258   6.248 -0.9311  1.2368 -1.3318
  119OSM    C7S12509   6.517   6.054   6.165 -0.4985  0.3630 -0.4142
  119OSM    H7S12510   6.600   5.987   6.194 -1.4756 -1.3238 -1.3398
  119OSM    H7T12511   6.480   6.029   6.064 -0.0410  0.9795 -0.7393
  119OSM    C8S12512   6.401   6.034   6.269  0.5233 -1.0658  0.4986
  119OSM    H8S12513   6.375   5.926   6.269  2.3038 -1.6531 -3.0163
  119OSM    H8T12514   6.312   6.092   6.239  1.1564  0.8646  2.0981
  119OSM    C9S12515   6.438   6.072   6.408  0.4310  0.4483  0.8495
  119OSM    H9S12516   6.457   6.182   6.417  1.9093  0.2395  0.5643
  119OSM    H9T12517   6.529   6.008   6.419  1.8713  2.0364 -1.0664
  119OSM   C10S12518   6.325   6.037   6.503  0.4474  0.3395 -0.0317
  119OSM   H10S12519   6.305   5.932   6.474  1.5487  0.2901 -0.6796
  119OSM   H10T12520   6.235   6.101   6.498 -0.3313 -0.6124  1.1811
  119OSM   C11S12521   6.379   6.052   6.644  0.3115 -0.0799  0.1632
  119OSM   H11S12522   6.415   6.157   6.657 -0.1977  0.0664  0.3915
  119OSM   H11T12523   6.466   5.984   6.655  1.3610  1.2652  0.5266
  119OSM   C12S12524   6.275   6.034   6.751  1.3204 -0.8526 -0.1109
  119OSM   H12S12525   6.232   5.932   6.751 -0.1803 -0.3248  3.1851
  119OSM   H12T12526   6.189   6.103   6.739 -1.5917 -4.0564  0.9155
  119OSM   C13S12527   6.336   6.054   6.890  0.6758 -0.8189  0.0480
  119OSM   H13S12528   6.361   6.162   6.891 -2.6270  0.0730  1.2695
  119OSM   H13T12529   6.431   6.004   6.919  0.3278 -1.0878  0.7569
  119OSM   C14S12530   6.234   6.033   6.999 -0.7124  0.4575  0.3107
  119OSM   H14S12531   6.181   5.936   6.990 -0.5729  0.4773 -0.8150
  119OSM   H14T12532   6.160   6.115   6.992 -1.5256 -0.3337 -0.6593
  119OSM   C15S12533   6.308   6.040   7.135  0.3827 -0.2869 -0.5092
  119OSM   H15S12534   6.347   6.142   7.152  0.0317 -0.6702  3.6740
  119OSM   H15T12535   6.384   5.959   7.129  1.0749  0.3232 -0.0984
  119OSM   C16S12536   6.212   6.000   7.258 -0.4262  0.0150  0.5137
  119OSM   H16S12537   6.157   5.906   7.236  1.4024 -1.6282  2.5083
  119OSM   H16T12538   6.129   6.074   7.264  0.0435  1.0063 -2.9021
  119OSM   C17S12539   6.294   5.968   7.384  0.0925  0.3177  0.0463
  119OSM   H17S12540   6.391   6.021   7.368 -0.5938  1.1868 -1.4877
  119OSM   H17T12541   6.314   5.859   7.392 -0.4605  0.2637  0.8922
  119OSM   C18S12542   6.218   5.999   7.519  0.6126  0.5326  0.4027
  119OSM   H18S12543   6.107   5.996   7.507  0.7916  0.5472 -1.6573
  119OSM   H18T12544   6.240   6.103   7.551 -2.7615  0.6233  3.0593
  119OSM   H18U12545   6.250   5.928   7.598  0.9221  2.3766  1.9932
  119OSM    C1F12546   7.090   6.377   6.286 -0.6775  0.6190  0.1558
  119OSM     OF12547   7.078   6.499   6.270  0.1038  0.1586 -0.0104
  119OSM    C2F12548   7.140   6.319   6.419 -0.2922  0.7896  0.2812
  119OSM    H2F12549   7.167   6.216   6.388 -0.3259  1.6817 -3.0406
  119OSM    H2G12550   7.057   6.298   6.490 -0.6822 -1.6975 -0.8102
  119OSM    C3F12551   7.264   6.388   6.490  0.1769  0.9874  0.7604
  119OSM    H3F12552   7.229   6.483   6.535  0.2766  1.4411 -0.0813
  119OSM    H3G12553   7.347   6.403   6.417  0.2625 -3.3312 -0.2725
  119OSM    C4F12554   7.335   6.306   6.603  1.3324 -0.0854 -0.1931
  119OSM    H4F12555   7.427   6.365   6.627  1.5316 -0.1152 -0.8679
  119OSM    H4G12556   7.360   6.204   6.568 -1.5184 -0.7910 -0.3597
  119OSM    C5F12557   7.240   6.296   6.726  0.2045  0.4959  0.2216
  119OSM    H5F12558   7.136   6.275   6.693  0.2152  1.4228 -0.4394
  119OSM    H5G12559   7.231   6.394   6.776 -2.6563 -0.2546  1.3937
  119OSM    C6F12560   7.288   6.191   6.830 -0.1742 -0.8872  0.2857
  119OSM    H6F12561   7.378   6.235   6.878 -1.2319  2.4095 -0.5091
  119OSM    H6G12562   7.338   6.103   6.783 -0.4432 -1.8023  1.6707
  119OSM    C7F12563   7.189   6.134   6.929  0.9241 -0.5800 -0.2269
  119OSM    H7F12564   7.106   6.088   6.870  1.9664 -1.1487 -1.2911
  119OSM    H7G12565   7.143   6.214   6.991  0.2236 -1.7092  0.7693
  119OSM    C8F12566   7.261   6.019   7.014  0.6889 -0.1188 -0.0743
  119OSM    H8F12567   7.314   5.946   6.949  3.1944 -0.7854  2.5524
  119OSM    H8G12568   7.178   5.960   7.059 -0.4072  0.9596 -0.5960
  119OSM    C9F12569   7.356   6.066   7.117  0.2100 -0.7693  0.7599
  119OSM    H9F12570   7.464   6.051   7.102  0.1472 -1.3414  0.8700
  119OSM   C10F12571   7.308   6.125   7.233  0.0115  0.2525 -0.0523
  119OSM   H10F12572   7.388   6.148   7.305 -0.2978  1.5339 -0.1002
  119OSM   C11F12573   7.166   6.151   7.279 -0.3121  0.8651  0.4636
  119OSM   H11F12574   7.094   6.113   7.203 -0.0340  2.5363 -0.6946
  119OSM   H11G12575   7.149   6.261   7.280 -0.1018  0.9306  3.1535
  119OSM   C12F12576   7.146   6.097   7.417  0.8276  0.1900  0.0001
  119OSM   H12F12577   7.178   5.991   7.411  4.3904  1.1765 -1.3011
  119OSM   H12G12578   7.038   6.115   7.436  1.0030  2.0078 -0.5033
  119OSM   C13F12579   7.219   6.171   7.526 -0.1021  0.0113 -0.0289
  119OSM   H13F12580   7.219   6.281   7.514  1.4680 -0.1125 -1.5153
  119OSM   H13G12581   7.326   6.143   7.528  0.5522  2.3615  1.4621
  119OSM   C14F12582   7.155   6.144   7.665 -0.1477 -0.0281  0.4328
  119OSM   H14F12583   7.153   6.034   7.679  0.5464 -0.1434 -0.3504
  119OSM   H14G12584   7.057   6.197   7.676  0.5813  1.2093  1.1813
  119OSM   C15F12585   7.241   6.199   7.773 -0.4385 -0.7899 -0.2368
  119OSM   H15F12586   7.225   6.309   7.780 -3.3240 -1.0918 -0.6781
  119OSM   H15G12587   7.347   6.182   7.747  0.1727  1.2291  0.6950
  119OSM   C16F12588   7.212   6.135   7.914 -0.0337  0.0915 -0.1466
  119OSM   H16F12589   7.282   6.177   7.989  0.6791  2.9239 -2.2095
  119OSM   H16G12590   7.215   6.025   7.902  1.4021  0.2633 -1.7737
  119OSM   C17F12591   7.070   6.184   7.960  0.4061 -0.2063  0.7041
  119OSM   H17F12592   6.994   6.163   7.882  1.0512 -1.0361  0.2840
  119OSM   H17G12593   7.064   6.295   7.970  2.2197  0.1175 -1.0415
  119OSM   C18F12594   7.032   6.111   8.088  0.1609 -0.2049 -0.0691
  119OSM   H18F12595   6.925   6.134   8.105 -0.4232 -1.2200 -2.1774
  119OSM   H18G12596   7.089   6.131   8.182 -0.6498  0.4325  0.3030
  119OSM   H18H12597   7.034   6.002   8.071  3.7424 -0.5276  1.4264
  120OSM      N12598   3.199   1.978   6.006  0.7189 -0.0603 -0.5312
  120OSM    C1512599   3.201   1.957   6.151 -0.5301  0.1662 -0.4555
  120OSM   H15A12600   3.103   1.961   6.195 -0.6273  1.3150 -0.7726
  120OSM   H15B12601   3.261   2.026   6.208  2.1505 -2.5662  0.3050
  120OSM   H15C12602   3.233   1.857   6.176 -0.6474  0.7107  2.1781
  120OSM    C1412603   3.124   1.852   5.959 -0.1743 -0.8071  0.2061
  120OSM   H14A12604   3.017   1.857   5.972 -0.4334  1.1176 -1.9935
  120OSM   H14B12605   3.150   1.763   6.014  0.4221  0.2990  1.7939
  120OSM   H14C12606   3.151   1.856   5.854  0.5661  1.0131  0.4233
  120OSM    C1312607   3.112   2.102   5.998  0.5929  0.6803 -0.6414
  120OSM   H13A12608   3.101   2.143   5.899  0.7578 -1.5295 -1.6300
  120OSM   H13B12609   3.157   2.179   6.058 -0.9338  1.6176 -0.6381
  120OSM   H13C12610   3.007   2.086   6.017  0.5573 -0.1910 -1.5041
  120OSM    C1212611   3.345   1.995   5.959  0.2115  0.5194  0.1833
  120OSM   H12A12612   3.343   2.015   5.853  0.0972  1.5161  0.3596
  120OSM   H12B12613   3.402   1.905   5.977  1.5345  1.4532  0.8499
  120OSM    C1112614   3.417   2.120   6.014  0.4527  0.0013  0.1067
  120OSM   H11A12615   3.343   2.198   5.988  0.3080 -0.1923 -0.0707
  120OSM   H11B12616   3.512   2.149   5.965  0.3993 -0.5134 -0.3176
  120OSM      P12617   3.518   2.213   6.221  0.2654 -0.1997  0.2625
  120OSM    O1312618   3.651   2.205   6.163 -0.0639  0.0416 -0.0303
  120OSM    O1412619   3.443   2.344   6.200 -0.0231  0.2007  0.2471
  120OSM    O1112620   3.529   2.181   6.370 -0.3020 -0.0000  0.2072
  120OSM    O1212621   3.442   2.099   6.155 -0.2263 -0.1908  0.6147
  120OSM    C1S12622   3.428   2.156   6.465 -0.3915 -0.5568  0.2555
  120OSM    H1S12623   3.392   2.051   6.460  2.8603 -1.9413  2.3154
  120OSM    H1T12624   3.343   2.224   6.441  0.2718 -0.1709 -1.0705
  120OSM     NF12625   3.390   2.122   6.706 -0.2753 -0.2715  0.3423
  120OSM    HNF12626   3.308   2.177   6.716 -1.6343 -1.5752 -2.5082
  120OSM    C2S12627   3.482   2.184   6.610  1.2598  0.4499  0.9333
  120OSM    H2S12628   3.586   2.147   6.618  1.2166  0.0257 -0.3123
  120OSM    C3S12629   3.504   2.334   6.633  0.3480 -0.3332  0.9543
  120OSM    H3S12630   3.413   2.390   6.601 -0.6954 -3.6882 -2.6629
  120OSM     O312631   3.617   2.386   6.552  0.1150 -0.3879 -0.2145
  120OSM    HO312632   3.651   2.303   6.518 -0.1640 -0.2993 -0.7071
  120OSM    C4S12633   3.544   2.361   6.771 -0.3565 -0.8654 -0.0130
  120OSM    H4S12634   3.627   2.293   6.797 -1.7735 -3.3090 -1.5357
  120OSM    C5S12635   3.480   2.432   6.866  0.3214  0.5591  0.3415
  120OSM    H5S12636   3.378   2.467   6.845  0.9455  0.9264 -2.5062
  120OSM    C6S12637   3.508   2.445   7.013  0.4259  0.4953 -0.5656
  120OSM    H6S12638   3.420   2.414   7.074 -1.0009  1.4927 -2.0420
  120OSM    H6T12639   3.524   2.551   7.040 -0.9173 -0.3411  4.6756
  120OSM    C7S12640   3.626   2.361   7.066  0.4952 -0.1088 -0.0285
  120OSM    H7S12641   3.720   2.379   7.008  1.7547  0.5315  2.0918
  120OSM    H7T12642   3.602   2.253   7.057 -0.4739  0.1656 -0.8256
  120OSM    C8S12643   3.658   2.379   7.215 -0.2639 -0.9987 -0.4634
  120OSM    H8S12644   3.595   2.305   7.268 -0.7785  0.0195  0.3788
  120OSM    H8T12645   3.640   2.478   7.262  4.0591  0.2421 -0.9237
  120OSM    C9S12646   3.803   2.342   7.238 -0.0146  0.0936  0.1763
  120OSM    H9S12647   3.863   2.429   7.204  2.8104 -1.7135  0.1884
  120OSM    H9T12648   3.836   2.254   7.178 -0.0809  0.5233 -0.5065
  120OSM   C10S12649   3.836   2.307   7.382 -0.0161  0.5444 -0.5330
  120OSM   H10S12650   3.809   2.201   7.403  1.8525  0.3059  0.9709
  120OSM   H10T12651   3.771   2.374   7.442 -1.0659 -1.3071  0.5016
  120OSM   C11S12652   3.985   2.335   7.405  1.0093 -0.7461  0.3743
  120OSM   H11S12653   4.005   2.444   7.406  2.0469 -0.9319  0.6894
  120OSM   H11T12654   4.039   2.276   7.327  1.8115 -0.7139  0.8993
  120OSM   C12S12655   4.027   2.262   7.537  0.3076 -0.1179  0.0200
  120OSM   H12S12656   4.124   2.303   7.574 -0.0777  1.1816 -0.3422
  120OSM   H12T12657   4.043   2.156   7.510  0.3764  0.0608 -0.6766
  120OSM   C13S12658   3.944   2.279   7.657 -0.2455  0.5527  0.8432
  120OSM   H13S12659   3.845   2.232   7.638  0.0110  0.9906 -1.8507
  120OSM   H13T12660   3.920   2.387   7.673  0.4247  1.0629 -1.3489
  120OSM   C14S12661   4.008   2.217   7.780 -0.2872  0.0230  0.0890
  120OSM   H14S12662   4.119   2.216   7.775 -0.2455 -2.5471  0.2451
  120OSM   H14T12663   3.977   2.111   7.766  2.4655 -0.6409 -1.8111
  120OSM   C15S12664   3.961   2.282   7.911 -0.3278  0.7107 -0.4777
  120OSM   H15S12665   3.852   2.298   7.896 -1.0339 -0.7614  2.3106
  120OSM   H15T12666   4.021   2.372   7.935  1.4933 -0.8831  1.3167
  120OSM   C16S12667   3.966   2.185   8.037 -0.2021 -0.8435  0.0391
  120OSM   H16S12668   3.895   2.102   8.020 -2.1444  0.9712 -1.1822
  120OSM   H16T12669   3.927   2.249   8.119 -0.1429 -0.2397 -0.3970
  120OSM   C17S12670   4.107   2.145   8.068 -0.2404  1.1259  0.6326
  120OSM   H17S12671   4.143   2.079   7.986 -0.1416 -0.8823  2.2211
  120OSM   H17T12672   4.106   2.082   8.159 -0.9738  0.6977  0.3405
  120OSM   C18S12673   4.204   2.256   8.097  0.0793 -0.6541 -0.1794
  120OSM   H18S12674   4.297   2.220   8.146  2.3690  2.8146 -1.6270
  120OSM   H18T12675   4.169   2.327   8.175  0.6248  1.8813 -2.1317
  120OSM   H18U12676   4.226   2.308   8.002  0.5448 -1.6063 -0.6089
  120OSM    C1F12677   3.385   1.991   6.727 -0.0290  0.4510 -0.0721
  120OSM     OF12678   3.485   1.919   6.696  0.2228 -0.3428 -0.2844
  120OSM    C2F12679   3.255   1.930   6.770  0.2095  0.1604 -0.2678
  120OSM    H2F12680   3.199   1.898   6.680 -1.4989  0.2102  0.7134
  120OSM    H2G12681   3.187   2.001   6.822  1.5047  0.4731  1.0678
  120OSM    C3F12682   3.284   1.803   6.858 -0.8379 -0.1407  0.1932
  120OSM    H3F12683   3.333   1.720   6.803  0.7264  0.4455  0.6225
  120OSM    H3G12684   3.184   1.761   6.879 -0.5956 -1.5662 -1.3811
  120OSM    C4F12685   3.360   1.839   6.989  0.4114 -0.4894 -0.5981
  120OSM    H4F12686   3.464   1.866   6.961 -0.5310 -0.2670 -4.3089
  120OSM    H4G12687   3.377   1.744   7.043  2.6948 -0.8586 -1.8736
  120OSM    C5F12688   3.287   1.941   7.082  0.4993  0.3448  0.6348
  120OSM    H5F12689   3.181   1.908   7.087  1.1261 -2.1927 -1.1047
  120OSM    H5G12690   3.286   2.040   7.031 -0.7532 -0.3856 -0.8414
  120OSM    C6F12691   3.348   1.973   7.227  0.8922  0.8867  0.0583
  120OSM    H6F12692   3.259   2.028   7.265  0.1049 -0.5008  0.2892
  120OSM    H6G12693   3.431   2.046   7.218  0.4983  1.3419  0.0587
  120OSM    C7F12694   3.380   1.857   7.320  0.2217  0.1420 -0.4569
  120OSM    H7F12695   3.473   1.807   7.285 -0.3881 -1.8088  0.5659
  120OSM    H7G12696   3.300   1.783   7.297  0.8077  0.4629 -4.3163
  120OSM    C8F12697   3.397   1.895   7.472 -0.1436  0.0016 -0.0859
  120OSM    H8F12698   3.411   1.797   7.522 -1.4809 -0.6080 -0.8442
  120OSM    H8G12699   3.299   1.940   7.498  1.4687  4.7990 -1.3220
  120OSM    C9F12700   3.519   1.985   7.485 -0.8074  0.1853  0.6586
  120OSM    H9F12701   3.554   2.030   7.391 -2.8869  2.9190  1.0767
  120OSM   C10F12702   3.568   2.036   7.598  0.1106  0.7730 -0.1639
  120OSM   H10F12703   3.661   2.094   7.591  0.8676 -0.4569 -0.5669
  120OSM   C11F12704   3.512   2.004   7.736  0.2238  0.3906  1.1203
  120OSM   H11F12705   3.573   1.924   7.783  1.7960  1.0952  0.3440
  120OSM   H11G12706   3.404   1.980   7.737  0.3030  0.0464  1.3095
  120OSM   C12F12707   3.544   2.121   7.830  0.9322  0.0745 -0.5516
  120OSM   H12F12708   3.475   2.205   7.809  0.3703 -0.6378 -1.6486
  120OSM   H12G12709   3.647   2.156   7.807  1.3961 -0.6745  0.3091
  120OSM   C13F12710   3.540   2.081   7.978  0.3883 -0.3910 -0.6158
  120OSM   H13F12711   3.574   2.166   8.040 -0.5275 -1.2117  1.0941
  120OSM   H13G12712   3.608   1.996   8.000  3.9777  2.4565  0.3248
  120OSM   C14F12713   3.400   2.039   8.021 -0.0830  0.4237  0.3643
  120OSM   H14F12714   3.362   1.954   7.961 -1.6241 -0.1184  2.0084
  120OSM   H14G12715   3.328   2.116   7.986  0.0077  0.0490 -0.6615
  120OSM   C15F12716   3.386   1.999   8.173 -0.2008 -0.3140 -0.0269
  120OSM   H15F12717   3.477   1.958   8.222  0.1562  0.9106  0.3768
  120OSM   H15G12718   3.300   1.930   8.184  0.0661 -0.3717  2.2261
  120OSM   C16F12719   3.347   2.120   8.257  0.1050  0.1530 -0.0583
  120OSM   H16F12720   3.288   2.093   8.347  1.5667 -0.3643  0.7857
  120OSM   H16G12721   3.291   2.194   8.196  0.8999  0.7256 -0.1076
  120OSM   C17F12722   3.464   2.191   8.316  0.0760 -0.7791  1.3848
  120OSM   H17F12723   3.544   2.218   8.244  1.2263 -0.9145  2.5745
  120OSM   H17G12724   3.508   2.122   8.391 -0.7990 -0.3170  2.3642
  120OSM   C18F12725   3.418   2.329   8.375 -0.5595  0.1337 -0.4113
  120OSM   H18F12726   3.407   2.404   8.294 -1.3568  1.8505  1.2176
  120OSM   H18G12727   3.492   2.359   8.452  1.1064 -0.5515 -1.6726
  120OSM   H18H12728   3.325   2.320   8.434 -0.0581 -1.9432  0.1311
  121OSM      N12729   5.189   4.131   5.881  0.2299 -0.2327  0.0655
  121OSM    C1512730   5.046   4.141   5.940  0.3840 -0.5321  0.2455
  121OSM   H15A12731   5.024   4.241   5.974  2.2471  0.0170 -0.0288
  121OSM   H15B12732   5.019   4.074   6.021  0.0959 -0.0528  0.5460
  121OSM   H15C12733   4.982   4.109   5.860  2.3220 -0.6073 -1.3604
  121OSM    C1412734   5.221   3.987   5.853 -0.3700  0.2902 -0.1088
  121OSM   H14A12735   5.323   3.981   5.818 -0.4960 -1.6310 -0.2470
  121OSM   H14B12736   5.156   3.940   5.781  0.5548 -1.7768  0.3334
  121OSM   H14C12737   5.223   3.921   5.938  1.9874 -0.8494 -0.9584
  121OSM    C1312738   5.198   4.206   5.755  0.7642  0.1720  0.6101
  121OSM   H13A12739   5.298   4.205   5.715  0.3246  0.0347 -0.5135
  121OSM   H13B12740   5.169   4.310   5.763 -1.4462 -0.1608 -1.7559
  121OSM   H13C12741   5.129   4.168   5.681  0.8095  1.8349 -0.3349
  121OSM    C1212742   5.284   4.189   5.985  0.3226  0.3049  0.2624
  121OSM   H12A12743   5.274   4.123   6.069 -1.8524 -0.2956 -0.4016
  121OSM   H12B12744   5.236   4.280   6.019 -3.2072 -1.4048  0.2341
  121OSM    C1112745   5.440   4.218   5.957  0.4004 -0.2136 -0.0693
  121OSM   H11A12746   5.482   4.270   6.045  0.4679  0.0052 -0.2298
  121OSM   H11B12747   5.440   4.286   5.869 -1.8422  3.3110  2.4113
  121OSM      P12748   5.550   3.991   6.027 -0.4606 -0.2790 -0.2968
  121OSM    O1312749   5.456   3.875   6.025  0.6564 -0.0778  0.2183
  121OSM    O1412750   5.696   3.961   6.022  0.3385 -0.4646  0.0142
  121OSM    O1112751   5.520   4.065   6.166 -0.4975 -0.2246 -0.3331
  121OSM    O1212752   5.517   4.100   5.919  0.0082  0.4632 -0.5586
  121OSM    C1S12753   5.583   4.002   6.280 -0.0419 -0.5384 -0.4504
  121OSM    H1S12754   5.694   4.006   6.270  0.1046 -2.6604 -0.0981
  121OSM    H1T12755   5.559   3.894   6.280  0.8266 -0.8305 -3.3769
  121OSM     NF12756   5.585   3.987   6.524  0.1964 -0.2968 -0.6825
  121OSM    HNF12757   5.538   3.919   6.580  2.6962 -0.9256  0.8435
  121OSM    C2S12758   5.525   4.064   6.413  0.4313  0.2292  0.0716
  121OSM    H2S12759   5.561   4.168   6.424 -1.4976  1.1450 -1.7126
  121OSM    C3S12760   5.368   4.071   6.416 -0.7017  0.1025 -0.3440
  121OSM    H3S12761   5.324   3.970   6.402  0.6437 -0.8032  1.5486
  121OSM     O312762   5.301   4.138   6.309  0.5753 -0.1365 -0.0295
  121OSM    HO312763   5.372   4.169   6.252  1.3899  0.5713  1.3117
  121OSM    C4S12764   5.316   4.129   6.541  0.0226 -0.5839 -0.4526
  121OSM    H4S12765   5.290   4.056   6.618 -0.2454  0.9588  0.9868
  121OSM    C5S12766   5.281   4.256   6.566  0.1993  0.4579  0.1413
  121OSM    H5S12767   5.296   4.331   6.486  4.5434 -0.0242  0.2872
  121OSM    C6S12768   5.233   4.306   6.701  0.1890  0.8310 -0.4205
  121OSM    H6S12769   5.185   4.225   6.760  1.6098 -0.0859 -0.4639
  121OSM    H6T12770   5.162   4.390   6.689  0.5323  1.1036 -0.5605
  121OSM    C7S12771   5.347   4.349   6.799  0.0183 -0.0702  0.6295
  121OSM    H7S12772   5.398   4.442   6.765 -0.0846  0.1803  1.1458
  121OSM    H7T12773   5.427   4.272   6.795 -0.4409 -0.7006  2.6570
  121OSM    C8S12774   5.295   4.381   6.935  0.2889  1.0207 -0.6286
  121OSM    H8S12775   5.245   4.289   6.971  1.7800  0.9635  1.4571
  121OSM    H8T12776   5.213   4.456   6.940 -0.9381 -0.3635  1.0863
  121OSM    C9S12777   5.394   4.434   7.044 -0.5531  1.1212  0.1044
  121OSM    H9S12778   5.420   4.538   7.015 -2.4835  1.5297 -0.3314
  121OSM    H9T12779   5.482   4.368   7.029 -0.7031  1.6620 -4.5356
  121OSM   C10S12780   5.335   4.428   7.186  0.0257 -0.0402 -0.7727
  121OSM   H10S12781   5.325   4.321   7.213  0.2638  0.3156  0.7834
  121OSM   H10T12782   5.233   4.471   7.179  0.1966  1.4117  3.3800
  121OSM   C11S12783   5.423   4.505   7.288  0.4303  0.5770  0.9470
  121OSM   H11S12784   5.443   4.608   7.250 -0.9993  0.8687  0.9151
  121OSM   H11T12785   5.524   4.459   7.300  1.0897  2.1312  1.7064
  121OSM   C12S12786   5.360   4.524   7.430  0.3980  0.2488 -0.4996
  121OSM   H12S12787   5.257   4.560   7.407  0.8839  1.5062 -0.7919
  121OSM   H12T12788   5.410   4.606   7.485 -0.2295 -0.7952  1.7559
  121OSM   C13S12789   5.355   4.402   7.521  0.1037  0.6320 -0.0081
  121OSM   H13S12790   5.458   4.359   7.517 -0.3946 -0.4978 -1.5252
  121OSM   H13T12791   5.280   4.328   7.487  1.7382 -0.5144 -1.2684
  121OSM   C14S12792   5.322   4.413   7.672  0.9591  0.2814  0.1963
  121OSM   H14S12793   5.284   4.314   7.704  0.8544  0.5592  0.9521
  121OSM   H14T12794   5.246   4.493   7.690 -0.1775 -0.3105 -1.7494
  121OSM   C15S12795   5.451   4.429   7.753  0.2042  0.6284 -0.0134
  121OSM   H15S12796   5.479   4.531   7.719  0.7951 -0.2310 -2.2776
  121OSM   H15T12797   5.517   4.351   7.710  0.2392  0.6381  0.0220
  121OSM   C16S12798   5.434   4.434   7.911  0.0213 -0.4498  0.3314
  121OSM   H16S12799   5.351   4.505   7.933 -0.5732 -1.1850  0.4798
  121OSM   H16T12800   5.530   4.453   7.964  0.1096 -0.0114  0.0236
  121OSM   C17S12801   5.382   4.305   7.968  0.6319  0.2979  0.0884
  121OSM   H17S12802   5.435   4.224   7.913 -0.0611  0.4709 -0.8524
  121OSM   H17T12803   5.277   4.284   7.936  1.2877 -1.2698 -1.1286
  121OSM   C18S12804   5.399   4.294   8.119 -0.4545 -0.6763 -0.1769
  121OSM   H18S12805   5.498   4.332   8.155 -1.5657  3.4359 -0.9453
  121OSM   H18T12806   5.397   4.186   8.148  1.1861 -1.9620 -4.1257
  121OSM   H18U12807   5.317   4.353   8.164 -1.6382 -1.1800 -1.6028
  121OSM    C1F12808   5.715   3.997   6.555 -0.3557  0.0509  0.1725
  121OSM     OF12809   5.778   4.098   6.524 -0.3329 -0.0450  0.0044
  121OSM    C2F12810   5.771   3.898   6.644 -0.6246  0.6336 -0.2581
  121OSM    H2F12811   5.708   3.806   6.637  0.3195 -0.0049 -0.5746
  121OSM    H2G12812   5.752   3.930   6.749  1.6110  0.0735  0.3718
  121OSM    C3F12813   5.918   3.861   6.617  0.2557 -1.0660 -0.0126
  121OSM    H3F12814   5.977   3.956   6.614 -2.0379  0.4609  0.3938
  121OSM    H3G12815   5.919   3.805   6.522  0.0684 -1.6744  0.3376
  121OSM    C4F12816   5.983   3.767   6.714 -0.0172 -0.2425 -0.5583
  121OSM    H4F12817   6.035   3.827   6.791  1.3117 -0.2913 -1.3943
  121OSM    H4G12818   6.051   3.698   6.660  0.3853 -1.7069  1.6859
  121OSM    C5F12819   5.881   3.678   6.801 -0.1321  0.2532  0.0110
  121OSM    H5F12820   5.818   3.608   6.742 -1.3860 -0.3872  2.0274
  121OSM    H5G12821   5.811   3.744   6.856 -0.1181  0.2349  0.0512
  121OSM    C6F12822   5.958   3.584   6.898 -0.5799 -0.3772 -0.4875
  121OSM    H6F12823   6.004   3.648   6.977 -2.7638 -1.8584  2.1728
  121OSM    H6G12824   6.035   3.524   6.846  0.3656 -0.9109  1.4091
  121OSM    C7F12825   5.858   3.497   6.969 -0.2667  0.0782 -0.0182
  121OSM    H7F12826   5.792   3.441   6.898 -3.1972  1.1673  1.6867
  121OSM    H7G12827   5.788   3.557   7.030 -0.9023  1.0055 -1.5929
  121OSM    C8F12828   5.925   3.390   7.062 -0.0005 -0.1498 -0.0258
  121OSM    H8F12829   5.992   3.322   7.005  1.8682  1.7399 -0.2113
  121OSM    H8G12830   5.842   3.334   7.110  0.4220  0.4076  1.4127
  121OSM    C9F12831   6.001   3.449   7.179 -0.0351  0.4375 -0.5395
  121OSM    H9F12832   6.095   3.498   7.149  0.7623  1.2624  2.9689
  121OSM   C10F12833   5.972   3.436   7.310  0.7586  0.2473 -0.6551
  121OSM   H10F12834   6.030   3.498   7.380  0.8638 -1.3226  0.6902
  121OSM   C11F12835   5.851   3.365   7.367 -0.5065 -0.8394  0.0948
  121OSM   H11F12836   5.860   3.262   7.325 -1.7443 -0.2298 -1.8123
  121OSM   H11G12837   5.765   3.413   7.316  1.7316  0.8396 -2.3472
  121OSM   C12F12838   5.834   3.342   7.517 -0.2579 -0.1892  0.2826
  121OSM   H12F12839   5.915   3.279   7.560 -0.0514  0.2841  0.5945
  121OSM   H12G12840   5.728   3.310   7.524 -1.0303  1.4926 -2.4192
  121OSM   C13F12841   5.836   3.475   7.593  0.1445 -0.1526 -0.1906
  121OSM   H13F12842   5.769   3.543   7.536 -2.6883 -3.5863 -1.2961
  121OSM   H13G12843   5.941   3.504   7.575  0.4051 -0.0741  1.2897
  121OSM   C14F12844   5.805   3.456   7.742 -0.3755 -0.6987 -0.6498
  121OSM   H14F12845   5.863   3.373   7.787  3.3713  2.1409  0.2736
  121OSM   H14G12846   5.697   3.431   7.751  0.1681 -2.5477  1.6210
  121OSM   C15F12847   5.833   3.575   7.834  0.5439 -0.5208 -0.5693
  121OSM   H15F12848   5.757   3.651   7.807 -0.9743 -1.5048  0.7272
  121OSM   H15G12849   5.938   3.604   7.813 -0.0988  1.7562 -0.8913
  121OSM   C16F12850   5.814   3.533   7.980  0.3249 -0.5821 -0.3305
  121OSM   H16F12851   5.873   3.442   8.002  2.1307  1.0739  2.3246
  121OSM   H16G12852   5.706   3.509   7.995  0.3119  0.7945  2.4618
  121OSM   C17F12853   5.831   3.650   8.079 -0.5719  0.2079  1.0173
  121OSM   H17F12854   5.770   3.731   8.033 -0.6911 -0.0910  0.6491
  121OSM   H17G12855   5.935   3.689   8.082 -0.8583  1.3483 -1.2991
  121OSM   C18F12856   5.781   3.626   8.228 -0.0397 -0.6245  0.2402
  121OSM   H18F12857   5.674   3.599   8.228 -0.0266 -0.6945  0.9817
  121OSM   H18G12858   5.792   3.718   8.290  0.6302 -0.3867 -0.2128
  121OSM   H18H12859   5.833   3.544   8.282 -0.1260 -0.2854  0.8420
  122OSM      N12860   3.731   4.783   5.760 -0.2360  0.0797 -0.2328
  122OSM    C1512861   3.682   4.791   5.899 -0.2262  0.4525 -1.1052
  122OSM   H15A12862   3.626   4.704   5.930  0.0450  0.7711  0.3566
  122OSM   H15B12863   3.622   4.879   5.914  0.1809  0.4212  0.9147
  122OSM   H15C12864   3.759   4.804   5.973  0.4705  0.6685 -1.8494
  122OSM    C1412865   3.631   4.740   5.661 -0.4264 -0.3757 -0.5084
  122OSM   H14A12866   3.684   4.704   5.574  0.7463  0.0555  0.0020
  122OSM   H14B12867   3.569   4.825   5.638  4.6206  4.3689  1.0999
  122OSM   H14C12868   3.572   4.662   5.706  1.0136 -0.9395  0.4633
  122OSM    C1312869   3.768   4.920   5.710 -0.2582  0.4035  0.3451
  122OSM   H13A12870   3.685   4.986   5.730  0.1502  0.6356  1.3714
  122OSM   H13B12871   3.781   4.920   5.603 -1.7793  0.3693  0.1425
  122OSM   H13C12872   3.853   4.958   5.764  2.0319 -1.7594 -1.5066
  122OSM    C1212873   3.849   4.690   5.753  0.0146 -0.0668  0.0219
  122OSM   H12A12874   3.888   4.680   5.653 -0.7458  1.9423 -0.5241
  122OSM   H12B12875   3.815   4.592   5.783  0.3157 -0.2850 -0.3477
  122OSM    C1112876   3.962   4.715   5.844  0.1778 -0.2375  0.4503
  122OSM   H11A12877   3.986   4.823   5.830 -1.3897  0.1684  0.7180
  122OSM   H11B12878   4.051   4.672   5.794  0.0339  1.3876 -1.3513
  122OSM      P12879   3.951   4.528   6.015 -0.5379  0.1035 -0.4197
  122OSM    O1312880   3.832   4.461   5.958  0.6862 -0.2017 -0.0630
  122OSM    O1412881   4.086   4.478   5.967  0.6187 -1.0178 -0.2562
  122OSM    O1112882   3.953   4.536   6.177  0.0784 -0.2196 -0.3310
  122OSM    O1212883   3.938   4.681   5.977 -0.4477 -0.2595  0.0825
  122OSM    C1S12884   3.859   4.612   6.256 -0.8577 -0.1038 -0.4322
  122OSM    H1S12885   3.755   4.602   6.218 -0.5154 -0.0941 -1.4157
  122OSM    H1T12886   3.895   4.718   6.256  1.7713 -0.8629  1.9382
  122OSM     NF12887   3.743   4.616   6.486 -0.4823 -0.0238  0.1225
  122OSM    HNF12888   3.754   4.662   6.573 -0.2381  0.4628 -0.1616
  122OSM    C2S12889   3.867   4.567   6.414 -0.6465 -0.9212  0.1599
  122OSM    H2S12890   3.861   4.456   6.409  1.3600 -1.0457 -0.0241
  122OSM    C3S12891   4.009   4.611   6.469  0.4083 -0.5270  0.4346
  122OSM    H3S12892   4.027   4.720   6.470 -1.1139 -0.1934 -1.9423
  122OSM     O312893   4.109   4.564   6.386 -0.1747 -0.6462  0.7539
  122OSM    HO312894   4.063   4.522   6.314 -1.7927  0.1699  1.2764
  122OSM    C4S12895   4.028   4.547   6.602  0.3445  0.1371 -0.5514
  122OSM    H4S12896   4.052   4.440   6.610 -0.3039 -0.0305 -0.8147
  122OSM    C5S12897   4.028   4.621   6.717  0.0652  0.0124 -1.0649
  122OSM    H5S12898   4.025   4.731   6.720  2.8137  0.1367  1.1745
  122OSM    C6S12899   4.055   4.557   6.860  0.4666  0.4200 -0.0500
  122OSM    H6S12900   4.058   4.446   6.855  1.4575  0.3875  0.9441
  122OSM    H6T12901   3.968   4.597   6.916  1.5383 -0.4063  2.3293
  122OSM    C7S12902   4.180   4.589   6.944 -0.3053 -0.0909  0.4254
  122OSM    H7S12903   4.178   4.700   6.944 -1.4543 -0.0912  0.7124
  122OSM    H7T12904   4.278   4.552   6.907 -0.3785 -0.5242  0.6519
  122OSM    C8S12905   4.164   4.550   7.089 -0.0706  0.0510  0.4010
  122OSM    H8S12906   4.150   4.440   7.099 -3.3741  0.4006  0.9078
  122OSM    H8T12907   4.075   4.604   7.127  0.3903 -0.9936  3.1839
  122OSM    C9S12908   4.287   4.594   7.175 -0.4244  0.0537 -0.5936
  122OSM    H9S12909   4.304   4.701   7.149 -1.9547 -0.4529 -4.2266
  122OSM    H9T12910   4.381   4.542   7.146  1.1177  1.6178  1.1910
  122OSM   C10S12911   4.271   4.569   7.326 -0.1041 -0.3249 -0.8457
  122OSM   H10S12912   4.166   4.599   7.347  0.4255  0.4038  0.9434
  122OSM   H10T12913   4.333   4.645   7.377  0.2725 -2.1561  1.6317
  122OSM   C11S12914   4.318   4.430   7.365  0.1485 -0.0423  0.0436
  122OSM   H11S12915   4.428   4.428   7.357  0.2160  2.1988 -0.2076
  122OSM   H11T12916   4.305   4.351   7.288  2.0018 -0.0065 -0.3407
  122OSM   C12S12917   4.258   4.376   7.491  0.0261  0.6766 -0.4410
  122OSM   H12S12918   4.324   4.294   7.528  0.8789  1.4223 -0.2845
  122OSM   H12T12919   4.157   4.334   7.474 -0.2587  0.9350  0.5704
  122OSM   C13S12920   4.261   4.479   7.605 -0.2667  0.3638  0.5741
  122OSM   H13S12921   4.181   4.554   7.585  0.2131  0.8753  0.5349
  122OSM   H13T12922   4.354   4.539   7.596  0.3765 -0.6600  0.3663
  122OSM   C14S12923   4.225   4.418   7.743  0.4597  0.2160 -0.1701
  122OSM   H14S12924   4.303   4.343   7.768 -0.2799 -0.4588  0.2061
  122OSM   H14T12925   4.130   4.362   7.724  1.5304 -1.9447  0.4977
  122OSM   C15S12926   4.208   4.527   7.855 -0.6436 -0.2653 -0.5899
  122OSM   H15S12927   4.123   4.591   7.824  1.5956  2.0329 -2.3798
  122OSM   H15T12928   4.303   4.580   7.875 -0.3397 -0.3949 -1.6464
  122OSM   C16S12929   4.176   4.475   7.997  0.3371  0.5449  0.2815
  122OSM   H16S12930   4.070   4.443   7.987  0.0320  0.1383  3.7373
  122OSM   H16T12931   4.186   4.557   8.071  1.0934  1.2338 -0.5608
  122OSM   C17S12932   4.260   4.352   8.038  0.7172 -0.0273  0.6410
  122OSM   H17S12933   4.365   4.374   8.009  0.5708  0.8260  0.7468
  122OSM   H17T12934   4.236   4.265   7.973 -0.9074 -0.0596  1.2402
  122OSM   C18S12935   4.241   4.323   8.183  0.7001  0.4603  0.0901
  122OSM   H18S12936   4.133   4.306   8.207  0.7635  0.3154  0.2733
  122OSM   H18T12937   4.273   4.404   8.251 -1.8611  0.7170  1.0997
  122OSM   H18U12938   4.289   4.226   8.207 -1.4913 -1.2348 -1.8200
  122OSM    C1F12939   3.624   4.565   6.461 -0.2818  0.6786 -0.4330
  122OSM     OF12940   3.610   4.492   6.362 -0.2979 -0.2588 -0.7785
  122OSM    C2F12941   3.512   4.601   6.554 -0.3961 -0.2700  0.2427
  122OSM    H2F12942   3.483   4.705   6.531  0.6073 -0.3589 -1.5626
  122OSM    H2G12943   3.556   4.604   6.656 -1.3928 -3.1299  0.8653
  122OSM    C3F12944   3.383   4.517   6.551 -0.4912  1.1370 -0.4959
  122OSM    H3F12945   3.425   4.414   6.554 -0.8413  0.8676 -2.6350
  122OSM    H3G12946   3.328   4.536   6.456 -0.8521  2.3683 -0.0568
  122OSM    C4F12947   3.289   4.546   6.666  0.2166 -0.0843 -0.8869
  122OSM    H4F12948   3.200   4.481   6.651 -0.3880  0.1886  1.1364
  122OSM    H4G12949   3.266   4.654   6.672  2.7375  0.4334  1.2320
  122OSM    C5F12950   3.340   4.501   6.803 -0.9416 -0.3741  0.1568
  122OSM    H5F12951   3.422   4.572   6.824 -0.2341 -0.8227 -1.0084
  122OSM    H5G12952   3.372   4.394   6.804  0.2724 -0.0203  0.7205
  122OSM    C6F12953   3.231   4.516   6.910 -0.2804 -0.1167 -0.6532
  122OSM    H6F12954   3.152   4.441   6.889 -0.9579  0.7623 -1.2968
  122OSM    H6G12955   3.191   4.620   6.916  1.6783  0.6007  3.5054
  122OSM    C7F12956   3.301   4.484   7.044  0.4106 -0.5960 -0.4339
  122OSM    H7F12957   3.379   4.557   7.074  0.0771 -1.1164  1.8911
  122OSM    H7G12958   3.361   4.392   7.029  0.1753 -0.7083 -0.6819
  122OSM    C8F12959   3.206   4.452   7.159 -0.2831 -0.1903 -0.1210
  122OSM    H8F12960   3.276   4.392   7.222  2.0679  2.5344  0.1040
  122OSM    H8G12961   3.122   4.389   7.123  0.5299 -1.3261 -0.0921
  122OSM    C9F12962   3.139   4.577   7.215 -0.4542 -0.1294 -0.7428
  122OSM    H9F12963   3.047   4.605   7.161  0.4712  2.3441 -1.1569
  122OSM   C10F12964   3.170   4.642   7.331  0.0615 -0.4410  0.7019
  122OSM   H10F12965   3.103   4.725   7.359 -0.8736 -1.3925  1.3772
  122OSM   C11F12966   3.288   4.622   7.431  0.1494  0.4145 -0.2683
  122OSM   H11F12967   3.352   4.713   7.429  0.6164  0.0814 -0.6037
  122OSM   H11G12968   3.353   4.539   7.395 -0.7123 -0.0873 -0.6841
  122OSM   C12F12969   3.255   4.584   7.578  0.2730 -0.5781 -0.0798
  122OSM   H12F12970   3.345   4.537   7.624  0.4273 -1.7410 -1.4968
  122OSM   H12G12971   3.177   4.505   7.583  1.8808 -2.1765  1.1106
  122OSM   C13F12972   3.211   4.703   7.664 -0.3820  0.3684  0.3234
  122OSM   H13F12973   3.138   4.765   7.609 -0.2180  0.5989  0.3658
  122OSM   H13G12974   3.300   4.767   7.677 -1.0631  1.0927  1.6593
  122OSM   C14F12975   3.155   4.670   7.803 -0.1903  0.5191 -0.0946
  122OSM   H14F12976   3.236   4.615   7.856 -0.5210  0.8079  0.7391
  122OSM   H14G12977   3.063   4.608   7.803  0.4072 -0.4468  1.6427
  122OSM   C15F12978   3.119   4.792   7.877 -0.0503  0.0896  0.1937
  122OSM   H15F12979   3.035   4.842   7.823 -0.3109  0.8326  1.2496
  122OSM   H15G12980   3.206   4.854   7.906  0.2569  0.4442 -1.4057
  122OSM   C16F12981   3.058   4.759   8.017  0.0533 -0.0105  0.8216
  122OSM   H16F12982   3.150   4.733   8.073  1.4089  0.4725 -1.0886
  122OSM   H16G12983   2.985   4.676   8.022 -2.1343  1.8239  1.4687
  122OSM   C17F12984   3.004   4.888   8.083  0.0695  0.0908  0.9221
  122OSM   H17F12985   3.070   4.972   8.051  0.2756 -1.0308 -1.8289
  122OSM   H17G12986   3.013   4.895   8.194 -0.4906  3.9208  0.8478
  122OSM   C18F12987   2.861   4.926   8.038  0.2328 -0.0306 -0.0133
  122OSM   H18F12988   2.824   5.023   8.078  3.3685  2.1952 -2.1025
  122OSM   H18G12989   2.786   4.845   8.056  1.3456 -0.6681  2.1722
  122OSM   H18H12990   2.869   4.942   7.929 -2.8972  1.9017 -0.0830
  123OSM      N12991   1.143   1.706   6.521 -0.1801 -0.2695  0.2060
  123OSM    C1512992   1.290   1.733   6.554  0.5789  0.5524  0.9585
  123OSM   H15A12993   1.337   1.638   6.578  1.6207  0.8015 -0.0435
  123OSM   H15B12994   1.310   1.800   6.636  0.8767 -0.2756  1.5779
  123OSM   H15C12995   1.340   1.760   6.463 -0.4053  0.9305  0.5167
  123OSM    C1412996   1.133   1.588   6.421  0.5656 -0.0875 -0.4847
  123OSM   H14A12997   1.175   1.609   6.324 -1.5984 -0.1254 -1.4683
  123OSM   H14B12998   1.030   1.571   6.397  0.6374 -0.6091 -0.4354
  123OSM   H14C12999   1.183   1.498   6.454  1.4044  1.1167  1.7678
  123OSM    C1313000   1.066   1.678   6.643 -0.1537 -0.9171 -0.4717
  123OSM   H13A13001   1.069   1.760   6.713 -3.0604 -0.1331 -1.1248
  123OSM   H13B13002   1.099   1.593   6.700 -0.6190 -1.1490 -0.5436
  123OSM   H13C13003   0.964   1.649   6.622  0.0593 -1.5930 -0.5873
  123OSM    C1213004   1.082   1.826   6.448  0.3609 -0.3235 -0.4205
  123OSM   H12A13005   1.067   1.900   6.525 -2.0019 -1.3291  0.1469
  123OSM   H12B13006   0.982   1.796   6.421 -0.1199 -1.2134  2.1233
  123OSM    C1113007   1.169   1.890   6.340  0.3165  0.0110 -0.1821
  123OSM   H11A13008   1.183   1.816   6.259  1.5191 -1.1451  1.0210
  123OSM   H11B13009   1.268   1.923   6.377  0.3573  0.1349 -0.4031
  123OSM      P13010   1.125   2.153   6.323  0.0334  0.4716  0.1548
  123OSM    O1313011   1.263   2.183   6.273  0.2353  0.2338  0.2902
  123OSM    O1413012   1.018   2.243   6.274 -0.6384 -0.0441 -0.1617
  123OSM    O1113013   1.122   2.141   6.481  0.1390 -0.7814  0.5316
  123OSM    O1213014   1.093   1.999   6.282  0.2109  0.2080  0.1022
  123OSM    C1S13015   1.247   2.160   6.555  1.0743  0.2317  0.2543
  123OSM    H1S13016   1.293   2.258   6.528 -1.2147  1.2520 -0.1643
  123OSM    H1T13017   1.309   2.069   6.539 -0.5496 -0.7262 -1.0124
  123OSM     NF13018   1.344   2.188   6.785  0.2691 -0.3712 -0.6124
  123OSM    HNF13019   1.393   2.115   6.833  0.0311  0.3335  0.7389
  123OSM    C2S13020   1.221   2.154   6.707 -0.4420 -0.1621 -0.4517
  123OSM    H2S13021   1.141   2.230   6.722 -0.4851 -0.3104  0.1040
  123OSM    C3S13022   1.156   2.016   6.745  0.3660 -0.8056  0.0249
  123OSM    H3S13023   1.209   1.933   6.692  1.9792 -0.4575  1.0404
  123OSM     O313024   1.014   2.011   6.711 -0.7739 -0.3921 -0.5301
  123OSM    HO313025   1.002   2.088   6.655 -0.0513 -0.8699 -1.3800
  123OSM    C4S13026   1.153   1.981   6.896  0.4568 -0.5576 -0.1364
  123OSM    H4S13027   1.096   2.056   6.954  0.7378 -0.3648 -0.1041
  123OSM    C5S13028   1.211   1.884   6.960 -0.1262  0.3373 -0.1260
  123OSM    H5S13029   1.258   1.810   6.893  0.4300  0.8332 -0.3006
  123OSM    C6S13030   1.215   1.849   7.110  0.2696 -0.5057  0.4395
  123OSM    H6S13031   1.320   1.830   7.143  1.1014  0.6958 -1.3453
  123OSM    H6T13032   1.176   1.748   7.136 -1.0127  0.1984  1.3134
  123OSM    C7S13033   1.164   1.956   7.213  0.3639 -0.8369 -0.5475
  123OSM    H7S13034   1.054   1.955   7.199 -0.0838  0.2416  2.2312
  123OSM    H7T13035   1.198   2.056   7.176 -0.9447 -0.5955 -1.1343
  123OSM    C8S13036   1.207   1.937   7.354 -0.1818 -0.0779 -0.4650
  123OSM    H8S13037   1.186   2.027   7.415  0.3041 -2.0969  2.9448
  123OSM    H8T13038   1.316   1.921   7.367 -0.2771 -1.0873 -0.7805
  123OSM    C9S13039   1.130   1.820   7.419  0.2311  0.2958  0.5251
  123OSM    H9S13040   1.135   1.737   7.345  2.5570  1.9208 -1.2941
  123OSM    H9T13041   1.028   1.861   7.435 -0.1706 -0.7304  0.6853
  123OSM   C10S13042   1.179   1.769   7.555 -0.2737 -0.4334 -0.6518
  123OSM   H10S13043   1.270   1.708   7.533 -0.2626 -2.6695  4.2916
  123OSM   H10T13044   1.098   1.703   7.595  0.5578 -1.1217 -0.0482
  123OSM   C11S13045   1.203   1.876   7.659  0.2050 -0.3745  0.3040
  123OSM   H11S13046   1.127   1.956   7.672  1.4031  1.0183 -0.8784
  123OSM   H11T13047   1.302   1.923   7.637 -1.2697  1.9567 -1.9952
  123OSM   C12S13048   1.218   1.817   7.804  0.0522  0.1223 -0.5472
  123OSM   H12S13049   1.297   1.739   7.817  0.2997  0.4373 -0.1759
  123OSM   H12T13050   1.130   1.749   7.806 -0.1059  0.3462  0.3647
  123OSM   C13S13051   1.219   1.912   7.925 -0.2491  0.1004  0.1667
  123OSM   H13S13052   1.194   1.861   8.021  1.7840  1.4053  1.4676
  123OSM   H13T13053   1.154   2.000   7.904  1.3756  1.0322 -1.2553
  123OSM   C14S13054   1.360   1.969   7.933  0.5541  0.8568 -0.4272
  123OSM   H14S13055   1.393   2.016   7.838  2.3687  1.0406  0.2522
  123OSM   H14T13056   1.426   1.880   7.944  2.0202  1.8479 -0.8495
  123OSM   C15S13057   1.385   2.055   8.054 -0.0273  0.0117  0.1560
  123OSM   H15S13058   1.366   1.996   8.147 -1.6203 -0.5453 -0.4892
  123OSM   H15T13059   1.312   2.139   8.053  0.2887  0.2843 -0.3884
  123OSM   C16S13060   1.530   2.099   8.060 -0.4253  0.1976 -0.1061
  123OSM   H16S13061   1.558   2.163   7.973  0.3539  2.3702  1.6415
  123OSM   H16T13062   1.589   2.005   8.053 -0.0054  0.2718  1.9439
  123OSM   C17S13063   1.561   2.177   8.190  0.2345 -0.0953  0.3647
  123OSM   H17S13064   1.501   2.130   8.271  0.5486  1.4443  1.5389
  123OSM   H17T13065   1.525   2.282   8.184 -1.8445 -0.7538  0.5501
  123OSM   C18S13066   1.702   2.185   8.240 -0.6412 -0.2477 -0.1804
  123OSM   H18S13067   1.699   2.241   8.335 -2.3656  0.4225 -0.5907
  123OSM   H18T13068   1.767   2.239   8.167 -1.6926 -0.7246 -1.5251
  123OSM   H18U13069   1.750   2.086   8.253  1.6127  0.7142 -0.7404
  123OSM    C1F13070   1.406   2.305   6.776  0.2884 -0.5730  0.4718
  123OSM     OF13071   1.354   2.405   6.732  0.4084 -0.7664  0.5181
  123OSM    C2F13072   1.548   2.303   6.836  0.1366 -0.2085 -0.5352
  123OSM    H2F13073   1.625   2.314   6.757  1.3310  1.9295  0.8496
  123OSM    H2G13074   1.569   2.208   6.890  1.7176 -1.3549 -2.9481
  123OSM    C3F13075   1.582   2.426   6.931 -0.3178  0.6363  0.5739
  123OSM    H3F13076   1.590   2.516   6.866 -2.6867 -0.1921 -0.9976
  123OSM    H3G13077   1.685   2.418   6.973 -0.4193 -0.4518  0.6398
  123OSM    C4F13078   1.482   2.446   7.048  0.0421  0.9977 -0.2869
  123OSM    H4F13079   1.375   2.455   7.017 -0.3964 -0.6415  0.6462
  123OSM    H4G13080   1.512   2.547   7.083  0.3682  2.1110 -3.5152
  123OSM    C5F13081   1.489   2.335   7.156 -0.4196  0.1466  1.0844
  123OSM    H5F13082   1.478   2.236   7.106 -0.0754  0.1696  0.9670
  123OSM    H5G13083   1.400   2.332   7.223 -1.9218  2.2068 -0.6450
  123OSM    C6F13084   1.609   2.329   7.243  0.0143  0.0171  0.3492
  123OSM    H6F13085   1.610   2.410   7.319  0.8056  0.0210  0.3434
  123OSM    H6G13086   1.699   2.335   7.178  0.0254 -0.2179  0.3418
  123OSM    C7F13087   1.619   2.198   7.336 -0.2375  0.5392 -0.0990
  123OSM    H7F13088   1.641   2.112   7.270  0.9747  1.2678 -0.6636
  123OSM    H7G13089   1.521   2.172   7.383  0.1954 -1.9523 -0.4427
  123OSM    C8F13090   1.720   2.230   7.447 -0.1314  0.2055 -0.0861
  123OSM    H8F13091   1.690   2.324   7.498  2.6244  2.3999 -2.1145
  123OSM    H8G13092   1.820   2.242   7.399 -1.0437 -0.9892 -2.4521
  123OSM    C9F13093   1.726   2.115   7.547 -0.1182 -0.2377  0.3512
  123OSM    H9F13094   1.707   2.015   7.505 -1.6334 -0.5865  1.7588
  123OSM   C10F13095   1.761   2.118   7.676 -0.1348 -0.3113  0.3792
  123OSM   H10F13096   1.749   2.030   7.740  0.2535  0.5363  1.6475
  123OSM   C11F13097   1.799   2.236   7.757  0.6080 -0.1190 -0.1146
  123OSM   H11F13098   1.817   2.198   7.860  0.7994 -0.6365 -0.3318
  123OSM   H11G13099   1.720   2.313   7.767  1.7819  0.9756  0.9700
  123OSM   C12F13100   1.927   2.314   7.710 -0.4189  0.2284 -1.0992
  123OSM   H12F13101   1.902   2.370   7.617  1.7949  1.1597 -1.1943
  123OSM   H12G13102   2.011   2.244   7.690 -0.1940 -0.0102  0.5568
  123OSM   C13F13103   1.981   2.420   7.812  0.0672 -0.3601 -0.6231
  123OSM   H13F13104   2.046   2.383   7.894 -0.0845  2.1670  0.7359
  123OSM   H13G13105   1.898   2.464   7.872  0.2745 -1.1711  0.2739
  123OSM   C14F13106   2.052   2.530   7.735 -0.1322 -0.5273 -0.0837
  123OSM   H14F13107   1.978   2.576   7.667 -0.9131 -1.9537 -0.2470
  123OSM   H14G13108   2.131   2.488   7.668  0.8540 -0.7761  1.1926
  123OSM   C15F13109   2.129   2.638   7.832  0.1629 -0.3284  0.4229
  123OSM   H15F13110   2.055   2.685   7.900 -1.0846  0.8569 -1.6388
  123OSM   H15G13111   2.163   2.715   7.760  2.3555 -0.7335  0.9447
  123OSM   C16F13112   2.246   2.585   7.909 -0.1680  0.9988  0.2820
  123OSM   H16F13113   2.315   2.531   7.840  0.1270  0.8508  0.6865
  123OSM   H16G13114   2.198   2.516   7.982 -0.6050  0.8264 -0.1693
  123OSM   C17F13115   2.322   2.674   8.001 -0.3503  0.2410  0.7334
  123OSM   H17F13116   2.265   2.712   8.089 -0.5629 -0.0514  0.7210
  123OSM   H17G13117   2.351   2.770   7.952 -2.4331  1.7234  2.2470
  123OSM   C18F13118   2.446   2.602   8.053 -0.3434 -0.0741 -0.3756
  123OSM   H18F13119   2.409   2.546   8.141 -0.4572  2.5194  1.3375
  123OSM   H18G13120   2.523   2.678   8.077 -1.9769  2.0470 -1.4142
  123OSM   H18H13121   2.490   2.541   7.971  0.5013 -0.4250  0.3308
  124OSM      N13122   2.763   3.470   6.072 -0.4273 -0.7684 -0.0047
  124OSM    C1513123   2.816   3.602   6.105  0.8277  0.4244 -0.1207
  124OSM   H15A13124   2.879   3.584   6.191 -2.4364 -0.5697  2.2192
  124OSM   H15B13125   2.748   3.683   6.124  0.0352 -0.0431 -0.8965
  124OSM   H15C13126   2.868   3.643   6.019  0.5188 -0.9782 -1.0128
  124OSM    C1413127   2.653   3.444   6.171 -0.2090  1.0421 -0.4003
  124OSM   H14A13128   2.685   3.446   6.274 -2.6313  0.3584  0.4241
  124OSM   H14B13129   2.614   3.347   6.145  2.6735 -0.3093 -0.1018
  124OSM   H14C13130   2.572   3.516   6.176  0.0662  1.2684  1.7419
  124OSM    C1313131   2.687   3.488   5.942 -0.4599  0.1358  0.0827
  124OSM   H13A13132   2.674   3.396   5.886  3.6002 -0.8744  0.4602
  124OSM   H13B13133   2.745   3.546   5.872 -0.3398 -1.7321 -1.4535
  124OSM   H13C13134   2.588   3.530   5.942 -1.4838 -2.1186  0.5662
  124OSM    C1213135   2.853   3.354   6.075  0.2145  0.2424 -1.0000
  124OSM   H12A13136   2.797   3.272   6.033 -0.2199  0.5247 -0.9841
  124OSM   H12B13137   2.875   3.331   6.178  1.1423 -1.4195 -1.5337
  124OSM    C1113138   2.978   3.380   5.995  0.6011  0.3350 -0.1213
  124OSM   H11A13139   3.045   3.448   6.052  0.5232 -0.5824  1.1007
  124OSM   H11B13140   2.970   3.427   5.894  1.5050 -0.6455 -0.6723
  124OSM      P13141   3.195   3.233   6.009 -0.2433  0.1053  0.7212
  124OSM    O1313142   3.243   3.101   5.963 -0.0294 -0.7378  0.1415
  124OSM    O1413143   3.270   3.345   5.947  0.0501  0.4225  0.5858
  124OSM    O1113144   3.209   3.244   6.166  0.5008  0.6019  0.3110
  124OSM    O1213145   3.041   3.250   5.979  0.2305 -0.1181 -0.7455
  124OSM    C1S13146   3.234   3.359   6.241 -0.5124  0.8624 -0.6039
  124OSM    H1S13147   3.144   3.424   6.246 -1.4826 -0.2438 -2.5837
  124OSM    H1T13148   3.322   3.417   6.206 -0.9866  2.6996  1.0605
  124OSM     NF13149   3.262   3.416   6.480 -0.0796 -0.0764  0.1515
  124OSM    HNF13150   3.337   3.477   6.504 -0.3890  0.1371  0.5861
  124OSM    C2S13151   3.277   3.312   6.385  0.1180  0.1871 -0.6520
  124OSM    H2S13152   3.218   3.222   6.413  2.9767 -1.1497  1.7212
  124OSM    C3S13153   3.423   3.258   6.377  0.7883  0.2910  0.0259
  124OSM    H3S13154   3.498   3.328   6.334 -1.9837  2.7743 -1.1032
  124OSM     O313155   3.426   3.151   6.279  0.0161 -0.0678  0.3782
  124OSM    HO313156   3.340   3.153   6.238  0.2016  1.1727  0.0216
  124OSM    C4S13157   3.462   3.201   6.510 -0.7825  0.6803 -0.3054
  124OSM    H4S13158   3.421   3.103   6.539  1.6515 -0.5097 -0.6111
  124OSM    C5S13159   3.532   3.268   6.606  0.1423 -0.0005 -0.5357
  124OSM    H5S13160   3.586   3.364   6.593 -0.1868  0.4393  1.0499
  124OSM    C6S13161   3.557   3.198   6.734 -0.5491  1.1665  0.1927
  124OSM    H6S13162   3.666   3.182   6.745 -0.3094  2.0696 -0.6690
  124OSM    H6T13163   3.509   3.098   6.730  0.5567  0.6155  0.3066
  124OSM    C7S13164   3.521   3.286   6.856  0.6055  0.5199  0.4140
  124OSM    H7S13165   3.413   3.303   6.839  0.2584  0.9682  2.7070
  124OSM    H7T13166   3.565   3.388   6.845 -2.0508  1.7267  0.2624
  124OSM    C8S13167   3.533   3.227   6.993 -0.6016  0.1594 -0.7356
  124OSM    H8S13168   3.627   3.167   6.990 -0.9427 -0.5737  1.3509
  124OSM    H8T13169   3.454   3.151   7.010  1.7565 -2.5771 -1.3166
  124OSM    C9S13170   3.550   3.326   7.108 -0.2552 -0.4487  0.3150
  124OSM    H9S13171   3.444   3.358   7.123 -0.0208  0.6071 -0.2096
  124OSM    H9T13172   3.611   3.414   7.079 -0.6588 -0.5966 -1.0571
  124OSM   C10S13173   3.593   3.256   7.236 -0.1372 -0.0583 -1.0101
  124OSM   H10S13174   3.702   3.266   7.257 -0.0317 -0.4771 -1.3565
  124OSM   H10T13175   3.564   3.149   7.239  0.6688 -0.2643 -0.1534
  124OSM   C11S13176   3.532   3.311   7.365  0.7173 -0.2199 -0.2176
  124OSM   H11S13177   3.423   3.287   7.375  0.9921 -2.3760 -1.7150
  124OSM   H11T13178   3.556   3.419   7.361  0.6623 -0.2493 -1.9149
  124OSM   C12S13179   3.603   3.246   7.488 -0.1692 -0.5370  0.0577
  124OSM   H12S13180   3.712   3.241   7.470 -0.1450 -3.1933  0.5683
  124OSM   H12T13181   3.564   3.142   7.490 -1.2277 -0.1912 -0.9694
  124OSM   C13S13182   3.582   3.312   7.623 -0.7206  0.3044 -0.2096
  124OSM   H13S13183   3.621   3.415   7.636 -0.4246  0.1797 -0.0839
  124OSM   H13T13184   3.645   3.252   7.693 -0.8471 -2.3984 -2.2403
  124OSM   C14S13185   3.435   3.304   7.669 -0.2226 -0.1072  0.6406
  124OSM   H14S13186   3.412   3.197   7.689 -0.8452 -0.0829  0.0962
  124OSM   H14T13187   3.367   3.344   7.591  1.3005 -0.4023 -0.9024
  124OSM   C15S13188   3.424   3.387   7.802 -0.9069  0.4097 -0.1308
  124OSM   H15S13189   3.452   3.493   7.785 -0.4434  0.5320  1.3044
  124OSM   H15T13190   3.495   3.340   7.873 -0.7327  0.2017 -0.4380
  124OSM   C16S13191   3.286   3.381   7.865  0.2138 -0.0556 -0.6493
  124OSM   H16S13192   3.262   3.272   7.867 -0.5178  0.1028 -0.4041
  124OSM   H16T13193   3.216   3.431   7.795  2.2298  0.6978 -2.2284
  124OSM   C17S13194   3.270   3.431   8.008 -0.2033 -0.3360  0.3256
  124OSM   H17S13195   3.290   3.541   8.010  3.1271 -0.7668 -1.3553
  124OSM   H17T13196   3.346   3.388   8.078 -1.8584  2.7956  4.5026
  124OSM   C18S13197   3.133   3.403   8.070 -0.4040 -0.2202  0.0748
  124OSM   H18S13198   3.147   3.398   8.180 -0.0742  0.1524  0.0522
  124OSM   H18T13199   3.097   3.303   8.036  1.0263 -1.2719  1.4499
  124OSM   H18U13200   3.062   3.481   8.037 -0.6630 -0.8127 -0.8083
  124OSM    C1F13201   3.136   3.437   6.524  0.3229 -0.1333  0.2628
  124OSM     OF13202   3.039   3.369   6.481  0.4980 -0.0837 -0.3693
  124OSM    C2F13203   3.123   3.549   6.615  0.3646  0.0840  0.0370
  124OSM    H2F13204   3.054   3.621   6.566  0.9426  1.3275  0.9890
  124OSM    H2G13205   3.226   3.586   6.629 -0.1522  1.1008  1.3325
  124OSM    C3F13206   3.060   3.501   6.744  0.7813  0.5722  0.1308
  124OSM    H3F13207   3.124   3.415   6.772  0.6523  0.0656 -1.0627
  124OSM    H3G13208   2.955   3.467   6.733  0.6755  1.4122 -1.9849
  124OSM    C4F13209   3.060   3.600   6.865 -0.2221  0.0945 -0.6353
  124OSM    H4F13210   2.997   3.690   6.849 -0.1608  0.1247 -0.7103
  124OSM    H4G13211   3.164   3.636   6.876 -0.8526  1.8147  0.0940
  124OSM    C5F13212   3.013   3.523   6.992 -0.0735 -0.2167 -0.5835
  124OSM    H5F13213   3.082   3.437   7.007 -1.7666 -1.5633 -0.1716
  124OSM    H5G13214   2.915   3.477   6.968  0.9252 -2.6128 -0.4478
  124OSM    C6F13215   3.000   3.607   7.117 -0.3894  0.4178  0.8277
  124OSM    H6F13216   2.906   3.591   7.174 -0.3049  0.6135  1.0257
  124OSM    H6G13217   3.002   3.715   7.090  1.0360  0.1524 -0.2483
  124OSM    C7F13218   3.135   3.595   7.197  0.8885  0.1471  0.4677
  124OSM    H7F13219   3.213   3.647   7.137  0.3284  1.9154  1.2150
  124OSM    H7G13220   3.168   3.491   7.218  0.3817 -0.1284 -0.0798
  124OSM    C8F13221   3.138   3.679   7.326  0.4527  0.0848  0.1689
  124OSM    H8F13222   3.047   3.658   7.386 -0.5591 -1.3494 -1.7586
  124OSM    H8G13223   3.139   3.784   7.292 -1.2530 -0.0982 -0.5537
  124OSM    C9F13224   3.266   3.635   7.390  0.1935 -0.5630  0.8167
  124OSM    H9F13225   3.339   3.574   7.334 -0.0444 -0.8613  0.8268
  124OSM   C10F13226   3.297   3.646   7.517  0.1346 -0.6985 -0.3831
  124OSM   H10F13227   3.394   3.612   7.553  0.6296 -0.1006 -1.1127
  124OSM   C11F13228   3.205   3.707   7.625  0.3683  0.1755 -0.5125
  124OSM   H11F13229   3.135   3.627   7.656 -0.7835  1.2731 -0.1873
  124OSM   H11G13230   3.127   3.780   7.594  0.6746  1.0284  0.6324
  124OSM   C12F13231   3.276   3.786   7.738  0.1004 -0.1156 -0.5013
  124OSM   H12F13232   3.325   3.879   7.703 -0.5257  0.5251  0.2765
  124OSM   H12G13233   3.352   3.723   7.790  0.9687  0.5681 -0.8987
  124OSM   C13F13234   3.181   3.842   7.849 -0.4763  0.3439  0.2844
  124OSM   H13F13235   3.125   3.753   7.885 -3.4072  1.2105 -1.6693
  124OSM   H13G13236   3.109   3.910   7.797 -0.8787  0.3874  0.8835
  124OSM   C14F13237   3.247   3.920   7.956  0.7257  0.4680 -0.3148
  124OSM   H14F13238   3.317   4.003   7.931  1.6119  0.0426  0.6269
  124OSM   H14G13239   3.315   3.854   8.015  0.4448  0.0527 -0.4520
  124OSM   C15F13240   3.142   3.980   8.051 -0.7201  0.1347  0.2319
  124OSM   H15F13241   3.069   4.030   7.984 -1.9831 -0.0452  1.4254
  124OSM   H15G13242   3.175   4.062   8.117 -1.9193 -0.6859  1.9344
  124OSM   C16F13243   3.085   3.878   8.145  0.1473 -0.0217  0.1965
  124OSM   H16F13244   3.129   3.876   8.247  1.7034 -1.6744 -0.4460
  124OSM   H16G13245   3.099   3.776   8.102  3.0381  0.9130 -1.3670
  124OSM   C17F13246   2.936   3.886   8.159  0.0254 -0.6224 -0.4550
  124OSM   H17F13247   2.883   3.792   8.188 -2.5542  1.2671  1.4128
  124OSM   H17G13248   2.890   3.905   8.059  0.4409 -2.4564 -1.0368
  124OSM   C18F13249   2.893   4.000   8.253 -0.1408 -0.0541  0.5701
  124OSM   H18F13250   2.936   4.099   8.227  2.9233 -1.5005 -0.3702
  124OSM   H18G13251   2.923   3.968   8.355  0.1587 -0.3402  0.3957
  124OSM   H18H13252   2.783   3.995   8.264 -0.1601 -0.7879  0.1045
  125OSM      N13253   6.219   3.708   5.914 -0.4872 -0.3798 -0.3715
  125OSM    C1513254   6.105   3.618   5.865 -0.5369  0.4239 -0.1240
  125OSM   H15A13255   6.142   3.516   5.866 -0.9764  0.1263 -3.3993
  125OSM   H15B13256   6.079   3.624   5.761 -1.2699 -2.9925 -0.2596
  125OSM   H15C13257   6.012   3.625   5.919  0.8095  1.4364  2.2200
  125OSM    C1413258   6.329   3.703   5.818 -0.1690 -0.7912 -0.1093
  125OSM   H14A13259   6.284   3.714   5.720 -3.5208  0.2954  1.3870
  125OSM   H14B13260   6.399   3.621   5.821  0.5656 -0.2011 -0.6087
  125OSM   H14C13261   6.384   3.795   5.823 -0.0789 -0.8885  0.8649
  125OSM    C1313262   6.177   3.850   5.908  0.2712 -0.6383  0.0669
  125OSM   H13A13263   6.088   3.866   5.968 -0.7125 -1.4492 -1.1229
  125OSM   H13B13264   6.151   3.881   5.808  0.9697  1.0948  0.3990
  125OSM   H13C13265   6.251   3.923   5.934 -2.1315  1.1280  2.5212
  125OSM    C1213266   6.276   3.675   6.051 -0.2881  1.2629  0.2280
  125OSM   H12A13267   6.213   3.718   6.127 -0.8780  0.0412  0.4473
  125OSM   H12B13268   6.372   3.724   6.060  0.1205  0.3904  0.7807
  125OSM    C1113269   6.317   3.523   6.073 -0.4606  0.5115  0.7156
  125OSM   H11A13270   6.231   3.454   6.064 -1.0073  0.8185  3.0148
  125OSM   H11B13271   6.357   3.516   6.176 -1.7343  2.0389  1.3446
  125OSM      P13272   6.475   3.335   5.974 -0.5426  0.5785  0.4952
  125OSM    O1313273   6.387   3.251   5.889  0.0923 -0.6532  0.3083
  125OSM    O1413274   6.622   3.339   5.956 -0.1458  0.2511 -0.0670
  125OSM    O1113275   6.459   3.290   6.121 -0.1123  0.3369  0.4084
  125OSM    O1213276   6.419   3.486   5.980  0.3091  0.3088  0.3382
  125OSM    C1S13277   6.558   3.330   6.214 -0.2053  0.2280  0.3011
  125OSM    H1S13278   6.583   3.438   6.207 -1.6643  0.5180 -0.9377
  125OSM    H1T13279   6.650   3.272   6.192  1.0227  1.5392  1.7716
  125OSM     NF13280   6.604   3.354   6.454 -0.5147  0.1083 -0.7152
  125OSM    HNF13281   6.664   3.296   6.509 -2.2704  0.1488  1.3878
  125OSM    C2S13282   6.508   3.298   6.356 -0.0740 -0.0209 -0.5935
  125OSM    H2S13283   6.411   3.353   6.363 -1.7561 -2.8618  0.4565
  125OSM    C3S13284   6.480   3.149   6.379  0.1050  0.3148  0.3403
  125OSM    H3S13285   6.577   3.095   6.370 -0.6165 -0.7795 -1.5698
  125OSM     O313286   6.391   3.091   6.275 -0.7482  0.0647 -0.3424
  125OSM    HO313287   6.390   3.164   6.212  1.0609  0.0979 -0.3737
  125OSM    C4S13288   6.415   3.121   6.516  0.3611 -0.0821 -0.4740
  125OSM    H4S13289   6.310   3.153   6.523 -0.2327 -1.4153 -2.4512
  125OSM    C5S13290   6.457   3.041   6.614 -0.2815 -0.0288 -0.5936
  125OSM    H5S13291   6.554   2.990   6.601 -0.3272 -0.1707 -0.3764
  125OSM    C6S13292   6.383   3.018   6.741  0.5447 -0.0018  0.1003
  125OSM    H6S13293   6.375   2.909   6.762 -0.2581  0.2780  1.3846
  125OSM    H6T13294   6.275   3.041   6.730  0.2912 -1.5591 -0.9878
  125OSM    C7S13295   6.440   3.076   6.875 -0.3721 -0.7623  0.3756
  125OSM    H7S13296   6.462   3.181   6.847  1.1929 -1.2247 -0.2333
  125OSM    H7T13297   6.532   3.020   6.902  0.8785 -0.9014 -3.5417
  125OSM    C8S13298   6.329   3.054   6.985  0.2902 -0.3985 -0.5762
  125OSM    H8S13299   6.275   2.956   6.980 -1.0173  0.3033 -0.8385
  125OSM    H8T13300   6.248   3.129   6.972 -1.0974 -1.6995  0.1876
  125OSM    C9S13301   6.378   3.071   7.128 -0.0827 -0.3396  0.5939
  125OSM    H9S13302   6.413   3.177   7.136  0.7702 -0.3814 -1.7097
  125OSM    H9T13303   6.465   3.010   7.159 -0.9771 -1.4012  1.0710
  125OSM   C10S13304   6.265   3.059   7.233  1.0545  0.7928  0.2459
  125OSM   H10S13305   6.184   2.988   7.207  0.7739  0.4354  1.9518
  125OSM   H10T13306   6.206   3.153   7.223 -2.5290 -1.4886 -2.5641
  125OSM   C11S13307   6.316   3.033   7.373  0.6639 -0.1573 -0.2343
  125OSM   H11S13308   6.412   3.089   7.376 -1.1573  3.2190 -0.6864
  125OSM   H11T13309   6.344   2.927   7.390 -1.1340 -0.5074  0.7932
  125OSM   C12S13310   6.212   3.068   7.479 -0.3170 -0.5564  0.2859
  125OSM   H12S13311   6.144   2.980   7.474 -0.1270 -0.6247 -1.6539
  125OSM   H12T13312   6.151   3.156   7.449 -2.4833 -2.6572 -1.8812
  125OSM   C13S13313   6.245   3.081   7.632  0.0390  0.0329  0.1285
  125OSM   H13S13314   6.325   3.157   7.645 -0.7670  1.3767 -2.0690
  125OSM   H13T13315   6.290   2.982   7.655  0.9732  1.1163  3.4494
  125OSM   C14S13316   6.115   3.105   7.714  0.1726  0.0364 -0.4234
  125OSM   H14S13317   6.044   3.020   7.710  0.2100  0.0290 -2.9659
  125OSM   H14T13318   6.071   3.198   7.671 -1.1660 -1.4476 -2.4911
  125OSM   C15S13319   6.162   3.135   7.856 -0.3032  0.1338 -0.1448
  125OSM   H15S13320   6.238   3.215   7.848 -1.6829  1.3846 -1.3544
  125OSM   H15T13321   6.202   3.042   7.900 -1.4954  0.3192  1.4376
  125OSM   C16S13322   6.047   3.178   7.952 -0.3897 -0.8311 -0.3273
  125OSM   H16S13323   5.957   3.114   7.952 -2.2288  1.5978 -0.8424
  125OSM   H16T13324   6.008   3.276   7.915  0.4460 -0.6808 -0.8346
  125OSM   C17S13325   6.100   3.204   8.098  0.7274  0.0523  0.5258
  125OSM   H17S13326   6.045   3.289   8.143  0.0150  0.8673 -1.7913
  125OSM   H17T13327   6.206   3.239   8.094  0.9926 -0.4151  2.3862
  125OSM   C18S13328   6.099   3.072   8.185  0.3569 -0.0537  0.4330
  125OSM   H18S13329   6.151   2.991   8.129  0.1218  0.5891 -0.7311
  125OSM   H18T13330   5.996   3.046   8.219  0.9334  0.2622  2.5897
  125OSM   H18U13331   6.150   3.101   8.279 -0.4998  1.8193  0.3629
  125OSM    C1F13332   6.620   3.486   6.481 -0.2477 -0.9066 -0.6350
  125OSM     OF13333   6.561   3.577   6.422 -0.1121 -0.1185  0.2235
  125OSM    C2F13334   6.728   3.525   6.573 -0.1390  0.5434 -0.4087
  125OSM    H2F13335   6.764   3.627   6.547  0.9167  0.6353  1.2512
  125OSM    H2G13336   6.816   3.457   6.571 -0.5064  0.0658 -0.3979
  125OSM    C3F13337   6.671   3.550   6.716 -0.3588  0.2933  0.8011
  125OSM    H3F13338   6.571   3.599   6.705  0.1899  1.7730  2.0198
  125OSM    H3G13339   6.740   3.628   6.755  0.5635 -0.2046  0.2073
  125OSM    C4F13340   6.657   3.420   6.801 -0.5712 -0.8769  0.6140
  125OSM    H4F13341   6.736   3.347   6.775  0.2404 -0.2062  1.1264
  125OSM    H4G13342   6.554   3.381   6.788 -0.5234 -1.1866  1.1261
  125OSM    C5F13343   6.668   3.452   6.947  1.1473 -1.3083 -0.1342
  125OSM    H5F13344   6.564   3.477   6.975  1.3001 -0.2166 -0.5164
  125OSM    H5G13345   6.742   3.530   6.975  2.6268 -2.5243 -0.4829
  125OSM    C6F13346   6.706   3.334   7.039 -0.4642 -0.2443 -0.2722
  125OSM    H6F13347   6.644   3.248   7.006 -0.7371 -0.0937 -0.1547
  125OSM    H6G13348   6.693   3.374   7.141 -0.8885 -1.5083  0.1848
  125OSM    C7F13349   6.852   3.287   7.026  0.0576 -0.4040 -0.0400
  125OSM    H7F13350   6.919   3.375   7.023 -2.4272  1.5507 -2.0628
  125OSM    H7G13351   6.869   3.242   6.925  2.1692  0.9848 -0.3713
  125OSM    C8F13352   6.886   3.180   7.130 -0.3590 -0.7515  0.1248
  125OSM    H8F13353   6.985   3.137   7.105  1.7000  3.3352  0.3149
  125OSM    H8G13354   6.805   3.105   7.135 -0.9362 -0.3296 -1.9802
  125OSM    C9F13355   6.909   3.226   7.272 -0.2807  0.0152 -0.4637
  125OSM    H9F13356   7.000   3.285   7.290  0.3426 -1.1790  0.4749
  125OSM   C10F13357   6.828   3.214   7.378  0.2614 -0.3617  0.0033
  125OSM   H10F13358   6.861   3.264   7.470  0.4600  1.2023 -0.8710
  125OSM   C11F13359   6.701   3.141   7.381  0.3734  0.2503 -0.2906
  125OSM   H11F13360   6.651   3.167   7.286 -2.9953  0.6779  1.4716
  125OSM   H11G13361   6.638   3.196   7.453  1.1030  0.4344  0.2182
  125OSM   C12F13362   6.690   2.992   7.409 -0.0195 -0.5417 -0.7354
  125OSM   H12F13363   6.758   2.926   7.351 -0.2647 -0.3113 -1.2897
  125OSM   H12G13364   6.588   2.955   7.387 -0.5980  0.1705  0.6202
  125OSM   C13F13365   6.706   2.958   7.563 -0.2308 -0.0105  0.2771
  125OSM   H13F13366   6.794   3.016   7.597  0.7201 -1.3861  0.2770
  125OSM   H13G13367   6.723   2.850   7.584 -3.8615 -0.4753  1.4291
  125OSM   C14F13368   6.583   2.986   7.659  0.2110 -0.3084  0.5246
  125OSM   H14F13369   6.501   2.916   7.632 -0.3383  0.7916 -0.7679
  125OSM   H14G13370   6.547   3.086   7.627 -0.4256 -0.1977  1.5572
  125OSM   C15F13371   6.641   2.998   7.801 -0.4696 -0.0280  1.3118
  125OSM   H15F13372   6.715   3.079   7.788 -1.2098  0.5533  0.6261
  125OSM   H15G13373   6.687   2.899   7.825  0.5673 -0.2397 -1.2923
  125OSM   C16F13374   6.528   3.039   7.897  0.1645  0.8837  0.3435
  125OSM   H16F13375   6.456   2.955   7.904  0.5394  0.4762 -0.5031
  125OSM   H16G13376   6.482   3.120   7.837  0.1692  0.5333 -0.1385
  125OSM   C17F13377   6.570   3.089   8.038 -0.0549  0.6961 -0.4218
  125OSM   H17F13378   6.591   3.197   8.030 -1.9217  1.0371 -1.4265
  125OSM   H17G13379   6.665   3.038   8.065 -0.3692  0.9328  1.2432
  125OSM   C18F13380   6.470   3.063   8.149 -0.2505  0.0862 -0.0597
  125OSM   H18F13381   6.504   3.094   8.250  3.4857  0.5317 -1.2935
  125OSM   H18G13382   6.441   2.956   8.152 -0.7232  0.2333  2.1794
  125OSM   H18H13383   6.380   3.126   8.135 -0.4574 -0.0139  0.7972
  126OSM      N13384   3.044   0.054   6.577 -0.4458 -0.1619 -1.2294
  126OSM    C1513385   3.050   0.090   6.719  0.1800  0.6851  0.3137
  126OSM   H15A13386   3.042   0.197   6.732 -0.8870  0.5004  1.3329
  126OSM   H15B13387   3.138   0.047   6.765 -0.0253 -1.2705 -1.0210
  126OSM   H15C13388   2.964   0.052   6.772 -0.4113  0.4686 -0.7856
  126OSM    C1413389   3.161   0.113   6.515 -0.1906 -0.2389  0.2085
  126OSM   H14A13390   3.158   0.086   6.410  0.4713 -1.8745  0.5890
  126OSM   H14B13391   3.259   0.084   6.550  1.2043  1.1180 -2.2858
  126OSM   H14C13392   3.146   0.220   6.514 -1.6409 -0.4239 -0.2664
  126OSM    C1313393   3.074  -0.094   6.560 -0.4479 -0.3363  0.0346
  126OSM   H13A13394   3.160  -0.136   6.610 -1.4984 -1.3258  1.0677
  126OSM   H13B13395   3.083  -0.122   6.456 -1.8697  1.1512 -0.5269
  126OSM   H13C13396   2.997  -0.157   6.602  0.1562  0.5763  2.7056
  126OSM    C1213397   2.907   0.089   6.521 -0.2277 -0.0244 -0.2313
  126OSM   H12A13398   2.904   0.042   6.423 -2.9588 -2.1967  0.7662
  126OSM   H12B13399   2.905   0.193   6.493  1.2986 -0.3404 -1.7190
  126OSM    C1113400   2.778   0.045   6.601  0.0351  0.3099 -0.1411
  126OSM   H11A13401   2.689   0.084   6.546  1.1549  1.2463 -1.3614
  126OSM   H11B13402   2.773   0.098   6.699  2.7841  2.6605 -1.1172
  126OSM      P13403   2.716  -0.183   6.485  0.1011 -0.0189  0.3135
  126OSM    O1313404   2.730  -0.092   6.368  0.4183 -0.3472 -0.4986
  126OSM    O1413405   2.783  -0.316   6.488  0.1929 -0.3525 -0.6380
  126OSM    O1113406   2.563  -0.194   6.524  0.6471  0.3471  0.1819
  126OSM    O1213407   2.766  -0.101   6.612  0.1724  0.2261 -0.0414
  126OSM    C1S13408   2.517  -0.236   6.653 -0.3408  0.1386 -0.2916
  126OSM    H1S13409   2.581  -0.317   6.694 -2.0871  0.1866  2.8228
  126OSM    H1T13410   2.420  -0.289   6.642 -0.4457  0.7616 -3.1339
  126OSM     NF13411   2.463  -0.188   6.888 -0.7061 -0.1662  0.0139
  126OSM    HNF13412   2.365  -0.180   6.903 -0.6777 -1.0758  0.7725
  126OSM    C2S13413   2.501  -0.126   6.761  0.3013 -0.5630 -0.1656
  126OSM    H2S13414   2.593  -0.069   6.785  0.1701 -0.0621 -0.8366
  126OSM    C3S13415   2.401  -0.018   6.706  0.1606 -0.1494 -0.2853
  126OSM    H3S13416   2.301  -0.061   6.725 -0.3607  1.3857  0.6314
  126OSM     O313417   2.411   0.008   6.567  0.4131 -0.1561  0.4963
  126OSM    HO313418   2.476  -0.051   6.527  0.5826 -0.1539  0.7674
  126OSM    C4S13419   2.398   0.110   6.781 -0.8384  0.3445 -0.2224
  126OSM    H4S13420   2.493   0.155   6.811  0.4284 -1.4868 -1.2531
  126OSM    C5S13421   2.289   0.183   6.815 -0.0390  0.3561 -0.0408
  126OSM    H5S13422   2.188   0.144   6.797  0.4085 -1.1872  0.6730
  126OSM    C6S13423   2.287   0.320   6.879  0.1135  0.1208  0.1273
  126OSM    H6S13424   2.219   0.385   6.820  1.6369  0.4562 -1.3260
  126OSM    H6T13425   2.384   0.373   6.875  0.7530 -1.0580 -0.2855
  126OSM    C7S13426   2.245   0.318   7.035  0.2798  0.0190  0.0798
  126OSM    H7S13427   2.318   0.242   7.071 -0.4980 -0.2148  1.2011
  126OSM    H7T13428   2.150   0.262   7.040  0.1152  0.3554  0.8185
  126OSM    C8S13429   2.259   0.453   7.115 -0.1557  0.2372  0.5674
  126OSM    H8S13430   2.204   0.529   7.056 -3.6389 -2.3988  0.0822
  126OSM    H8T13431   2.366   0.483   7.113 -0.6665  2.1743  0.6918
  126OSM    C9S13432   2.201   0.448   7.250  0.4495 -0.0751  0.0139
  126OSM    H9S13433   2.102   0.400   7.235  1.1321 -0.7270 -3.3074
  126OSM    H9T13434   2.182   0.551   7.286 -2.3897 -0.6801  0.4677
  126OSM   C10S13435   2.278   0.364   7.360 -0.4091  0.5950  0.1163
  126OSM   H10S13436   2.371   0.420   7.384 -0.3792  0.2077  0.9360
  126OSM   H10T13437   2.297   0.260   7.329 -2.5835 -0.8137  3.0345
  126OSM   C11S13438   2.188   0.360   7.489 -0.3113 -0.6505  0.7617
  126OSM   H11S13439   2.095   0.300   7.477 -0.8585 -0.0844  1.9474
  126OSM   H11T13440   2.157   0.467   7.495 -1.0513 -0.7209 -1.0697
  126OSM   C12S13441   2.272   0.314   7.607 -0.3477  0.4706  0.4423
  126OSM   H12S13442   2.362   0.375   7.628  0.4768 -0.5683 -0.0057
  126OSM   H12T13443   2.298   0.209   7.581 -1.5283  0.3404 -0.2721
  126OSM   C13S13444   2.192   0.331   7.739 -0.3984  1.0105  0.3371
  126OSM   H13S13445   2.095   0.276   7.737  0.1285  0.0210  1.1262
  126OSM   H13T13446   2.168   0.439   7.746 -0.2678  1.1855 -1.4674
  126OSM   C14S13447   2.264   0.286   7.869  0.2704  0.2767  0.4091
  126OSM   H14S13448   2.357   0.347   7.876  1.0763 -0.3573 -3.1467
  126OSM   H14T13449   2.299   0.181   7.867  1.9837  0.8272 -0.4965
  126OSM   C15S13450   2.173   0.313   7.985  1.0009  0.8786  0.8340
  126OSM   H15S13451   2.080   0.254   7.967  1.3650 -0.0131  1.7970
  126OSM   H15T13452   2.153   0.422   7.990  0.7450  0.8505  0.4529
  126OSM   C16S13453   2.232   0.276   8.126 -0.2857  0.4125 -0.0472
  126OSM   H16S13454   2.326   0.332   8.146  0.9731 -0.6861 -2.4145
  126OSM   H16T13455   2.250   0.166   8.115 -1.4962  0.1187  0.7580
  126OSM   C17S13456   2.134   0.295   8.243  0.7049  0.6108  0.1625
  126OSM   H17S13457   2.184   0.282   8.341 -0.0057  0.2052  0.4790
  126OSM   H17T13458   2.071   0.204   8.251  0.8720  0.5303  0.5742
  126OSM   C18S13459   2.049   0.424   8.236 -0.1789  0.5912 -0.4580
  126OSM   H18S13460   2.109   0.517   8.236 -2.0177  1.8405 -0.9375
  126OSM   H18T13461   1.977   0.433   8.321 -1.8674 -0.1849 -1.7431
  126OSM   H18U13462   1.999   0.414   8.137  3.2779 -0.9436 -2.2135
  126OSM    C1F13463   2.544  -0.264   6.964  0.7225  0.5533  0.6947
  126OSM     OF13464   2.664  -0.274   6.944  0.8320 -0.1317 -0.1805
  126OSM    C2F13465   2.486  -0.346   7.075 -0.0892 -0.2552 -0.6157
  126OSM    H2F13466   2.390  -0.389   7.039  0.2817 -1.7770  0.1270
  126OSM    H2G13467   2.483  -0.276   7.161  0.0234 -0.5817 -0.3386
  126OSM    C3F13468   2.575  -0.467   7.104 -0.1532 -0.3978  0.3681
  126OSM    H3F13469   2.678  -0.432   7.125 -0.3489 -1.0888  2.7493
  126OSM    H3G13470   2.583  -0.526   7.010 -0.8172  1.6434 -1.0327
  126OSM    C4F13471   2.520  -0.547   7.225  0.0925 -0.0437  0.4310
  126OSM    H4F13472   2.420  -0.569   7.182 -0.2547 -0.1305  1.2625
  126OSM    H4G13473   2.530  -0.483   7.316 -1.8522 -0.2584  0.8557
  126OSM    C5F13474   2.596  -0.676   7.248  0.4880  0.4001 -0.3553
  126OSM    H5F13475   2.705  -0.657   7.245  0.4523  0.6555 -2.9701
  126OSM    H5G13476   2.577  -0.746   7.164  3.1959 -0.5430 -0.2759
  126OSM    C6F13477   2.554  -0.742   7.378 -0.1474  0.0711  0.6508
  126OSM    H6F13478   2.590  -0.846   7.362  0.7252  0.4482  0.0732
  126OSM    H6G13479   2.443  -0.748   7.390  0.0290 -1.1400  1.8492
  126OSM    C7F13480   2.609  -0.681   7.502 -0.3269 -0.1365  0.0694
  126OSM    H7F13481   2.556  -0.585   7.519 -0.9538 -0.4463 -0.1212
  126OSM    H7G13482   2.718  -0.658   7.506 -0.2787 -0.4857  1.0784
  126OSM    C8F13483   2.564  -0.759   7.629  0.0562 -0.8816  0.2259
  126OSM    H8F13484   2.619  -0.855   7.624  3.0601  0.7588 -2.3380
  126OSM    H8G13485   2.457  -0.785   7.616 -0.6045  1.2100  1.0675
  126OSM    C9F13486   2.576  -0.672   7.757  1.0256 -0.4381  0.2965
  126OSM    H9F13487   2.668  -0.612   7.762  1.7241 -1.4616  0.0410
  126OSM   C10F13488   2.485  -0.649   7.855 -0.0474  0.6071 -0.4522
  126OSM   H10F13489   2.508  -0.578   7.936 -1.2289  1.8411 -1.1548
  126OSM   C11F13490   2.340  -0.703   7.853  0.1539 -0.3652  0.9946
  126OSM   H11F13491   2.333  -0.784   7.777  1.1062  1.9493 -1.7467
  126OSM   H11G13492   2.264  -0.627   7.822 -0.3194 -1.7310 -1.4919
  126OSM   C12F13493   2.295  -0.752   8.001  0.1536  0.2885  0.3124
  126OSM   H12F13494   2.184  -0.760   8.013  0.0554  0.4167 -0.4359
  126OSM   H12G13495   2.334  -0.676   8.071  0.1625 -2.3964  3.4892
  126OSM   C13F13496   2.350  -0.884   8.040 -0.2374  0.5184 -0.4836
  126OSM   H13F13497   2.459  -0.884   8.022  1.0517  1.5920  5.1964
  126OSM   H13G13498   2.301  -0.972   7.993  1.6584 -0.3529 -0.9187
  126OSM   C14F13499   2.351  -0.897   8.199 -0.4889  0.2422 -0.5174
  126OSM   H14F13500   2.348  -0.801   8.255  1.2158 -0.8012  1.4891
  126OSM   H14G13501   2.449  -0.942   8.227 -0.3371  0.7510 -0.2102
  126OSM   C15F13502   2.230  -0.970   8.256 -0.1153  0.2866 -0.2752
  126OSM   H15F13503   2.218  -1.070   8.208  0.2046 -0.2277  0.7005
  126OSM   H15G13504   2.142  -0.909   8.225  0.4136  1.2817  0.1422
  126OSM   C16F13505   2.236  -0.998   8.406  0.4005  0.2188  0.5244
  126OSM   H16F13506   2.246  -0.904   8.465  1.7847  0.4403 -0.0295
  126OSM   H16G13507   2.298  -1.086   8.433  0.0521 -0.5063 -0.9166
  126OSM   C17F13508   2.105  -1.045   8.466  0.0510  0.2780 -0.3296
  126OSM   H17F13509   2.119  -1.095   8.564 -1.7245  2.2151  1.0209
  126OSM   H17G13510   2.072  -1.127   8.399 -0.8305  0.6805 -0.4009
  126OSM   C18F13511   2.003  -0.931   8.485  0.4505 -0.4183  0.1645
  126OSM   H18F13512   2.048  -0.845   8.538 -0.4045  0.0758  0.1101
  126OSM   H18G13513   1.915  -0.959   8.547  0.4456  0.2945  0.4853
  126OSM   H18H13514   1.965  -0.895   8.387 -1.9001 -1.6826  0.5343
  127OSM      N13515   0.973   3.426   5.779  0.3863  0.4691  0.2401
  127OSM    C1513516   1.038   3.378   5.654 -0.1758  0.0924  0.2646
  127OSM   H15A13517   1.083   3.280   5.665 -0.0981 -0.1518 -1.7293
  127OSM   H15B13518   1.107   3.449   5.612  1.6089 -0.5386  1.9640
  127OSM   H15C13519   0.973   3.371   5.568  1.2866  2.0505 -1.0938
  127OSM    C1413520   0.907   3.547   5.735  0.1125  0.3506 -0.6100
  127OSM   H14A13521   0.877   3.609   5.818 -0.7671 -0.5486 -0.2428
  127OSM   H14B13522   0.817   3.520   5.682 -0.0113  0.0993 -0.2711
  127OSM   H14C13523   0.965   3.600   5.661 -0.3863 -1.5826 -2.4837
  127OSM    C1313524   0.860   3.335   5.821  0.2969 -0.0751 -0.4401
  127OSM   H13A13525   0.891   3.278   5.907 -2.3586  1.6787  1.8768
  127OSM   H13B13526   0.819   3.280   5.737 -1.3205 -1.2375  1.0353
  127OSM   H13C13527   0.785   3.400   5.863  0.1861 -0.3582 -0.1975
  127OSM    C1213528   1.072   3.451   5.901 -0.0575 -0.3446  0.6627
  127OSM   H12A13529   1.151   3.515   5.864  0.0443 -0.5341  0.5533
  127OSM   H12B13530   1.123   3.360   5.927 -0.7366 -0.9506 -0.0801
  127OSM    C1113531   1.016   3.523   6.032  0.9171  1.1320 -0.2245
  127OSM   H11A13532   1.090   3.512   6.115 -0.9779  1.2360  1.5692
  127OSM   H11B13533   0.928   3.463   6.064  1.8498  0.5861  1.5075
  127OSM      P13534   1.086   3.772   5.997  0.4050 -0.1267 -0.0244
  127OSM    O1313535   1.188   3.737   5.889  0.4069  0.2628 -0.1371
  127OSM    O1413536   1.007   3.895   5.968 -0.1056 -0.5415 -0.3110
  127OSM    O1113537   1.135   3.779   6.147 -0.1182 -0.5620 -0.1496
  127OSM    O1213538   0.973   3.658   6.003 -0.6548 -0.5930 -0.3702
  127OSM    C1S13539   1.050   3.809   6.258  0.1308 -0.3592  0.5663
  127OSM    H1S13540   0.984   3.722   6.281  1.7446 -1.9119 -0.3880
  127OSM    H1T13541   0.979   3.893   6.241 -0.2462 -0.8312 -0.2863
  127OSM     NF13542   1.030   3.835   6.499 -0.0258 -0.3596 -0.4904
  127OSM    HNF13543   0.990   3.920   6.534 -0.2823 -1.4355  2.0103
  127OSM    C2S13544   1.122   3.841   6.387 -0.3399 -0.0164  0.6678
  127OSM    H2S13545   1.206   3.771   6.408 -2.1559 -2.1016  1.3652
  127OSM    C3S13546   1.197   3.977   6.364  0.2299 -0.0733 -0.6485
  127OSM    H3S13547   1.127   4.058   6.333 -0.3544 -0.4161 -0.2424
  127OSM     O313548   1.292   3.971   6.258 -0.5185 -0.0521  0.0013
  127OSM    HO313549   1.273   3.886   6.218  0.6952  0.0544 -0.8490
  127OSM    C4S13550   1.270   4.030   6.487 -0.0967 -0.1905  0.7785
  127OSM    H4S13551   1.333   3.953   6.534 -0.2613 -0.8039  0.0087
  127OSM    C5S13552   1.266   4.158   6.529  0.0748 -0.2264 -0.7496
  127OSM    H5S13553   1.199   4.236   6.488 -1.9904  0.5603  3.5381
  127OSM    C6S13554   1.329   4.212   6.660  0.0352  0.0446 -0.2118
  127OSM    H6S13555   1.279   4.307   6.690  0.7338  0.8343 -1.4682
  127OSM    H6T13556   1.438   4.225   6.649 -0.1816  1.5173 -0.9408
  127OSM    C7S13557   1.313   4.099   6.769  0.1773 -0.3230  0.3553
  127OSM    H7S13558   1.367   4.006   6.740  1.6348 -0.0341  1.9862
  127OSM    H7T13559   1.205   4.073   6.777  0.5665 -2.5906 -0.8792
  127OSM    C8S13560   1.382   4.153   6.897  0.0641  0.6385  0.6962
  127OSM    H8S13561   1.341   4.253   6.922  1.1517  0.9528  1.2879
  127OSM    H8T13562   1.487   4.178   6.874  0.1919  0.6215  1.2386
  127OSM    C9S13563   1.372   4.061   7.026 -0.1249 -0.1524  0.2943
  127OSM    H9S13564   1.423   3.962   7.027 -1.4235 -0.8575 -0.4695
  127OSM    H9T13565   1.266   4.039   7.051 -0.1594  0.8075  1.0564
  127OSM   C10S13566   1.428   4.130   7.149  0.4718 -0.3500  0.4024
  127OSM   H10S13567   1.367   4.221   7.167  0.7602  0.1714 -1.1240
  127OSM   H10T13568   1.528   4.176   7.135 -0.8784  2.8726  0.5451
  127OSM   C11S13569   1.421   4.044   7.274  0.5338  0.3055  0.0553
  127OSM   H11S13570   1.504   3.970   7.277  0.9267  0.7417  0.0896
  127OSM   H11T13571   1.330   3.983   7.258  0.1002  1.1855 -0.9703
  127OSM   C12S13572   1.395   4.123   7.405 -0.2897 -0.0571 -0.0126
  127OSM   H12S13573   1.315   4.196   7.377  0.5975  1.5259  1.3608
  127OSM   H12T13574   1.487   4.182   7.426  0.5795 -1.1111 -0.7421
  127OSM   C13S13575   1.346   4.038   7.521  0.6823 -0.1969  0.1416
  127OSM   H13S13576   1.416   3.953   7.536 -0.9986 -1.8213 -0.7291
  127OSM   H13T13577   1.245   4.002   7.492 -0.0114 -0.1681  2.4099
  127OSM   C14S13578   1.342   4.123   7.647  0.4086  0.7544  0.0202
  127OSM   H14S13579   1.285   4.218   7.650  0.4068  0.7573 -0.0993
  127OSM   H14T13580   1.442   4.169   7.662 -0.6376  3.5257 -0.9161
  127OSM   C15S13581   1.309   4.042   7.776 -0.3040  0.8971 -0.7322
  127OSM   H15S13582   1.393   3.972   7.794 -0.3870  0.4173 -2.0679
  127OSM   H15T13583   1.215   3.983   7.769 -0.3411  0.9477 -0.6652
  127OSM   C16S13584   1.303   4.139   7.890  0.3468  0.2468  0.1964
  127OSM   H16S13585   1.223   4.215   7.879 -0.5862 -0.6822  0.3468
  127OSM   H16T13586   1.399   4.193   7.898  0.2188  0.3080  1.5880
  127OSM   C17S13587   1.269   4.066   8.026 -0.4216 -0.0590 -0.5446
  127OSM   H17S13588   1.333   3.975   8.028 -1.7782 -1.1451 -2.7496
  127OSM   H17T13589   1.164   4.032   8.027 -0.5490  0.2494 -1.7129
  127OSM   C18S13590   1.303   4.136   8.156  0.2504  0.0644  0.0461
  127OSM   H18S13591   1.254   4.094   8.247  0.1009  3.8083  1.9009
  127OSM   H18T13592   1.267   4.240   8.143  0.6411  0.1350 -0.4929
  127OSM   H18U13593   1.411   4.134   8.182  0.3033 -1.8857 -0.1476
  127OSM    C1F13594   0.969   3.721   6.545 -0.2975  0.3066 -0.1618
  127OSM     OF13595   0.991   3.614   6.490 -0.4201 -0.4374 -0.6717
  127OSM    C2F13596   0.870   3.734   6.656  0.0708  0.0909  0.2893
  127OSM    H2F13597   0.771   3.698   6.621  0.1635  0.5924 -0.5096
  127OSM    H2G13598   0.839   3.836   6.688 -3.0212 -0.6151 -0.1172
  127OSM    C3F13599   0.903   3.651   6.775  0.6290 -0.4255  0.5211
  127OSM    H3F13600   1.002   3.690   6.808  1.6651 -0.2575 -2.4929
  127OSM    H3G13601   0.921   3.542   6.757 -0.8850 -0.8849  1.6091
  127OSM    C4F13602   0.792   3.651   6.887 -0.3336 -0.2975  0.3372
  127OSM    H4F13603   0.691   3.624   6.848 -1.0761  3.9802 -1.2956
  127OSM    H4G13604   0.802   3.756   6.920 -2.1784  0.3676 -1.0672
  127OSM    C5F13605   0.834   3.579   7.017  0.8100  0.0802 -0.5728
  127OSM    H5F13606   0.931   3.623   7.052 -0.0368  1.3666  0.2460
  127OSM    H5G13607   0.860   3.473   6.996  2.2394  0.0330  1.1941
  127OSM    C6F13608   0.744   3.606   7.138  0.1477  0.3405 -0.1834
  127OSM    H6F13609   0.687   3.701   7.127 -2.5385 -1.3660 -2.1090
  127OSM    H6G13610   0.808   3.601   7.229 -0.5707  0.2266  0.3189
  127OSM    C7F13611   0.628   3.504   7.136  0.2054 -0.4416  0.1387
  127OSM    H7F13612   0.665   3.402   7.112  0.3619 -0.7883  1.7015
  127OSM    H7G13613   0.558   3.542   7.059 -0.0774  0.9345  1.0240
  127OSM    C8F13614   0.540   3.487   7.265  0.1666  0.3459  0.1180
  127OSM    H8F13615   0.450   3.434   7.226 -0.8820  0.8504  1.7458
  127OSM    H8G13616   0.521   3.588   7.307  2.8772 -0.0161  2.5716
  127OSM    C9F13617   0.601   3.404   7.377  0.2590  0.1299  0.1454
  127OSM    H9F13618   0.626   3.302   7.344  1.6261  0.7165 -0.7114
  127OSM   C10F13619   0.634   3.425   7.507  0.1727  0.2171  0.3289
  127OSM   H10F13620   0.662   3.342   7.573  0.6416 -1.0046 -1.3506
  127OSM   C11F13621   0.620   3.556   7.575  0.2894  0.0557  0.0299
  127OSM   H11F13622   0.623   3.635   7.497 -2.0698  1.1432  0.9607
  127OSM   H11G13623   0.715   3.574   7.631  0.9845  0.0447 -1.0986
  127OSM   C12F13624   0.490   3.595   7.652  0.3272  0.6026 -0.1010
  127OSM   H12F13625   0.409   3.577   7.578  0.0934 -0.0199  0.2973
  127OSM   H12G13626   0.492   3.705   7.669  1.0806  0.5375  0.2565
  127OSM   C13F13627   0.469   3.528   7.789 -0.6703  0.1897  0.2623
  127OSM   H13F13628   0.460   3.419   7.775 -2.6670  0.2784  0.5578
  127OSM   H13G13629   0.371   3.561   7.830 -1.4112 -0.1680 -1.1363
  127OSM   C14F13630   0.581   3.553   7.892  0.5829  0.3502  0.4384
  127OSM   H14F13631   0.589   3.664   7.894  0.6698  0.3519  0.1698
  127OSM   H14G13632   0.673   3.512   7.845  0.2853  0.5606 -0.3517
  127OSM   C15F13633   0.541   3.493   8.021 -0.0766  0.0154  0.0319
  127OSM   H15F13634   0.497   3.393   8.001 -2.2489  1.0747 -0.7732
  127OSM   H15G13635   0.457   3.548   8.069  0.3832  0.1003  0.7520
  127OSM   C16F13636   0.653   3.480   8.125  0.0443  0.6757 -0.3631
  127OSM   H16F13637   0.664   3.575   8.182 -0.7165  1.0450 -0.8260
  127OSM   H16G13638   0.744   3.448   8.070 -0.0457 -0.4240  0.1080
  127OSM   C17F13639   0.624   3.361   8.220 -0.3730  0.0831 -0.1326
  127OSM   H17F13640   0.627   3.277   8.147  1.3308  0.5334 -0.6148
  127OSM   H17G13641   0.522   3.379   8.262 -0.2018  2.3023 -0.5488
  127OSM   C18F13642   0.741   3.346   8.314 -0.6404  0.1292  0.1611
  127OSM   H18F13643   0.841   3.355   8.267  0.1463  0.0339  1.7721
  127OSM   H18G13644   0.735   3.255   8.377  0.9790 -0.9838 -1.2121
  127OSM   H18H13645   0.738   3.424   8.392 -1.3904 -0.8190  1.1150
  128OSM      N13646   0.534   6.733   6.042 -0.2316 -0.3181  0.0896
  128OSM    C1513647   0.524   6.633   6.155  0.4261 -0.5109  0.0934
  128OSM   H15A13648   0.534   6.673   6.255 -0.6059  1.2374 -0.4618
  128OSM   H15B13649   0.610   6.567   6.149  2.0083  1.1741  2.5076
  128OSM   H15C13650   0.431   6.579   6.150 -0.8215  1.6005 -0.5298
  128OSM    C1413651   0.407   6.804   6.026 -0.8922  0.0280  1.0073
  128OSM   H14A13652   0.383   6.868   6.110  1.8654  0.6085  1.4681
  128OSM   H14B13653   0.322   6.740   6.008  0.0182 -0.4279 -2.2640
  128OSM   H14C13654   0.405   6.870   5.940 -0.3089 -1.9719 -0.6110
  128OSM    C1313655   0.638   6.829   6.074 -0.3088  0.1154 -0.1652
  128OSM   H13A13656   0.728   6.771   6.086  0.2463  1.1858  0.9405
  128OSM   H13B13657   0.621   6.892   6.160  1.3084 -1.4552  1.3961
  128OSM   H13C13658   0.652   6.897   5.992 -0.6971 -0.2907 -0.5797
  128OSM    C1213659   0.568   6.668   5.912 -0.0290 -0.1393  0.1317
  128OSM   H12A13660   0.562   6.751   5.843 -1.3829 -0.1079  0.2545
  128OSM   H12B13661   0.491   6.597   5.886 -0.4694  1.0757 -2.1195
  128OSM    C1113662   0.714   6.604   5.906  0.3347 -0.1195  0.3098
  128OSM   H11A13663   0.792   6.677   5.934  0.1790  1.2714 -2.4680
  128OSM   H11B13664   0.725   6.579   5.798 -2.4092 -0.9806  0.1354
  128OSM      P13665   0.657   6.355   5.956  0.5786  0.6301  0.0730
  128OSM    O1313666   0.522   6.367   5.889  0.0252 -0.4360  0.2636
  128OSM    O1413667   0.753   6.261   5.896  0.4198  0.0083  0.1673
  128OSM    O1113668   0.626   6.310   6.104 -0.7370  0.2491  0.0372
  128OSM    O1213669   0.731   6.491   5.990 -0.1732  0.3267 -0.1803
  128OSM    C1S13670   0.749   6.298   6.186  0.3762 -0.2076  0.0921
  128OSM    H1S13671   0.801   6.394   6.208 -0.5706  0.1435  0.8723
  128OSM    H1T13672   0.831   6.245   6.133  2.0662  1.5597  0.8119
  128OSM     NF13673   0.816   6.242   6.407  0.3438 -0.0178 -0.4827
  128OSM    HNF13674   0.872   6.160   6.414  1.2150  0.7116  1.9778
  128OSM    C2S13675   0.710   6.226   6.312 -0.1115 -0.3004  0.0009
  128OSM    H2S13676   0.614   6.267   6.352  0.3183  0.7543 -0.0107
  128OSM    C3S13677   0.676   6.079   6.284  0.6401  0.5671  0.2830
  128OSM    H3S13678   0.759   6.027   6.232 -0.1913 -1.9935  1.3962
  128OSM     O313679   0.551   6.061   6.209 -0.0967  0.5567  0.1367
  128OSM    HO313680   0.547   6.136   6.150 -2.0630 -0.6237 -1.3726
  128OSM    C4S13681   0.658   6.011   6.420 -0.7544 -0.5128  0.1956
  128OSM    H4S13682   0.557   6.002   6.462 -1.3986 -3.2650 -1.7002
  128OSM    C5S13683   0.761   5.959   6.485  0.0682  0.5496 -0.5825
  128OSM    H5S13684   0.859   5.958   6.434  2.1019  1.4380  2.9464
  128OSM    C6S13685   0.751   5.891   6.619  0.1176  0.4509 -0.2490
  128OSM    H6S13686   0.787   5.787   6.604  0.5486  0.1479  2.4496
  128OSM    H6T13687   0.648   5.896   6.660 -0.3788  0.4369 -1.4328
  128OSM    C7S13688   0.843   5.946   6.728  0.2468 -0.0091 -0.8157
  128OSM    H7S13689   0.864   6.055   6.722  0.7700 -0.1598 -1.9957
  128OSM    H7T13690   0.942   5.900   6.706  0.4177  0.4944 -1.1244
  128OSM    C8S13691   0.801   5.900   6.869 -0.5595 -0.5304 -0.2997
  128OSM    H8S13692   0.781   5.792   6.856 -1.2325 -0.3656 -0.6575
  128OSM    H8T13693   0.713   5.954   6.908  1.0065 -0.5246  3.7129
  128OSM    C9S13694   0.921   5.913   6.967 -0.3212  1.1380 -0.8440
  128OSM    H9S13695   0.943   6.021   6.975 -0.0933  1.1309 -1.3220
  128OSM    H9T13696   0.998   5.851   6.915 -0.5734 -1.5335  1.6538
  128OSM   C10S13697   0.881   5.873   7.112 -0.4721 -0.6614 -0.8780
  128OSM   H10S13698   0.855   5.765   7.119  3.1835 -1.5925  0.4239
  128OSM   H10T13699   0.794   5.939   7.134  0.8741  0.9303 -0.1256
  128OSM   C11S13700   0.984   5.907   7.218 -0.3253 -0.7439 -0.0503
  128OSM   H11S13701   0.983   6.017   7.228 -0.8259 -0.9470  3.9780
  128OSM   H11T13702   1.090   5.884   7.192 -0.2803  1.0621 -1.6656
  128OSM   C12S13703   0.949   5.847   7.356  0.4550 -0.6316  0.0457
  128OSM   H12S13704   0.941   5.736   7.357 -1.1076 -0.5320  0.5851
  128OSM   H12T13705   0.850   5.890   7.380 -0.6331 -3.6259  1.3659
  128OSM   C13S13706   1.039   5.903   7.468  0.0124  0.9058  0.6226
  128OSM   H13S13707   1.025   6.013   7.467 -0.5044  0.8698 -1.2432
  128OSM   H13T13708   1.146   5.883   7.451  0.0429  0.4495  1.3244
  128OSM   C14S13709   1.010   5.843   7.605  0.8667  0.3896 -0.0057
  128OSM   H14S13710   1.098   5.793   7.651  0.0647 -0.6403  0.4325
  128OSM   H14T13711   0.933   5.763   7.599  1.6592 -0.3296 -0.7361
  128OSM   C15S13712   0.951   5.947   7.711  0.4912 -0.0458  0.4724
  128OSM   H15S13713   0.860   5.998   7.672  1.0108  2.1328  1.9109
  128OSM   H15T13714   1.027   6.026   7.728  0.0081 -0.1273  3.5873
  128OSM   C16S13715   0.917   5.878   7.844  0.2368 -0.1235  0.0852
  128OSM   H16S13716   0.994   5.799   7.849 -0.4854 -1.0500 -2.1697
  128OSM   H16T13717   0.816   5.835   7.828 -0.8820  2.1567  0.5544
  128OSM   C17S13718   0.901   5.972   7.968 -0.6292  0.0662  0.2140
  128OSM   H17S13719   0.840   6.061   7.942 -0.1975  0.8449  1.7397
  128OSM   H17T13720   1.002   6.015   7.988 -1.0155 -0.1401  3.0487
  128OSM   C18S13721   0.856   5.911   8.101 -0.0157  0.3736  0.3022
  128OSM   H18S13722   0.855   5.989   8.181  0.6842 -1.1326  1.8407
  128OSM   H18T13723   0.922   5.824   8.122 -0.0403  0.2733 -0.0304
  128OSM   H18U13724   0.755   5.866   8.095 -0.1156  0.6919 -0.5899
  128OSM    C1F13725   0.839   6.349   6.480  0.2139 -0.2525  0.6408
  128OSM     OF13726   0.765   6.444   6.468  0.5163  0.4438  0.3535
  128OSM    C2F13727   0.955   6.339   6.573 -0.2688 -0.3732  0.6884
  128OSM    H2F13728   1.033   6.413   6.546 -0.9222  0.0098 -0.2316
  128OSM    H2G13729   1.012   6.244   6.571 -0.6815 -0.6200  0.4750
  128OSM    C3F13730   0.900   6.384   6.706  0.0466  0.2143  0.2558
  128OSM    H3F13731   0.815   6.317   6.734 -0.3674  1.0532  1.0609
  128OSM    H3G13732   0.845   6.479   6.694 -1.7591 -0.6493  1.1999
  128OSM    C4F13733   1.011   6.392   6.810 -0.2287  0.1011  0.4277
  128OSM    H4F13734   0.965   6.430   6.904 -3.3573 -2.0368 -0.0687
  128OSM    H4G13735   1.093   6.462   6.783  0.7807 -0.6327  1.4810
  128OSM    C5F13736   1.097   6.267   6.845 -0.4659 -0.2955 -0.3713
  128OSM    H5F13737   1.192   6.273   6.789 -0.4500  0.8688 -0.2588
  128OSM    H5G13738   1.039   6.178   6.812  1.2119 -2.3111  1.7599
  128OSM    C6F13739   1.125   6.253   6.999  0.4967 -0.0019 -0.0253
  128OSM    H6F13740   1.166   6.152   7.021 -0.3777 -0.2899  0.3046
  128OSM    H6G13741   1.025   6.266   7.045  0.5019  1.5105 -0.3804
  128OSM    C7F13742   1.221   6.355   7.063  1.0275  0.3724 -0.2218
  128OSM    H7F13743   1.189   6.461   7.050 -2.7341 -0.3463  1.7889
  128OSM    H7G13744   1.322   6.331   7.022  0.2340 -2.9343 -0.4625
  128OSM    C8F13745   1.220   6.321   7.217  0.1275  0.3609 -0.2057
  128OSM    H8F13746   1.277   6.228   7.236  0.4688  0.7715  0.8474
  128OSM    H8G13747   1.115   6.294   7.245  0.2117  0.1857 -0.0583
  128OSM    C9F13748   1.286   6.436   7.286 -0.3362 -0.3188  0.4708
  128OSM    H9F13749   1.304   6.524   7.224  1.8997  0.0884  1.5914
  128OSM   C10F13750   1.332   6.439   7.413  0.2416 -0.0489  0.5468
  128OSM   H10F13751   1.374   6.536   7.446 -1.0027  1.0369 -0.9341
  128OSM   C11F13752   1.320   6.334   7.522  0.6392 -0.1250  0.4171
  128OSM   H11F13753   1.403   6.260   7.521  0.7368 -0.1515  3.1330
  128OSM   H11G13754   1.233   6.268   7.500  0.8972 -1.5281  3.0884
  128OSM   C12F13755   1.308   6.371   7.668  0.4785 -0.1924 -0.4072
  128OSM   H12F13756   1.214   6.423   7.698  0.1104 -1.1283  0.1110
  128OSM   H12G13757   1.383   6.451   7.682 -0.7357  1.1984 -1.5389
  128OSM   C13F13758   1.333   6.263   7.767  0.0386  0.1254  1.2641
  128OSM   H13F13759   1.437   6.224   7.757 -0.3251 -0.5126 -0.2262
  128OSM   H13G13760   1.279   6.171   7.735 -0.7670  0.4673  1.6168
  128OSM   C14F13761   1.309   6.311   7.914  0.0108 -0.3640  0.9248
  128OSM   H14F13762   1.224   6.375   7.945 -1.8179 -2.2248  0.0238
  128OSM   H14G13763   1.409   6.353   7.938  0.2634 -0.0863 -0.4979
  128OSM   C15F13764   1.295   6.187   7.999  0.1665  0.0696 -0.4068
  128OSM   H15F13765   1.365   6.103   7.981 -0.2153 -0.5711  0.9467
  128OSM   H15G13766   1.204   6.132   7.970  0.6771 -1.5159  0.8503
  128OSM   C16F13767   1.304   6.220   8.150  0.6564 -0.8562  0.5294
  128OSM   H16F13768   1.215   6.283   8.172  0.9448  0.0080 -0.6727
  128OSM   H16G13769   1.389   6.290   8.168 -0.1104  0.3704 -0.4225
  128OSM   C17F13770   1.308   6.096   8.237  0.5639  0.0399  0.1802
  128OSM   H17F13771   1.356   6.129   8.332  0.0641  0.0183  0.4475
  128OSM   H17G13772   1.363   6.009   8.197  0.3845 -1.2699  2.5985
  128OSM   C18F13773   1.174   6.047   8.287  0.0251  0.2280 -0.5113
  128OSM   H18F13774   1.122   6.128   8.344 -0.4076  0.0178 -0.6078
  128OSM   H18G13775   1.191   5.968   8.363 -0.8422  1.5960  1.1719
  128OSM   H18H13776   1.107   6.016   8.204 -0.0658 -0.6295 -0.1267
  129OSM      N13777   4.414   2.296   5.913  0.1460 -0.0156  0.2856
  129OSM    C1513778   4.494   2.235   5.806 -0.7351  0.3291  0.1964
  129OSM   H15A13779   4.559   2.308   5.759  0.7939  1.3837  3.6313
  129OSM   H15B13780   4.431   2.182   5.735 -1.4303  1.2122  0.1383
  129OSM   H15C13781   4.556   2.157   5.847 -0.3146  0.8320  0.5283
  129OSM    C1413782   4.499   2.345   6.026 -0.1663  0.1480 -0.2231
  129OSM   H14A13783   4.542   2.263   6.083 -0.2672  1.2561  1.5010
  129OSM   H14B13784   4.448   2.411   6.094  0.7985 -0.1450  0.8174
  129OSM   H14C13785   4.585   2.396   5.985 -0.2837  3.6781  3.3758
  129OSM    C1313786   4.358   2.417   5.844 -0.4106 -1.0838 -0.5521
  129OSM   H13A13787   4.285   2.391   5.769 -1.2759  0.2638 -0.2111
  129OSM   H13B13788   4.436   2.475   5.796 -0.7347 -1.3642 -1.4383
  129OSM   H13C13789   4.310   2.473   5.923 -0.1778 -1.0814 -0.4107
  129OSM    C1213790   4.312   2.194   5.959  0.2197 -0.1339  0.5784
  129OSM   H12A13791   4.244   2.164   5.880  0.1211 -2.0774  1.3480
  129OSM   H12B13792   4.241   2.248   6.020  0.2912  3.2837 -2.0373
  129OSM    C1113793   4.363   2.069   6.033 -0.0140  0.3063  0.6152
  129OSM   H11A13794   4.409   2.016   5.947  0.3563  2.6679 -0.7057
  129OSM   H11B13795   4.279   2.004   6.066 -0.2850  0.6179  0.5446
  129OSM      P13796   4.596   2.004   6.141 -0.3089 -0.6183 -0.0239
  129OSM    O1313797   4.570   1.857   6.156  0.2261 -0.4015 -0.2587
  129OSM    O1413798   4.670   2.045   6.022 -0.0755  0.3269 -0.4069
  129OSM    O1113799   4.667   2.056   6.274  0.4108 -0.0394  0.1142
  129OSM    O1213800   4.457   2.089   6.144 -0.0874  0.5099  0.1737
  129OSM    C1S13801   4.600   2.047   6.398 -0.2300 -0.2442  0.1420
  129OSM    H1S13802   4.586   1.940   6.425 -3.4866  0.5301  1.9959
  129OSM    H1T13803   4.498   2.092   6.391  0.2892  0.7334 -2.2861
  129OSM     NF13804   4.609   2.115   6.635 -0.4132 -0.4744  0.0843
  129OSM    HNF13805   4.559   2.190   6.677  1.1027  0.6784 -0.0967
  129OSM    C2S13806   4.669   2.140   6.504  0.4647 -0.2870  0.2997
  129OSM    H2S13807   4.775   2.107   6.510 -0.2938 -3.1355 -0.4833
  129OSM    C3S13808   4.671   2.288   6.457 -0.4294  0.0703 -1.4015
  129OSM    H3S13809   4.565   2.321   6.463 -0.2850  0.2673  1.6999
  129OSM     O313810   4.729   2.306   6.329  0.0405  0.0036 -0.3638
  129OSM    HO313811   4.717   2.220   6.289 -1.2013  0.7690 -1.7306
  129OSM    C4S13812   4.752   2.378   6.548  0.8035 -0.1157  0.5536
  129OSM    H4S13813   4.848   2.330   6.571  1.6407  0.8400 -0.8119
  129OSM    C5S13814   4.718   2.498   6.590  0.3345 -0.2114  0.1004
  129OSM    H5S13815   4.620   2.547   6.578  0.5188  0.1293 -0.0176
  129OSM    C6S13816   4.816   2.579   6.676  0.4973 -0.1278 -0.0899
  129OSM    H6S13817   4.756   2.640   6.746  0.5818  1.7866 -1.5958
  129OSM    H6T13818   4.849   2.658   6.605 -2.4216  1.3814  0.0748
  129OSM    C7S13819   4.924   2.503   6.753  0.3992 -0.1761  0.2423
  129OSM    H7S13820   5.012   2.564   6.784 -0.1736  1.3829 -1.0511
  129OSM    H7T13821   4.964   2.413   6.703  0.7226 -1.2472  2.3203
  129OSM    C8S13822   4.885   2.451   6.892  0.1848 -0.3234  0.1143
  129OSM    H8S13823   4.808   2.514   6.941  0.2417 -1.3782  1.6206
  129OSM    H8T13824   4.971   2.446   6.963 -0.1384 -0.4475  0.5007
  129OSM    C9S13825   4.813   2.309   6.897 -0.5900  0.1033  0.3166
  129OSM    H9S13826   4.845   2.254   6.806  0.7824 -1.8519  1.9076
  129OSM    H9T13827   4.703   2.323   6.885 -0.4901  0.9460  0.3337
  129OSM   C10S13828   4.819   2.234   7.026  0.1139 -0.7908  0.0122
  129OSM   H10S13829   4.719   2.197   7.056 -2.2499  4.2009 -0.7718
  129OSM   H10T13830   4.848   2.312   7.099 -0.4454 -1.8699  1.4288
  129OSM   C11S13831   4.912   2.113   7.028  0.1858  1.4545 -0.1871
  129OSM   H11S13832   4.989   2.129   6.949 -2.2241 -2.8908 -3.8633
  129OSM   H11T13833   4.864   2.026   6.979  0.3121  2.7641 -2.8299
  129OSM   C12S13834   4.976   2.095   7.166  0.9289 -0.4771  0.0086
  129OSM   H12S13835   5.003   1.988   7.167  3.1454  0.0262  2.3345
  129OSM   H12T13836   4.891   2.120   7.233 -0.6665 -0.2660 -1.9810
  129OSM   C13S13837   5.090   2.197   7.193  0.6540  0.1683 -0.4777
  129OSM   H13S13838   5.054   2.302   7.185  2.7860  1.0768  0.8151
  129OSM   H13T13839   5.165   2.190   7.112  2.0748  1.7853  0.6127
  129OSM   C14S13840   5.157   2.173   7.330 -0.5076  0.2281 -0.1405
  129OSM   H14S13841   5.189   2.067   7.334 -0.0198  0.4085  0.8957
  129OSM   H14T13842   5.084   2.178   7.414  1.3034  1.2253  1.4489
  129OSM   C15S13843   5.281   2.264   7.354 -0.6127 -0.3166  0.3442
  129OSM   H15S13844   5.259   2.371   7.335 -2.7522 -0.7640  0.0525
  129OSM   H15T13845   5.371   2.231   7.298 -0.5029 -0.2717  0.4923
  129OSM   C16S13846   5.327   2.265   7.497 -0.3314 -0.3485  0.2431
  129OSM   H16S13847   5.363   2.164   7.525  2.3609 -0.3551 -2.6405
  129OSM   H16T13848   5.245   2.278   7.571  0.7391  1.6344  1.1940
  129OSM   C17S13849   5.446   2.361   7.515  0.8299 -0.2190  0.2748
  129OSM   H17S13850   5.430   2.449   7.449  0.3867 -0.6943 -0.2618
  129OSM   H17T13851   5.535   2.305   7.481  1.9487  2.1270 -0.9400
  129OSM   C18S13852   5.466   2.419   7.658 -0.5166  0.4895  0.2655
  129OSM   H18S13853   5.369   2.470   7.677 -0.3176  0.2834  1.9536
  129OSM   H18T13854   5.551   2.491   7.660  1.4323 -1.7104  0.6739
  129OSM   H18U13855   5.477   2.337   7.732  2.7096  0.9826  0.4755
  129OSM    C1F13856   4.618   1.988   6.697  0.2644  0.0416 -0.4560
  129OSM     OF13857   4.695   1.897   6.660  0.1864 -0.5691 -0.9218
  129OSM    C2F13858   4.534   1.974   6.818  0.0501 -0.5868 -0.4619
  129OSM    H2F13859   4.429   1.949   6.792  0.3948 -1.5649 -0.9499
  129OSM    H2G13860   4.539   2.075   6.865 -0.6972 -0.0396 -1.5014
  129OSM    C3F13861   4.604   1.880   6.914  0.7315  0.0866  0.1241
  129OSM    H3F13862   4.707   1.915   6.939  0.9231 -0.5123  0.2016
  129OSM    H3G13863   4.631   1.783   6.867  2.5998  0.5646  0.1177
  129OSM    C4F13864   4.535   1.865   7.053  0.0916  0.2087  0.7240
  129OSM    H4F13865   4.592   1.780   7.095  0.0941 -2.3260 -3.7576
  129OSM    H4G13866   4.431   1.836   7.026  1.2410 -1.8170 -1.9369
  129OSM    C5F13867   4.566   1.984   7.143  0.0394 -0.4096 -0.0585
  129OSM    H5F13868   4.524   2.076   7.097 -2.1740 -0.1666  2.2154
  129OSM    H5G13869   4.676   1.990   7.154  0.1299 -3.4129  1.7884
  129OSM    C6F13870   4.506   1.959   7.281  0.0612 -0.1477  0.0026
  129OSM    H6F13871   4.569   2.022   7.347  0.4624  0.2145 -0.7110
  129OSM    H6G13872   4.527   1.855   7.312  0.1265 -0.3684 -0.7578
  129OSM    C7F13873   4.354   1.996   7.283 -0.0042  0.6418  0.1140
  129OSM    H7F13874   4.307   1.906   7.237  0.8103 -0.5099  1.4287
  129OSM    H7G13875   4.324   2.085   7.224 -0.0277  1.1957  0.9423
  129OSM    C8F13876   4.294   2.016   7.424 -0.2823  0.0883 -0.5840
  129OSM    H8F13877   4.186   2.036   7.412 -0.7336 -1.4338  0.6143
  129OSM    H8G13878   4.337   2.110   7.467 -0.3310  0.2563 -0.9031
  129OSM    C9F13879   4.311   1.897   7.516  0.0446  0.1361  0.9759
  129OSM    H9F13880   4.248   1.812   7.488  0.6677 -0.9059  2.5482
  129OSM   C10F13881   4.402   1.870   7.614  0.1336  0.5594 -0.5067
  129OSM   H10F13882   4.406   1.769   7.658  2.1680  1.0493  0.5692
  129OSM   C11F13883   4.516   1.952   7.668  0.4099  0.2225  0.2746
  129OSM   H11F13884   4.532   2.054   7.628 -0.2000  0.7671  1.3750
  129OSM   H11G13885   4.601   1.885   7.644  1.6830  1.7311  0.4187
  129OSM   C12F13886   4.510   1.990   7.818  0.2510 -0.2182 -0.2043
  129OSM   H12F13887   4.413   2.041   7.834  0.3499 -0.1983  0.3819
  129OSM   H12G13888   4.581   2.068   7.854  0.7180 -1.2436  1.2164
  129OSM   C13F13889   4.495   1.865   7.905  0.1549 -0.3979  0.0154
  129OSM   H13F13890   4.573   1.791   7.877  1.3569  0.9610 -0.3283
  129OSM   H13G13891   4.394   1.820   7.889 -0.1025 -0.1761  0.9875
  129OSM   C14F13892   4.508   1.891   8.053 -0.2896  0.5152 -0.4443
  129OSM   H14F13893   4.507   1.795   8.110  2.6763  0.0203 -1.0988
  129OSM   H14G13894   4.416   1.946   8.082  0.0520  1.5372 -1.2805
  129OSM   C15F13895   4.628   1.970   8.097  0.8179  0.2121 -0.0292
  129OSM   H15F13896   4.609   2.066   8.150  0.8523 -0.1904  0.7180
  129OSM   H15G13897   4.693   1.993   8.009  2.6476  1.2056  1.4967
  129OSM   C16F13898   4.714   1.887   8.191 -0.1912 -0.3750  0.4429
  129OSM   H16F13899   4.749   1.795   8.140  0.3378  0.6308 -1.0898
  129OSM   H16G13900   4.656   1.857   8.281 -0.7679  0.1830  0.2631
  129OSM   C17F13901   4.835   1.975   8.236 -0.0159  0.1280  1.0071
  129OSM   H17F13902   4.789   2.063   8.285 -2.7557 -0.9050  0.4754
  129OSM   H17G13903   4.879   1.996   8.136 -2.3619 -0.8918 -0.3280
  129OSM   C18F13904   4.930   1.878   8.306 -0.4634 -0.3642 -1.7041
  129OSM   H18F13905   4.876   1.822   8.386  2.3524  0.3975  0.9068
  129OSM   H18G13906   5.019   1.932   8.344 -1.0857 -1.2607  1.3234
  129OSM   H18H13907   4.972   1.799   8.241  0.0354 -0.7679 -0.9043
  130OSM      N13908   6.121   4.509   6.006  0.4201 -0.4652  0.5315
  130OSM    C1513909   6.098   4.372   6.055  0.2416  0.4157 -0.4386
  130OSM   H15A13910   6.094   4.304   5.971  0.2954  0.6526 -0.6367
  130OSM   H15B13911   6.004   4.368   6.107 -1.1016 -1.3058 -2.7752
  130OSM   H15C13912   6.180   4.344   6.118 -0.6543 -2.1479 -0.2950
  130OSM    C1413913   6.005   4.548   5.919  0.6890 -0.1440  1.0816
  130OSM   H14A13914   6.010   4.653   5.894  0.6921 -0.1031  1.2523
  130OSM   H14B13915   5.913   4.536   5.974  0.8088  2.9151  2.1573
  130OSM   H14C13916   5.998   4.488   5.830 -0.2945 -2.8044  2.8341
  130OSM    C1313917   6.114   4.591   6.125  0.1385  0.2505 -0.2702
  130OSM   H13A13918   6.024   4.578   6.183  0.2071 -0.5854 -0.3455
  130OSM   H13B13919   6.106   4.694   6.092  0.3820 -0.0011 -1.1516
  130OSM   H13C13920   6.195   4.568   6.193  0.1571  1.3379  0.0916
  130OSM    C1213921   6.250   4.533   5.925  0.3167  0.0315  0.4454
  130OSM   H12A13922   6.234   4.472   5.838 -0.2390  0.3590  0.3188
  130OSM   H12B13923   6.341   4.495   5.970  0.1300 -0.4900  0.3825
  130OSM    C1113924   6.278   4.679   5.883 -0.1997  0.2902 -1.2026
  130OSM   H11A13925   6.192   4.728   5.831 -1.9997 -0.1166  1.2033
  130OSM   H11B13926   6.353   4.674   5.801  0.0881  0.5240 -0.9574
  130OSM      P13927   6.463   4.720   6.063 -0.0939 -0.4085  0.0588
  130OSM    O1313928   6.521   4.598   6.006 -0.1150  0.2109 -0.3417
  130OSM    O1413929   6.545   4.846   6.080 -0.2566  0.3841 -0.2837
  130OSM    O1113930   6.403   4.681   6.209 -0.5714  0.4547  0.0047
  130OSM    O1213931   6.334   4.764   5.987  0.1029  0.6855 -0.2115
  130OSM    C1S13932   6.351   4.777   6.298 -0.0097  0.0420 -0.1281
  130OSM    H1S13933   6.252   4.810   6.261  0.8719 -0.0985 -2.8235
  130OSM    H1T13934   6.410   4.871   6.296  3.0078 -1.7223 -0.7526
  130OSM     NF13935   6.235   4.784   6.509 -0.3804  0.7797 -0.0012
  130OSM    HNF13936   6.272   4.838   6.584 -3.5771 -0.3184  2.5856
  130OSM    C2S13937   6.334   4.707   6.434  1.1158 -0.3958 -0.3125
  130OSM    H2S13938   6.295   4.604   6.421 -0.1050  0.0431 -0.3201
  130OSM    C3S13939   6.472   4.693   6.514  0.0499  0.9470 -0.1078
  130OSM    H3S13940   6.496   4.798   6.542 -0.1604  0.6359  1.2917
  130OSM     O313941   6.584   4.663   6.431 -0.3442  0.0574 -0.1977
  130OSM    HO313942   6.550   4.652   6.341  1.2861 -3.0832 -0.5818
  130OSM    C4S13943   6.456   4.611   6.645 -0.0150 -0.6446  0.8657
  130OSM    H4S13944   6.468   4.687   6.723  1.6068  1.3480 -1.1698
  130OSM    C5S13945   6.440   4.478   6.667  0.2199 -0.2656 -0.4524
  130OSM    H5S13946   6.459   4.408   6.584 -0.8607 -2.0235  0.7149
  130OSM    C6S13947   6.433   4.408   6.805 -0.6835  0.1769 -0.1442
  130OSM    H6S13948   6.517   4.336   6.817 -0.6008  0.1670 -0.7892
  130OSM    H6T13949   6.345   4.341   6.810  0.8076 -1.9888 -1.4850
  130OSM    C7S13950   6.458   4.508   6.916 -0.6648 -0.8105  0.5427
  130OSM    H7S13951   6.385   4.591   6.906  2.3408  2.0831  0.7553
  130OSM    H7T13952   6.561   4.548   6.904 -0.5723 -0.9462  0.8705
  130OSM    C8S13953   6.444   4.456   7.057 -0.1934  0.3049 -0.2320
  130OSM    H8S13954   6.497   4.359   7.056 -3.1532 -1.4331  0.1289
  130OSM    H8T13955   6.339   4.431   7.084 -0.1623 -1.0179 -1.2294
  130OSM    C9S13956   6.494   4.549   7.166  0.0188  0.4748  0.1952
  130OSM    H9S13957   6.452   4.651   7.155  0.2350  0.5620  0.1737
  130OSM    H9T13958   6.605   4.551   7.163  0.0881 -1.3652  0.3925
  130OSM   C10S13959   6.446   4.493   7.300  0.1949  0.2252  0.0505
  130OSM   H10S13960   6.486   4.390   7.314 -0.1081 -0.1487 -1.6715
  130OSM   H10T13961   6.335   4.486   7.303  0.0109  2.1932  3.5975
  130OSM   C11S13962   6.502   4.576   7.418 -0.7408 -0.0043 -0.4454
  130OSM   H11S13963   6.430   4.661   7.426  0.9655  1.6149 -1.5068
  130OSM   H11T13964   6.605   4.614   7.400  0.3741 -2.8075 -0.4044
  130OSM   C12S13965   6.493   4.497   7.549 -0.1299 -0.2320  0.0319
  130OSM   H12S13966   6.520   4.566   7.631  0.8928 -0.9748  0.3389
  130OSM   H12T13967   6.564   4.413   7.536 -1.8421 -1.4418 -2.2803
  130OSM   C13S13968   6.348   4.447   7.566 -0.0495  0.4547 -0.0300
  130OSM   H13S13969   6.322   4.351   7.516 -2.1828  1.0607 -0.1985
  130OSM   H13T13970   6.283   4.526   7.521 -0.8502  0.0385  0.3726
  130OSM   C14S13971   6.309   4.453   7.712  0.0241 -0.6730 -0.5508
  130OSM   H14S13972   6.205   4.418   7.727  0.2695 -0.5289  1.9501
  130OSM   H14T13973   6.319   4.561   7.738  0.6880 -0.2406 -2.4208
  130OSM   C15S13974   6.401   4.359   7.802  0.1798  0.1654 -0.2575
  130OSM   H15S13975   6.506   4.382   7.773 -0.2114  0.9023 -1.1575
  130OSM   H15T13976   6.387   4.254   7.770  2.5489 -0.6150  1.0137
  130OSM   C16S13977   6.383   4.380   7.952 -0.0658  0.2062 -0.9199
  130OSM   H16S13978   6.284   4.338   7.981  0.6506 -1.9518 -1.3944
  130OSM   H16T13979   6.395   4.484   7.988  1.5174 -1.2897  3.6583
  130OSM   C17S13980   6.500   4.305   8.036 -0.1499 -0.0405  0.5264
  130OSM   H17S13981   6.600   4.339   8.003 -1.4390  2.0595 -1.4514
  130OSM   H17T13982   6.489   4.196   8.017  0.1704 -0.3006  1.7332
  130OSM   C18S13983   6.482   4.322   8.184  0.0475  0.6427  0.0347
  130OSM   H18S13984   6.496   4.425   8.224 -2.7010  1.3120 -0.5016
  130OSM   H18T13985   6.555   4.259   8.241  0.0242 -0.6983 -1.3592
  130OSM   H18U13986   6.379   4.291   8.212 -0.4223  0.3790 -1.8453
  130OSM    C1F13987   6.102   4.790   6.484 -0.1593  0.3000 -0.2186
  130OSM     OF13988   6.044   4.720   6.403  0.3409 -0.1138  0.1950
  130OSM    C2F13989   6.030   4.899   6.561  0.0151  0.2739  0.2783
  130OSM    H2F13990   6.004   4.983   6.493 -0.2813 -0.2446 -0.2648
  130OSM    H2G13991   6.099   4.925   6.643 -0.0905 -0.5697  0.6519
  130OSM    C3F13992   5.901   4.832   6.629 -1.5481  0.1424  0.0475
  130OSM    H3F13993   5.828   4.770   6.572 -1.6986 -1.5227  1.9341
  130OSM    H3G13994   5.829   4.910   6.663 -1.6083 -0.2993  0.9657
  130OSM    C4F13995   5.935   4.729   6.747 -0.0054 -0.4750 -0.6666
  130OSM    H4F13996   6.007   4.654   6.708 -0.7951 -1.8330  0.3944
  130OSM    H4G13997   5.837   4.679   6.767 -0.3931  0.1620 -0.9443
  130OSM    C5F13998   5.986   4.802   6.870 -0.3642  1.0199 -0.1397
  130OSM    H5F13999   5.907   4.870   6.908 -1.2134  1.0436 -1.8629
  130OSM    H5G14000   6.056   4.886   6.847  1.7674 -0.8273 -0.7655
  130OSM    C6F14001   6.029   4.714   6.986 -0.1044  0.3105  0.3966
  130OSM    H6F14002   6.136   4.685   6.983 -0.5951 -1.8450  1.8472
  130OSM    H6G14003   5.978   4.616   6.980 -0.8195  0.6114  1.3728
  130OSM    C7F14004   6.021   4.787   7.118 -0.1086 -0.3194  0.2411
  130OSM    H7F14005   5.911   4.798   7.134  0.0910 -0.2570  1.6532
  130OSM    H7G14006   6.068   4.887   7.105 -1.6784  0.3918 -0.2628
  130OSM    C8F14007   6.086   4.705   7.229 -0.3827 -0.4054 -0.1732
  130OSM    H8F14008   6.072   4.754   7.328 -0.9794 -0.7273 -0.0937
  130OSM    H8G14009   6.196   4.716   7.216 -0.4614 -0.2594 -0.7145
  130OSM    C9F14010   6.060   4.556   7.249  0.0722 -0.7724  0.3990
  130OSM    H9F14011   6.135   4.493   7.199 -0.9027  0.0157 -2.2368
  130OSM   C10F14012   5.964   4.500   7.322  0.2583 -0.3480 -0.8950
  130OSM   H10F14013   5.952   4.391   7.318 -0.4005 -0.2767 -0.8928
  130OSM   C11F14014   5.862   4.575   7.402  0.1124  0.2633 -0.2859
  130OSM   H11F14015   5.763   4.535   7.372  0.9672 -1.4018 -1.0342
  130OSM   H11G14016   5.856   4.680   7.369 -0.9510  0.8722  1.6675
  130OSM   C12F14017   5.883   4.577   7.551 -0.2314  0.3229 -1.0317
  130OSM   H12F14018   5.811   4.642   7.607  0.1622 -1.5016  1.8353
  130OSM   H12G14019   5.990   4.599   7.572  0.2020 -3.4651  1.8139
  130OSM   C13F14020   5.881   4.434   7.626 -0.2039 -0.4749  0.5683
  130OSM   H13F14021   5.978   4.385   7.602  0.3112 -1.0593  3.4948
  130OSM   H13G14022   5.793   4.376   7.589  2.3571 -3.1495 -1.8080
  130OSM   C14F14023   5.861   4.448   7.779  0.2290  0.0103  0.9845
  130OSM   H14F14024   5.761   4.494   7.792 -1.4901 -3.2012  0.2488
  130OSM   H14G14025   5.937   4.520   7.816 -1.3283  1.0201  2.3082
  130OSM   C15F14026   5.895   4.320   7.858  0.0875  0.4632 -0.1387
  130OSM   H15F14027   6.000   4.302   7.826 -0.0945  0.6667 -0.8609
  130OSM   H15G14028   5.827   4.235   7.834 -0.9311  0.6569  1.8466
  130OSM   C16F14029   5.891   4.356   8.010  0.0980 -0.2705  0.2441
  130OSM   H16F14030   5.782   4.371   8.024 -0.1211 -2.3753  1.0969
  130OSM   H16G14031   5.937   4.457   8.021  1.4745 -1.1002  2.9206
  130OSM   C17F14032   5.936   4.255   8.115 -0.0242 -0.0280  0.9249
  130OSM   H17F14033   6.046   4.245   8.105 -0.1358 -1.0175  0.5123
  130OSM   H17G14034   5.903   4.150   8.095  1.8840 -0.7039  1.1341
  130OSM   C18F14035   5.914   4.274   8.268  0.6690 -1.0761 -0.4232
  130OSM   H18F14036   5.960   4.187   8.320  4.4078  0.5396 -0.7432
  130OSM   H18G14037   5.805   4.271   8.286  0.5519  2.0494 -0.0581
  130OSM   H18H14038   5.943   4.376   8.300 -1.6075 -0.2088 -0.9759
  131OSM      N14039   6.789   2.859   5.563 -0.0154 -0.1629 -0.0807
  131OSM    C1514040   6.675   2.850   5.468  1.2091 -0.4959  0.7732
  131OSM   H15A14041   6.710   2.839   5.366  0.8475  1.6993  0.3770
  131OSM   H15B14042   6.611   2.935   5.484  1.6659 -0.3211  1.7356
  131OSM   H15C14043   6.612   2.766   5.494  0.8037 -0.4649 -0.0442
  131OSM    C1414044   6.875   2.737   5.539  0.2231 -0.1656  0.9689
  131OSM   H14A14045   6.948   2.723   5.618  1.5415  1.6786  0.1628
  131OSM   H14B14046   6.927   2.735   5.445 -1.0270 -0.8401  0.2780
  131OSM   H14C14047   6.816   2.647   5.537  0.1395 -0.1580  2.2829
  131OSM    C1314048   6.874   2.980   5.549  0.1356  0.2529  0.6178
  131OSM   H13A14049   6.938   2.985   5.636  0.9188 -2.6441  0.3332
  131OSM   H13B14050   6.814   3.069   5.552 -1.3658 -0.6289 -0.9592
  131OSM   H13C14051   6.940   2.968   5.464 -0.0411 -0.8619  0.6122
  131OSM    C1214052   6.724   2.864   5.705  0.3476  0.4786  0.1836
  131OSM   H12A14053   6.650   2.942   5.711 -0.9671 -0.6417 -0.8473
  131OSM   H12B14054   6.799   2.890   5.778  0.6922  0.5598 -0.2009
  131OSM    C1114055   6.656   2.731   5.761  0.0212  0.2483  0.2783
  131OSM   H11A14056   6.573   2.707   5.691  0.3364 -0.2142  0.0592
  131OSM   H11B14057   6.601   2.740   5.857  1.2599 -1.4232  1.1877
  131OSM      P14058   6.857   2.607   5.886 -0.1340  0.0161  0.1056
  131OSM    O1314059   6.972   2.525   5.832  0.2182 -0.0608  0.1044
  131OSM    O1414060   6.883   2.746   5.939  0.1977  0.3499 -0.1041
  131OSM    O1114061   6.781   2.534   6.002  0.9960 -0.4849 -0.0962
  131OSM    O1214062   6.746   2.623   5.770  0.3903 -0.6953 -0.4715
  131OSM    C1S14063   6.842   2.463   6.106 -0.3014  0.4113  0.1126
  131OSM    H1S14064   6.945   2.502   6.124 -1.1989  2.3188  1.5251
  131OSM    H1T14065   6.842   2.355   6.081  0.3110  0.5222 -0.3978
  131OSM     NF14066   6.849   2.441   6.346 -0.3911 -0.2044 -0.2578
  131OSM    HNF14067   6.834   2.352   6.387 -0.2021 -0.3882 -0.5836
  131OSM    C2S14068   6.766   2.487   6.236 -0.8898 -0.6611 -0.7304
  131OSM    H2S14069   6.747   2.596   6.250 -1.7492 -0.6967 -1.5129
  131OSM    C3S14070   6.621   2.425   6.233  0.2983 -0.4038  0.0030
  131OSM    H3S14071   6.645   2.318   6.211  0.7595 -0.0369 -1.4493
  131OSM     O314072   6.535   2.459   6.125  0.5383  0.2401 -0.6590
  131OSM    HO314073   6.579   2.516   6.062  1.4820  0.2443 -0.0143
  131OSM    C4S14074   6.563   2.432   6.372  0.2613 -0.0701  0.1733
  131OSM    H4S14075   6.603   2.361   6.445  0.4304  0.5073  0.6555
  131OSM    C5S14076   6.471   2.518   6.417 -0.0143 -0.4036  0.6451
  131OSM    H5S14077   6.438   2.599   6.351  1.5798  0.0700  0.3789
  131OSM    C6S14078   6.406   2.525   6.551  0.3043 -0.1129 -0.1039
  131OSM    H6S14079   6.302   2.486   6.552  0.2056  0.1471 -0.2819
  131OSM    H6T14080   6.401   2.630   6.586  1.3358  0.2131 -0.8766
  131OSM    C7S14081   6.474   2.449   6.660  0.2486  0.6171  0.3811
  131OSM    H7S14082   6.583   2.469   6.662  0.3868 -0.1331  1.7009
  131OSM    H7T14083   6.463   2.340   6.643  1.1756  0.7668 -1.4256
  131OSM    C8S14084   6.424   2.484   6.796  0.3906 -0.3820 -0.5897
  131OSM    H8S14085   6.315   2.474   6.813  0.4769 -0.4167 -0.0502
  131OSM    H8T14086   6.448   2.587   6.830  4.0252 -1.0069 -0.8573
  131OSM    C9S14087   6.478   2.398   6.903 -0.6259  0.4556 -0.1490
  131OSM    H9S14088   6.587   2.405   6.921 -0.4969 -0.7124 -0.4050
  131OSM    H9T14089   6.467   2.290   6.880 -0.5795  0.0380  1.6788
  131OSM   C10S14090   6.391   2.408   7.032  0.4349 -0.1051 -0.8666
  131OSM   H10S14091   6.406   2.314   7.090 -1.9140 -1.4280 -2.2472
  131OSM   H10T14092   6.283   2.400   7.008  0.3005  0.9828 -0.6634
  131OSM   C11S14093   6.423   2.530   7.127  0.1083 -0.2473  0.2042
  131OSM   H11S14094   6.363   2.622   7.114 -0.5666 -0.4530  1.6521
  131OSM   H11T14095   6.530   2.555   7.111 -0.1278 -0.3227 -1.6720
  131OSM   C12S14096   6.406   2.483   7.275  0.1143 -0.3356 -0.3490
  131OSM   H12S14097   6.477   2.399   7.292  0.8363  0.3902  0.2493
  131OSM   H12T14098   6.303   2.442   7.284  0.4233 -0.8999  0.7573
  131OSM   C13S14099   6.418   2.599   7.375 -0.7526 -0.8609 -0.6048
  131OSM   H13S14100   6.381   2.697   7.337  0.2012  0.3076  1.2610
  131OSM   H13T14101   6.526   2.613   7.400 -0.2805  0.2589 -2.9805
  131OSM   C14S14102   6.342   2.568   7.506  0.1915  0.6408  0.6530
  131OSM   H14S14103   6.391   2.478   7.549 -1.2436  0.2041  1.4291
  131OSM   H14T14104   6.236   2.547   7.479  0.5479 -0.1102 -0.2069
  131OSM   C15S14105   6.328   2.679   7.601 -0.1793  0.3850  0.0893
  131OSM   H15S14106   6.283   2.766   7.549 -0.3488  0.5666  0.5307
  131OSM   H15T14107   6.425   2.713   7.644 -0.0766 -0.1488  0.2801
  131OSM   C16S14108   6.246   2.632   7.720 -0.9077 -1.0842 -0.5886
  131OSM   H16S14109   6.278   2.529   7.746  1.3924 -0.9292 -2.4832
  131OSM   H16T14110   6.137   2.642   7.697 -0.5416  0.7928 -1.7471
  131OSM   C17S14111   6.293   2.723   7.844 -0.6910  0.1022  0.2168
  131OSM   H17S14112   6.287   2.830   7.814 -0.5183  0.5323  1.6580
  131OSM   H17T14113   6.400   2.697   7.853 -0.8032 -1.1466 -1.6080
  131OSM   C18S14114   6.219   2.707   7.978 -0.2813 -0.5467  0.4638
  131OSM   H18S14115   6.111   2.713   7.954 -0.0792 -1.8404 -0.8886
  131OSM   H18T14116   6.245   2.780   8.058  1.7765  0.5123 -1.0820
  131OSM   H18U14117   6.240   2.605   8.018  3.0988 -0.6787 -1.2967
  131OSM    C1F14118   6.953   2.515   6.380 -0.2650  0.5172 -0.7442
  131OSM     OF14119   6.953   2.630   6.338 -0.4690 -0.0138  0.0539
  131OSM    C2F14120   7.058   2.455   6.473 -0.2178  0.0450 -0.3992
  131OSM    H2F14121   7.156   2.475   6.425 -0.7061  1.5203 -0.8134
  131OSM    H2G14122   7.045   2.345   6.465 -0.2209 -0.0132  0.3247
  131OSM    C3F14123   7.042   2.492   6.626  0.3057  0.4619 -0.4969
  131OSM    H3F14124   6.939   2.466   6.660  0.5158 -0.2599 -0.3933
  131OSM    H3G14125   7.063   2.601   6.635 -0.9739  0.6035  1.6445
  131OSM    C4F14126   7.147   2.411   6.704  0.2553  0.1833 -1.0129
  131OSM    H4F14127   7.249   2.447   6.678 -0.5730  1.4035 -2.7858
  131OSM    H4G14128   7.135   2.304   6.677  0.6621  0.2270 -1.3803
  131OSM    C5F14129   7.129   2.437   6.859 -0.3954 -0.5474  0.4946
  131OSM    H5F14130   7.026   2.406   6.888 -0.8782 -0.0866 -0.6584
  131OSM    H5G14131   7.143   2.545   6.882 -1.6870 -0.7397  2.3706
  131OSM    C6F14132   7.230   2.374   6.955 -0.3834  0.0458  0.0666
  131OSM    H6F14133   7.334   2.398   6.925 -0.7711  3.8011  1.2401
  131OSM    H6G14134   7.221   2.263   6.954 -0.9135  0.0802  0.6525
  131OSM    C7F14135   7.199   2.416   7.099 -0.3761 -0.1319  0.4640
  131OSM    H7F14136   7.104   2.378   7.142 -0.0468 -0.8693  0.5496
  131OSM    H7G14137   7.196   2.527   7.108  2.5751  0.1810 -1.1118
  131OSM    C8F14138   7.293   2.359   7.207  0.2485 -0.2371  0.5743
  131OSM    H8F14139   7.400   2.374   7.183 -0.1273  1.4052 -0.1723
  131OSM    H8G14140   7.277   2.249   7.209 -0.3035 -0.1645  0.2252
  131OSM    C9F14141   7.278   2.420   7.342  0.9715 -0.4523  0.4438
  131OSM    H9F14142   7.231   2.519   7.348 -0.9270 -1.1896 -1.2487
  131OSM   C10F14143   7.314   2.363   7.452 -0.2646  0.2223 -0.1640
  131OSM   H10F14144   7.308   2.426   7.542 -1.0684  2.3026 -1.6211
  131OSM   C11F14145   7.370   2.225   7.465 -0.2732  0.2832 -0.0879
  131OSM   H11F14146   7.410   2.181   7.371 -0.7899 -0.2595 -0.0571
  131OSM   H11G14147   7.290   2.158   7.503 -1.6788  1.9489  0.0540
  131OSM   C12F14148   7.491   2.231   7.566  0.4624  0.1784 -0.5065
  131OSM   H12F14149   7.463   2.284   7.659 -1.9987 -1.1810 -0.3786
  131OSM   H12G14150   7.571   2.280   7.507  0.6293 -1.3168 -1.5952
  131OSM   C13F14151   7.537   2.093   7.609  0.6502 -0.2750 -1.1867
  131OSM   H13F14152   7.538   2.018   7.527  0.6927 -1.3070 -0.2580
  131OSM   H13G14153   7.468   2.059   7.689 -0.6358  2.2571 -1.1311
  131OSM   C14F14154   7.675   2.105   7.674 -0.1723 -0.4215  0.3297
  131OSM   H14F14155   7.686   2.204   7.723  2.1106 -0.0999 -0.6726
  131OSM   H14G14156   7.745   2.130   7.591 -1.0491 -2.1380 -0.9825
  131OSM   C15F14157   7.720   2.003   7.774  0.5960  0.1196  0.4594
  131OSM   H15F14158   7.830   2.010   7.787  0.7054 -3.2818  2.8423
  131OSM   H15G14159   7.686   1.904   7.737 -0.3198  0.1991  1.0469
  131OSM   C16F14160   7.671   2.012   7.921  0.1970 -0.0910 -0.5957
  131OSM   H16F14161   7.561   2.019   7.926  0.2785  1.2985 -0.2959
  131OSM   H16G14162   7.697   2.114   7.957 -1.0093 -0.2747  0.8782
  131OSM   C17F14163   7.735   1.911   8.019 -0.2916 -0.0984 -0.3165
  131OSM   H17F14164   7.833   1.951   8.052 -0.8882  1.2624 -0.0983
  131OSM   H17G14165   7.769   1.820   7.966 -2.0867  0.1043 -1.9252
  131OSM   C18F14166   7.640   1.884   8.139 -0.0590  0.4347  0.3370
  131OSM   H18F14167   7.548   1.836   8.100 -0.1583 -0.5351  1.6860
  131OSM   H18G14168   7.622   1.973   8.204 -0.6787  0.9949 -0.5785
  131OSM   H18H14169   7.685   1.809   8.208 -0.3403  1.9559  2.2845
  132OSM      N14170   2.601   5.056   6.232  0.1127 -0.1964  0.1417
  132OSM    C1514171   2.514   4.945   6.271  0.0709  0.1149 -0.0682
  132OSM   H15A14172   2.491   4.952   6.376 -2.9843  0.0519 -0.6156
  132OSM   H15B14173   2.562   4.852   6.243 -0.7431 -0.2436 -0.3129
  132OSM   H15C14174   2.418   4.956   6.223 -0.0573 -0.0875  0.1410
  132OSM    C1414175   2.737   5.043   6.294 -0.5061  0.0977  0.5221
  132OSM   H14A14176   2.793   4.967   6.242 -0.0163 -0.0822  1.3041
  132OSM   H14B14177   2.722   5.012   6.396  1.6534  0.1515  0.8890
  132OSM   H14C14178   2.785   5.139   6.281  1.3496 -0.9284 -0.6150
  132OSM    C1314179   2.612   5.054   6.082  0.2454 -0.0484  0.1896
  132OSM   H13A14180   2.515   5.080   6.043  1.0057  1.1089 -1.0325
  132OSM   H13B14181   2.632   4.953   6.050 -1.9589 -0.8071  1.0351
  132OSM   H13C14182   2.689   5.122   6.047 -1.1859  0.5044 -2.0170
  132OSM    C1214183   2.541   5.185   6.289 -0.1531 -0.0046 -0.0981
  132OSM   H12A14184   2.544   5.186   6.397  0.1497  2.4532 -0.0578
  132OSM   H12B14185   2.437   5.200   6.266  0.2807  2.1656 -0.9566
  132OSM    C1114186   2.609   5.319   6.242  1.2687 -0.0987  0.2158
  132OSM   H11A14187   2.552   5.402   6.289  1.1876 -0.2798  0.4421
  132OSM   H11B14188   2.582   5.323   6.135 -1.2308 -2.5961  0.6238
  132OSM      P14189   2.810   5.400   6.397 -0.1866 -0.5731 -0.0477
  132OSM    O1314190   2.786   5.329   6.520  0.6932  0.1442 -0.2207
  132OSM    O1414191   2.949   5.436   6.357  0.5431  0.1719 -0.5216
  132OSM    O1114192   2.725   5.537   6.393  0.0139  0.4972  0.1836
  132OSM    O1214193   2.748   5.322   6.266 -0.7369  0.0155  0.3138
  132OSM    C1S14194   2.622   5.572   6.489  0.9542 -0.7378 -0.9492
  132OSM    H1S14195   2.557   5.486   6.519  1.9283 -1.0432  0.3775
  132OSM    H1T14196   2.562   5.652   6.442 -0.4888  0.7372  3.0263
  132OSM     NF14197   2.569   5.683   6.708 -0.8042 -0.2881  0.3804
  132OSM    HNF14198   2.532   5.775   6.716 -0.4645 -0.0615 -0.6142
  132OSM    C2S14199   2.675   5.655   6.611  0.1183  0.0589  0.2809
  132OSM    H2S14200   2.748   5.594   6.669  4.0223  1.1761 -3.0610
  132OSM    C3S14201   2.743   5.788   6.569 -0.2612  0.3036 -0.1736
  132OSM    H3S14202   2.671   5.855   6.517 -2.8956 -1.6273  0.7586
  132OSM     O314203   2.853   5.756   6.491 -0.1218  0.1940  0.0420
  132OSM    HO314204   2.818   5.676   6.452 -0.8823 -0.6668  2.3695
  132OSM    C4S14205   2.802   5.849   6.692  0.2719 -0.5529 -0.1489
  132OSM    H4S14206   2.875   5.791   6.749  1.5684 -0.8234 -1.9765
  132OSM    C5S14207   2.759   5.962   6.747 -0.2461 -0.3362 -0.1305
  132OSM    H5S14208   2.676   6.018   6.700 -0.3837 -0.2307  0.2309
  132OSM    C6S14209   2.798   6.013   6.883 -0.2629 -0.4261  0.5009
  132OSM    H6S14210   2.705   6.036   6.941  1.6523  1.7394  2.9764
  132OSM    H6T14211   2.861   6.104   6.881  0.1243 -0.6446  1.6504
  132OSM    C7S14212   2.895   5.918   6.966  0.4203 -0.0797  0.0239
  132OSM    H7S14213   2.986   5.897   6.906 -0.5394  0.2838 -1.6291
  132OSM    H7T14214   2.827   5.838   7.002 -1.2930  1.7279  1.0607
  132OSM    C8S14215   2.935   5.979   7.096 -0.1952  0.5590 -0.4654
  132OSM    H8S14216   2.852   5.992   7.168  0.7055 -1.7031  1.1114
  132OSM    H8T14217   2.984   6.075   7.067  0.0252 -0.0241 -2.1243
  132OSM    C9S14218   3.039   5.890   7.170 -0.5197  0.5562 -0.0295
  132OSM    H9S14219   3.136   5.886   7.117 -0.5915 -1.3298 -0.1015
  132OSM    H9T14220   2.999   5.787   7.160 -1.1267  0.7637  0.2116
  132OSM   C10S14221   3.057   5.911   7.321  0.0964  0.3876  0.2787
  132OSM   H10S14222   3.061   6.019   7.349  2.2377  0.4398 -0.1064
  132OSM   H10T14223   3.151   5.854   7.331 -1.4675 -3.3504 -3.4890
  132OSM   C11S14224   2.939   5.840   7.398 -0.3190  0.5546 -0.7258
  132OSM   H11S14225   2.931   5.735   7.363 -0.4428  0.3643 -0.1427
  132OSM   H11T14226   2.840   5.884   7.375  0.0981  0.3910 -3.0675
  132OSM   C12S14227   2.969   5.844   7.557 -0.5641  0.1546 -0.0065
  132OSM   H12S14228   2.880   5.789   7.596 -2.2231  2.8749  0.3199
  132OSM   H12T14229   2.950   5.946   7.595 -0.8604  0.5603 -1.1987
  132OSM   C13S14230   3.107   5.789   7.589  0.3568  1.0664  0.6796
  132OSM   H13S14231   3.181   5.867   7.559 -0.5325  1.3396 -0.9343
  132OSM   H13T14232   3.124   5.698   7.528 -2.1423 -0.6720  2.4123
  132OSM   C14S14233   3.139   5.766   7.739 -0.3361  0.3419 -0.0150
  132OSM   H14S14234   3.085   5.679   7.780 -0.1408  0.8923  1.4868
  132OSM   H14T14235   3.115   5.858   7.797 -0.8882 -0.7966  1.6130
  132OSM   C15S14236   3.290   5.738   7.769  0.3777  0.5447 -0.2060
  132OSM   H15S14237   3.334   5.688   7.680  2.3387  2.3018 -0.3010
  132OSM   H15T14238   3.296   5.683   7.865 -1.0208  1.2742  0.3279
  132OSM   C16S14239   3.373   5.867   7.783  0.0695  0.4409  0.4472
  132OSM   H16S14240   3.318   5.935   7.852 -0.8765  2.9284 -2.5260
  132OSM   H16T14241   3.375   5.924   7.688  1.6357  0.6668  0.5986
  132OSM   C17S14242   3.511   5.845   7.835 -0.2002 -0.1683 -0.8462
  132OSM   H17S14243   3.576   5.932   7.813 -0.6080  0.1263 -0.8858
  132OSM   H17T14244   3.554   5.755   7.785  1.1946  0.7248 -1.3234
  132OSM   C18S14245   3.502   5.831   7.988 -0.7127  0.2389  0.4931
  132OSM   H18S14246   3.604   5.833   8.032 -0.4219  0.6431 -0.1834
  132OSM   H18T14247   3.455   5.734   8.016 -1.3788  0.1284 -0.9157
  132OSM   H18U14248   3.436   5.910   8.029  0.3015  1.0268  0.6400
  132OSM    C1F14249   2.521   5.603   6.798  0.3299 -0.2671 -0.1131
  132OSM     OF14250   2.557   5.483   6.811 -0.2530 -0.2219 -0.2259
  132OSM    C2F14251   2.402   5.646   6.874 -0.7812  0.6365  0.2424
  132OSM    H2F14252   2.323   5.568   6.863  0.1729 -0.4188  0.7159
  132OSM    H2G14253   2.365   5.744   6.836 -0.4243  0.4454 -0.5988
  132OSM    C3F14254   2.430   5.667   7.024 -0.5340  0.1551  0.1388
  132OSM    H3F14255   2.470   5.568   7.054 -0.6973  0.5655  1.8308
  132OSM    H3G14256   2.331   5.677   7.074 -1.5123 -0.2214 -1.6350
  132OSM    C4F14257   2.538   5.771   7.063 -0.0367 -0.5989  0.0235
  132OSM    H4F14258   2.537   5.854   6.989 -2.6528 -1.1344 -0.6562
  132OSM    H4G14259   2.640   5.730   7.049 -0.3390 -0.9654 -1.2074
  132OSM    C5F14260   2.527   5.821   7.209 -0.3613  0.9796 -0.4589
  132OSM    H5F14261   2.426   5.864   7.223 -0.9260 -0.4238 -0.0872
  132OSM    H5G14262   2.603   5.900   7.226  0.0446  0.5438 -0.1896
  132OSM    C6F14263   2.542   5.708   7.313  0.0033  0.0821 -0.4312
  132OSM    H6F14264   2.649   5.681   7.320 -0.3391 -1.2744 -0.1876
  132OSM    H6G14265   2.490   5.621   7.268 -0.6194 -0.0414  0.4855
  132OSM    C7F14266   2.471   5.740   7.452 -0.7446  0.0223  0.1521
  132OSM    H7F14267   2.365   5.750   7.419 -0.0757  2.0997 -1.5989
  132OSM    H7G14268   2.496   5.843   7.484 -0.5839 -0.0802  0.3585
  132OSM    C8F14269   2.495   5.629   7.553 -0.4911 -0.2715 -0.3445
  132OSM    H8F14270   2.483   5.534   7.497 -1.4080 -0.3227 -0.0783
  132OSM    H8G14271   2.411   5.622   7.625  1.4769 -0.3012  2.0750
  132OSM    C9F14272   2.622   5.637   7.629  0.1405 -0.7097  0.5166
  132OSM    H9F14273   2.702   5.625   7.555 -1.3141  0.1174 -1.2461
  132OSM   C10F14274   2.640   5.652   7.766  0.1741 -0.0585  0.4501
  132OSM   H10F14275   2.742   5.661   7.806 -0.3594 -1.3069  2.1921
  132OSM   C11F14276   2.528   5.654   7.870  0.9295 -1.6438  0.0214
  132OSM   H11F14277   2.431   5.688   7.829  1.0561 -0.5381  0.6035
  132OSM   H11G14278   2.550   5.721   7.956 -0.4772  1.0653 -1.6103
  132OSM   C12F14279   2.510   5.508   7.927  0.4940  0.0035 -0.1771
  132OSM   H12F14280   2.611   5.473   7.958  1.1310  3.6046  2.3110
  132OSM   H12G14281   2.464   5.443   7.849 -0.3333  0.3195  0.0318
  132OSM   C13F14282   2.419   5.500   8.047 -0.5450 -0.8231 -0.0485
  132OSM   H13F14283   2.453   5.568   8.128 -2.5963  2.6931 -1.8743
  132OSM   H13G14284   2.427   5.399   8.092  1.5867 -0.1155  1.3199
  132OSM   C14F14285   2.276   5.536   8.014  0.6534 -0.2797  0.0122
  132OSM   H14F14286   2.248   5.488   7.918 -1.6688 -1.0746  1.0079
  132OSM   H14G14287   2.263   5.646   8.002  1.9325  0.1091  1.7943
  132OSM   C15F14288   2.188   5.487   8.129  0.6239  0.3731 -0.3428
  132OSM   H15F14289   2.234   5.513   8.226 -0.2543 -0.6520  0.3710
  132OSM   H15G14290   2.165   5.378   8.129  2.0734  0.0237  1.2838
  132OSM   C16F14291   2.053   5.568   8.126  0.0479  0.3304 -0.3690
  132OSM   H16F14292   2.073   5.675   8.107 -0.8267  0.3375 -1.2718
  132OSM   H16G14293   1.998   5.560   8.222 -0.6736  3.0110 -0.4923
  132OSM   C17F14294   1.955   5.528   8.018  0.2070 -0.7976 -0.4107
  132OSM   H17F14295   1.995   5.545   7.915 -0.8779 -0.3218 -0.7750
  132OSM   H17G14296   1.872   5.597   8.045  1.4911  1.1910 -1.2761
  132OSM   C18F14297   1.904   5.386   8.031 -0.1971 -0.0113 -0.9152
  132OSM   H18F14298   1.980   5.324   7.980  0.9246  2.4679 -2.4357
  132OSM   H18G14299   1.805   5.379   7.981  0.1280 -1.0580 -1.4323
  132OSM   H18H14300   1.884   5.354   8.136  1.5913 -1.2451 -0.8990
  133SAPE     N14301   3.665   6.469  10.460 -0.3279 -0.0341  0.1277
  133SAPE   HN114302   3.660   6.379  10.511  1.3735  0.3348  1.0267
  133SAPE   HN214303   3.678   6.445  10.359  1.6141 -0.3265  0.4158
  133SAPE   HN314304   3.761   6.500  10.483  0.4860 -1.9332 -0.5227
  133SAPE   C1214305   3.540   6.553  10.483  0.5399  0.4807 -0.1192
  133SAPE  H12A14306   3.454   6.493  10.447  0.2848  1.1162 -0.5893
  133SAPE  H12B14307   3.547   6.645  10.420 -0.5743  1.4334  1.0956
  133SAPE   C1114308   3.509   6.584  10.636  0.2950  0.0603 -0.6120
  133SAPE  H11A14309   3.521   6.494  10.701 -1.2392 -1.1267 -1.8695
  133SAPE  H11B14310   3.406   6.623  10.646  0.5689  0.5030  0.6994
  133SAPE     P14311   3.572   6.831  10.712  0.2056 -0.2054  0.1534
  133SAPE   O1314312   3.452   6.843  10.798 -0.1125 -0.4556  1.0124
  133SAPE   O1414313   3.699   6.896  10.756 -0.1759 -0.3205 -0.2894
  133SAPE   O1214314   3.605   6.680  10.693  0.2317  0.4355  0.0537
  133SAPE   O1114315   3.539   6.880  10.567  0.1033  0.2559 -0.0636
  133SAPE    C114316   3.618   6.945  10.472 -0.1689 -0.0962  0.5632
  133SAPE    HA14317   3.725   6.916  10.480 -0.3098 -0.0956  2.9536
  133SAPE    HB14318   3.594   6.904  10.371  1.1550 -2.4743  1.1342
  133SAPE    C214319   3.601   7.100  10.484  0.3010  0.7785  0.3197
  133SAPE    HS14320   3.627   7.137  10.586 -0.4315 -2.4807  1.8044
  133SAPE   O2114321   3.463   7.137  10.449 -0.2060  0.1854  0.1694
  133SAPE   C2114322   3.425   7.260  10.481 -0.6826 -0.2711 -0.4433
  133SAPE   O2214323   3.495   7.341  10.542  0.4827  0.3928 -0.7758
  133SAPE   C2214324   3.280   7.297  10.445 -0.4281  0.1937  0.7665
  133SAPE   H2R14325   3.228   7.309  10.542 -0.3117  2.4963  0.6116
  133SAPE   H2S14326   3.292   7.401  10.409  1.6384 -0.2746 -0.0372
  133SAPE    C314327   3.702   7.167  10.386  0.2440 -0.0178  0.8032
  133SAPE    HX14328   3.800   7.125  10.418 -0.4590 -2.2841  0.1832
  133SAPE    HY14329   3.700   7.276  10.410 -1.9119 -0.2980  2.1994
  133SAPE   O3114330   3.683   7.122  10.255 -0.9938 -0.0897 -0.4157
  133SAPE   C3114331   3.608   7.197  10.175  1.0049  0.7156 -0.2077
  133SAPE   O3214332   3.573   7.314  10.185  0.1483 -0.1972 -0.0773
  133SAPE   C3214333   3.595   7.121  10.035 -0.2574  0.2738 -0.0933
  133SAPE   H2X14334   3.491   7.141  10.004  0.5070  3.6726 -0.8357
  133SAPE   H2Y14335   3.611   7.011  10.041 -2.5402 -0.0532  1.2047
  133SAPE   C2314336   3.222   7.213  10.329 -0.1691 -0.4844  0.7612
  133SAPE   H3R14337   3.256   7.110  10.348 -0.8259 -1.1796 -1.5643
  133SAPE   H3S14338   3.276   7.246  10.238  2.3079  1.5361  2.8090
  133SAPE   C2414339   3.066   7.218  10.304 -0.4806 -1.0077 -0.0110
  133SAPE   H4R14340   3.010   7.174  10.390 -0.0961 -3.5670 -0.9815
  133SAPE   H4S14341   3.063   7.136  10.230  2.3601  1.2978 -3.0128
  133SAPE   C2514342   3.011   7.343  10.246  0.5028 -0.1754  0.4170
  133SAPE   H5R14343   2.948   7.403  10.313  0.3531  0.3837 -0.2161
  133SAPE   C2614344   3.036   7.382  10.122 -0.1089 -0.1215  0.4633
  133SAPE   H6R14345   2.998   7.482  10.094 -1.0507  0.0571  2.2225
  133SAPE   C2714346   3.113   7.313  10.017 -0.2614  0.7329  0.3195
  133SAPE   H7R14347   3.127   7.205  10.039  4.2036  1.3245  1.3437
  133SAPE   H7S14348   3.216   7.355  10.025 -0.7266  1.7206  1.3787
  133SAPE   C2814349   3.065   7.338   9.875 -0.5165 -0.0045  0.1124
  133SAPE   H8R14350   2.997   7.260   9.836 -1.0654  1.4459 -2.0355
  133SAPE   C2914351   3.107   7.433   9.786 -0.6086  0.0916 -0.1470
  133SAPE   H9R14352   3.065   7.447   9.685 -1.3349 -0.2832  0.0905
  133SAPE  C21014353   3.201   7.542   9.818 -0.0654 -0.0863 -0.2395
  133SAPE  H10R14354   3.177   7.590   9.915  0.3704 -1.2402  0.4507
  133SAPE  H10S14355   3.194   7.634   9.756  1.9503  1.4444  1.6778
  133SAPE  C21114356   3.345   7.490   9.806  0.1756  0.4607  0.3051
  133SAPE  H11R14357   3.364   7.395   9.857  0.2704  1.4503  2.1790
  133SAPE  C21214358   3.449   7.561   9.758 -0.7536 -0.6661 -0.0029
  133SAPE  H12R14359   3.549   7.515   9.750  0.0488  1.2484 -1.9383
  133SAPE  C21314360   3.464   7.703   9.707  0.5532  0.0954 -0.1824
  133SAPE  H13R14361   3.566   7.736   9.736  0.6950 -0.0118 -0.5527
  133SAPE  H13S14362   3.397   7.770   9.765  0.6490 -1.1613  1.4267
  133SAPE  C21414363   3.439   7.698   9.556 -0.4654 -0.2169  0.2495
  133SAPE  H14R14364   3.500   7.625   9.501  0.0404  1.5538 -1.6987
  133SAPE  C21514365   3.345   7.764   9.480 -0.2620  0.0713  0.8955
  133SAPE  H15R14366   3.362   7.766   9.371  2.8216  0.2215  1.2892
  133SAPE  C21614367   3.246   7.866   9.525 -0.4798 -0.4084 -0.5947
  133SAPE  H16R14368   3.272   7.885   9.632 -1.9150 -1.3014 -0.0580
  133SAPE  H16S14369   3.143   7.826   9.519 -0.9133  0.5902  0.0092
  133SAPE  C21714370   3.257   7.993   9.448 -0.0198 -0.7131  0.1641
  133SAPE  H17R14371   3.330   8.064   9.494 -0.0088  0.4245 -1.5284
  133SAPE  H17S14372   3.157   8.041   9.461  1.0032  1.9000 -0.9119
  133SAPE  C21814373   3.266   7.985   9.293 -0.5682  0.6846  0.0569
  133SAPE  H18R14374   3.201   7.899   9.267 -0.0779 -0.3118  1.9772
  133SAPE  H18S14375   3.360   7.963   9.237 -1.5796 -0.6797 -1.1688
  133SAPE  C21914376   3.220   8.113   9.223 -0.3063  0.3477  0.3810
  133SAPE  H19R14377   3.288   8.194   9.257  0.1197 -0.1038  0.6222
  133SAPE  H19S14378   3.118   8.141   9.258 -0.7483 -1.3589  0.5599
  133SAPE  C22014379   3.223   8.093   9.075  0.3299 -0.3051 -0.4538
  133SAPE  H20R14380   3.195   8.181   9.013  0.9058  1.1472  1.2536
  133SAPE  H20S14381   3.152   8.017   9.034  1.2060 -0.7174 -1.2371
  133SAPE  H20T14382   3.327   8.066   9.048  0.7843  0.6094  0.3324
  133SAPE   C3314383   3.679   7.179   9.915  0.1568  0.7016 -0.4266
  133SAPE   H3X14384   3.681   7.288   9.937 -0.5195  0.5151  0.6207
  133SAPE   H3Y14385   3.622   7.161   9.821 -2.8728 -0.8890  1.5654
  133SAPE   C3414386   3.816   7.117   9.909 -0.4919 -0.3796 -0.1978
  133SAPE   H4X14387   3.800   7.007   9.904 -2.7963 -0.0854 -0.1131
  133SAPE   H4Y14388   3.868   7.153  10.001 -2.5076  1.0530  0.4450
  133SAPE   C3514389   3.904   7.154   9.784  0.6984 -0.0122 -0.4436
  133SAPE   H5X14390   3.917   7.264   9.793 -0.5135  0.0247  1.3797
  133SAPE   H5Y14391   3.847   7.122   9.695 -1.3427 -0.3055  0.8989
  133SAPE   C3614392   4.043   7.086   9.770  0.1604  0.1919 -0.2210
  133SAPE   H6X14393   4.074   7.075   9.664 -1.9061 -1.9972 -0.6886
  133SAPE   H6Y14394   4.030   6.980   9.802 -3.9922 -0.4745 -3.1819
  133SAPE   C3714395   4.153   7.146   9.862 -0.0427 -0.2063  0.1979
  133SAPE   H7X14396   4.106   7.163   9.961  2.8412 -2.5129  2.1262
  133SAPE   H7Y14397   4.187   7.244   9.822  0.2556 -1.3153 -2.4867
  133SAPE   C3814398   4.267   7.055   9.891 -1.2885 -0.5140  0.3420
  133SAPE   H8X14399   4.218   6.963   9.929 -2.9286 -0.7534 -2.1199
  133SAPE   H8Y14400   4.332   7.098   9.970 -1.2039  0.6020 -0.3000
  133SAPE   C3914401   4.348   7.005   9.764  0.1354 -0.7297 -0.6101
  133SAPE   H9X14402   4.288   6.956   9.684  0.0435 -1.1301 -0.2994
  133SAPE   H9Y14403   4.414   6.927   9.806  0.4258  0.6896  1.7280
  133SAPE  C31014404   4.432   7.119   9.715  0.1443  0.1850  0.0651
  133SAPE  H10X14405   4.468   7.164   9.810  0.6858  2.7443 -1.2522
  133SAPE  H10Y14406   4.367   7.196   9.669 -0.8153 -0.3878  0.4462
  133SAPE  C31114407   4.554   7.086   9.633 -1.0472 -0.0162  0.1709
  133SAPE  H11X14408   4.636   7.053   9.701 -0.6847  1.6857  0.6161
  133SAPE  H11Y14409   4.591   7.187   9.606  0.7960 -0.9037 -0.7763
  133SAPE  C31214410   4.524   6.993   9.510  0.5097 -0.1215 -0.6912
  133SAPE  H12X14411   4.521   6.885   9.534 -0.9789  0.3113  1.3565
  133SAPE  H12Y14412   4.618   6.992   9.452  0.7658  1.4651 -0.3530
  133SAPE  C31314413   4.412   7.035   9.419 -0.8135  0.2328  0.1119
  133SAPE  H13X14414   4.407   7.146   9.423 -3.3809  0.1698  0.4636
  133SAPE  H13Y14415   4.312   7.014   9.464 -0.8640 -0.2960 -0.2356
  133SAPE  C31414416   4.425   6.978   9.276 -0.1244 -0.2006  0.0130
  133SAPE  H14X14417   4.420   6.867   9.282 -0.4514 -0.2161 -0.5045
  133SAPE  H14Y14418   4.526   7.007   9.238 -0.8263  0.8644 -1.1154
  133SAPE  C31514419   4.317   7.037   9.192  0.0858 -0.2005  0.3300
  133SAPE  H15X14420   4.316   7.146   9.214 -0.7962  0.1172 -1.1790
  133SAPE  H15Y14421   4.224   6.984   9.222 -0.5178 -0.1351 -1.3133
  133SAPE  C31614422   4.339   7.030   9.040 -0.8093 -0.3439  0.4224
  133SAPE  H16X14423   4.429   7.092   9.022 -1.8107  2.4789  4.0768
  133SAPE  H16Y14424   4.256   7.076   8.983  0.3223  0.9015 -0.2610
  133SAPE  C31714425   4.359   6.885   8.995  0.2219  0.4951  0.6545
  133SAPE  H17X14426   4.281   6.815   9.033  0.6819 -0.4059 -0.0391
  133SAPE  H17Y14427   4.458   6.858   9.036 -0.6846 -1.4682  1.6694
  133SAPE  C31814428   4.364   6.887   8.842  0.1719  0.4888  0.2693
  133SAPE  H18X14429   4.426   6.968   8.798  0.3170  0.3378  0.1933
  133SAPE  H18Y14430   4.266   6.894   8.791  0.5036 -0.1689 -0.4903
  133SAPE  H18Z14431   4.402   6.787   8.811  0.8766  1.0041 -0.5524
  134SAPE     N14432   6.464   5.831  11.037 -0.1368  0.0725  0.2567
  134SAPE   HN114433   6.550   5.810  10.983 -1.3504  0.3908 -1.9361
  134SAPE   HN214434   6.494   5.846  11.135  0.6714 -1.0227  0.1941
  134SAPE   HN314435   6.407   5.744  11.032  1.7724 -1.2118 -0.0132
  134SAPE   C1214436   6.393   5.951  10.974 -0.3875  0.5006  0.0183
  134SAPE  H12A14437   6.445   6.043  11.008 -1.8143  0.7414  1.6911
  134SAPE  H12B14438   6.295   5.951  11.027 -0.6157 -0.7053 -0.3744
  134SAPE   C1114439   6.389   5.941  10.823  0.3548 -0.2172 -0.0766
  134SAPE  H11A14440   6.328   6.029  10.793  0.0617 -0.1491  0.7097
  134SAPE  H11B14441   6.339   5.848  10.790  0.5438 -0.5522  0.5599
  134SAPE     P14442   6.570   6.042  10.669 -0.1453 -0.2094  0.1957
  134SAPE   O1314443   6.624   6.168  10.727 -0.3854 -0.5467  0.2745
  134SAPE   O1414444   6.660   5.977  10.568  0.1461 -0.4184  0.2400
  134SAPE   O1214445   6.521   5.939  10.775 -0.1496  0.0110  0.5549
  134SAPE   O1114446   6.429   6.087  10.602  0.1054 -0.3337  0.6259
  134SAPE    C114447   6.392   6.012  10.485  0.6418  0.4854 -0.6802
  134SAPE    HA14448   6.413   5.903  10.495  1.4378  0.5482 -1.5104
  134SAPE    HB14449   6.283   6.031  10.484  0.3307 -1.1721 -1.2691
  134SAPE    C214450   6.455   6.083  10.362  0.1139 -0.3025  1.0257
  134SAPE    HS14451   6.565   6.068  10.366  0.4772  1.4822 -0.5751
  134SAPE   O2114452   6.413   6.220  10.363 -0.0507 -0.1575  0.2852
  134SAPE   C2114453   6.480   6.306  10.295  0.5262  0.0141  0.4013
  134SAPE   O2214454   6.580   6.285  10.229  0.2800 -0.3213  0.4174
  134SAPE   C2214455   6.395   6.430  10.311 -0.4088 -0.2031  0.3716
  134SAPE   H2R14456   6.292   6.403  10.282 -1.1993  2.5958  0.2793
  134SAPE   H2S14457   6.408   6.442  10.421 -0.8438 -2.2346  0.6686
  134SAPE    C314458   6.388   6.011  10.239 -0.0046  0.3725 -0.1660
  134SAPE    HX14459   6.280   5.992  10.259 -0.1975 -1.1146 -2.2736
  134SAPE    HY14460   6.436   5.911  10.230  0.2779  0.3169  1.5354
  134SAPE   O3114461   6.397   6.079  10.113 -0.1967 -0.2474  0.6244
  134SAPE   C3114462   6.511   6.086  10.045 -0.3541  0.4001 -0.6181
  134SAPE   O3214463   6.610   6.016  10.063  0.1067 -0.0457 -0.0817
  134SAPE   C3214464   6.502   6.193   9.937  0.5087  0.2438  0.4499
  134SAPE   H2X14465   6.491   6.294   9.981  1.5799 -0.1488  1.6764
  134SAPE   H2Y14466   6.411   6.179   9.874  0.4342  2.3586  0.0370
  134SAPE   C2314467   6.456   6.554  10.246 -0.0928 -0.0882  0.0596
  134SAPE   H3R14468   6.462   6.535  10.137  2.0256  0.4485  0.0533
  134SAPE   H3S14469   6.560   6.581  10.275 -0.0833  0.2377 -0.2805
  134SAPE   C2414470   6.352   6.669  10.264 -0.1466  0.6933 -0.4657
  134SAPE   H4R14471   6.322   6.661  10.370 -2.8307  0.5877 -1.1750
  134SAPE   H4S14472   6.268   6.640  10.198 -1.1986  1.8975  0.3059
  134SAPE   C2514473   6.415   6.797  10.215  0.0225 -0.7523  0.0832
  134SAPE   H5R14474   6.525   6.800  10.205 -0.0851 -0.3624 -1.2505
  134SAPE   C2614475   6.351   6.916  10.205  0.2073 -0.2047  0.1447
  134SAPE   H6R14476   6.408   6.997  10.157  0.5403 -0.2777  0.4138
  134SAPE   C2714477   6.204   6.932  10.220 -0.5215 -0.2171  0.0331
  134SAPE   H7R14478   6.173   6.878  10.312  1.4188 -1.0010  0.2942
  134SAPE   H7S14479   6.156   6.883  10.132  1.5052 -0.4658 -1.0002
  134SAPE   C2814480   6.165   7.077  10.230  0.3082 -0.4360  0.2385
  134SAPE   H8R14481   6.198   7.134  10.318  0.2545  2.2034 -1.3199
  134SAPE   C2914482   6.091   7.156  10.147 -0.2484  0.0106 -0.5093
  134SAPE   H9R14483   6.063   7.260  10.170 -0.0126  0.2049 -1.0782
  134SAPE  C21014484   6.015   7.107  10.026 -0.0034  0.5211 -0.3541
  134SAPE  H10R14485   6.023   6.996  10.025  0.1264  0.5229  0.1755
  134SAPE  H10S14486   6.066   7.149   9.936  1.6271  1.9407  1.1695
  134SAPE  C21114487   5.874   7.145  10.014  0.2615 -0.0824  0.3153
  134SAPE  H11R14488   5.817   7.121  10.105 -2.5332  1.3371 -0.9476
  134SAPE  C21214489   5.801   7.194   9.909  0.6349  0.7952 -0.9864
  134SAPE  H12R14490   5.693   7.209   9.927  0.8394  0.0641  1.0789
  134SAPE  C21314491   5.855   7.210   9.770  0.2901 -0.2628  0.4402
  134SAPE  H13R14492   5.776   7.179   9.700 -1.4347  1.6364  1.4344
  134SAPE  H13S14493   5.947   7.153   9.746  1.0135  0.2471  1.8416
  134SAPE  C21414494   5.893   7.353   9.730 -0.2706  0.1396  0.1213
  134SAPE  H14R14495   5.908   7.428   9.808  1.4007 -0.5902  0.5471
  134SAPE  C21514496   5.901   7.394   9.595  0.6166  0.5030 -0.3611
  134SAPE  H15R14497   5.951   7.490   9.574  1.2925  0.3009  0.2592
  134SAPE  C21614498   5.885   7.314   9.464  0.3802 -0.1598 -0.8478
  134SAPE  H16R14499   5.818   7.371   9.397  0.2012  0.2604 -0.3228
  134SAPE  H16S14500   5.839   7.217   9.493  3.3537 -1.8070 -1.2002
  134SAPE  C21714501   6.018   7.288   9.399  0.2964 -0.6976  0.3157
  134SAPE  H17R14502   6.090   7.241   9.470  0.8000 -0.1315  0.1924
  134SAPE  H17S14503   6.078   7.379   9.378 -1.0028  0.5068  1.6060
  134SAPE  C21814504   5.995   7.212   9.267 -0.1293 -0.3608  0.2952
  134SAPE  H18R14505   5.909   7.142   9.274 -0.2778 -0.1331  0.7161
  134SAPE  H18S14506   6.084   7.148   9.251  0.4781  0.7930 -1.1808
  134SAPE  C21914507   5.977   7.298   9.141  0.8242  0.8951 -0.5478
  134SAPE  H19R14508   5.961   7.228   9.057 -2.7242  2.0990 -1.0756
  134SAPE  H19S14509   6.059   7.366   9.110 -0.3480  1.5283 -2.4600
  134SAPE  C22014510   5.851   7.389   9.151 -0.3888 -0.0491 -0.2117
  134SAPE  H20R14511   5.822   7.441   9.057 -0.1947 -0.1860 -0.3483
  134SAPE  H20S14512   5.835   7.459   9.236  2.5608 -2.0675  2.2393
  134SAPE  H20T14513   5.767   7.319   9.167  0.5053 -1.2829 -0.7531
  134SAPE   C3314514   6.622   6.188   9.833  0.0901 -0.2753  0.0390
  134SAPE   H3X14515   6.637   6.082   9.804 -0.5020  0.0023 -1.3902
  134SAPE   H3Y14516   6.715   6.233   9.874  1.1914 -1.6198 -0.8988
  134SAPE   C3414517   6.596   6.276   9.707 -0.4087  0.2996 -0.3224
  134SAPE   H4X14518   6.692   6.281   9.652 -0.4635  0.9282 -0.3752
  134SAPE   H4Y14519   6.570   6.381   9.735 -0.5389  0.1764  0.0240
  134SAPE   C3514520   6.487   6.212   9.617  0.1533 -0.3050 -0.0939
  134SAPE   H5X14521   6.381   6.234   9.642  0.3638 -1.7115  2.3244
  134SAPE   H5Y14522   6.487   6.101   9.622 -1.6834 -0.2784  2.4967
  134SAPE   C3614523   6.521   6.253   9.474 -0.0203 -0.1992 -0.9210
  134SAPE   H6X14524   6.626   6.225   9.448 -0.2238 -1.4376 -0.4707
  134SAPE   H6Y14525   6.523   6.362   9.451  1.8792 -0.7802 -4.2054
  134SAPE   C3714526   6.422   6.204   9.367  0.5343 -0.6194 -0.2016
  134SAPE   H7X14527   6.323   6.253   9.383  0.9461  0.9400 -2.0607
  134SAPE   H7Y14528   6.417   6.096   9.393 -1.9320  0.1908  3.4222
  134SAPE   C3814529   6.491   6.220   9.232  0.3283  0.2051 -0.1974
  134SAPE   H8X14530   6.598   6.190   9.235  0.3269  0.2427  0.3649
  134SAPE   H8Y14531   6.481   6.320   9.186 -4.5551 -0.6932 -1.6014
  134SAPE   C3914532   6.431   6.122   9.128 -0.5302 -0.0483  0.8424
  134SAPE   H9X14533   6.332   6.088   9.163 -0.7000  0.4726  0.8760
  134SAPE   H9Y14534   6.499   6.036   9.110 -0.0436  0.2117  1.3859
  134SAPE  C31014535   6.399   6.201   9.005 -0.2087  0.9438  0.5977
  134SAPE  H10X14536   6.495   6.238   8.962 -0.1568  2.3934  1.8503
  134SAPE  H10Y14537   6.330   6.282   9.037  1.3447  2.6456 -0.1927
  134SAPE  C31114538   6.337   6.117   8.887  0.5959 -0.6838 -0.1781
  134SAPE  H11X14539   6.306   6.194   8.813  1.0356 -0.6965 -0.3786
  134SAPE  H11Y14540   6.242   6.079   8.931  1.0109 -1.4164  0.1002
  134SAPE  C31214541   6.410   6.005   8.819 -0.2390 -0.3007  0.3793
  134SAPE  H12X14542   6.352   5.992   8.725 -3.5012 -0.8752  2.2965
  134SAPE  H12Y14543   6.406   5.909   8.876 -0.2277  0.5030  1.7954
  134SAPE  C31314544   6.558   6.034   8.804  0.6923 -0.4269 -0.0762
  134SAPE  H13X14545   6.596   6.035   8.909  3.5935  1.3461 -1.0386
  134SAPE  H13Y14546   6.566   6.134   8.757  0.9605  0.5242  1.9064
  134SAPE  C31414547   6.619   5.931   8.710 -0.6305 -0.3497 -0.8864
  134SAPE  H14X14548   6.599   5.844   8.776 -1.5281  1.8553  1.9575
  134SAPE  H14Y14549   6.728   5.949   8.708 -0.9454  2.1680  0.1431
  134SAPE  C31514550   6.569   5.935   8.568  0.9403 -0.1072 -0.4451
  134SAPE  H15X14551   6.538   6.040   8.549  1.0029  0.2652  1.3230
  134SAPE  H15Y14552   6.489   5.858   8.557  1.4092 -0.8321  0.9681
  134SAPE  C31614553   6.691   5.900   8.467 -0.1914  0.0601  0.1973
  134SAPE  H16X14554   6.722   5.798   8.497 -2.2542 -0.8219 -0.4672
  134SAPE  H16Y14555   6.767   5.979   8.481 -0.3546  0.4685 -1.0791
  134SAPE  C31714556   6.631   5.892   8.328  0.3688  0.3280 -0.5545
  134SAPE  H17X14557   6.597   5.994   8.300 -2.3373 -0.5251 -0.6888
  134SAPE  H17Y14558   6.541   5.827   8.335  1.5175 -1.3760 -1.2203
  134SAPE  C31814559   6.725   5.836   8.216  0.4107  0.1423 -0.6390
  134SAPE  H18X14560   6.821   5.890   8.206  0.5417 -0.1084 -0.7247
  134SAPE  H18Y14561   6.668   5.835   8.121 -0.0666  1.5538 -0.4001
  134SAPE  H18Z14562   6.751   5.732   8.243 -1.2981  0.1459  1.3399
  135SAPE     N14563   5.971   4.749  10.610 -0.0829  0.2743 -0.3790
  135SAPE   HN114564   6.019   4.820  10.668  1.4829 -2.0586  1.3687
  135SAPE   HN214565   5.893   4.711  10.666 -0.7076  4.2919  1.7883
  135SAPE   HN314566   6.034   4.672  10.579  0.1849 -0.1269  1.1043
  135SAPE   C1214567   5.899   4.811  10.491  0.3249  0.3899 -0.0898
  135SAPE  H12A14568   5.977   4.850  10.423  1.4471 -0.4059  0.7004
  135SAPE  H12B14569   5.828   4.885  10.533  1.5097  1.3111  0.3301
  135SAPE   C1114570   5.812   4.701  10.432 -0.3062  0.4150 -0.3606
  135SAPE  H11A14571   5.870   4.616  10.389  0.6928  0.7947  0.1830
  135SAPE  H11B14572   5.768   4.748  10.342  1.8811  1.7499 -0.8080
  135SAPE     P14573   5.629   4.526  10.478  0.1751 -0.0832 -0.5097
  135SAPE   O1314574   5.720   4.410  10.487  0.3073  0.1238 -0.9848
  135SAPE   O1414575   5.500   4.521  10.549 -0.2092  0.5631 -0.0178
  135SAPE   O1214576   5.707   4.657  10.517 -0.3139  0.2938 -0.3345
  135SAPE   O1114577   5.602   4.544  10.334 -0.1403 -0.0069 -0.2051
  135SAPE    C114578   5.484   4.501  10.260  0.2006 -0.1736 -0.1831
  135SAPE    HA14579   5.427   4.425  10.319  1.6190 -0.3719  1.0048
  135SAPE    HB14580   5.419   4.591  10.255  1.1512  0.5617  0.3097
  135SAPE    C214581   5.515   4.447  10.119  0.0176 -0.0876  0.0866
  135SAPE    HS14582   5.426   4.415  10.060  1.3642 -1.0862 -1.4857
  135SAPE   O2114583   5.611   4.341  10.143 -0.0306  0.2206 -0.0339
  135SAPE   C2114584   5.563   4.228  10.170 -0.2610  0.1080 -0.0960
  135SAPE   O2214585   5.442   4.200  10.168 -0.0924  0.6472 -0.3011
  135SAPE   C2214586   5.669   4.143  10.222 -0.4088 -0.4304 -1.2666
  135SAPE   H2R14587   5.763   4.202  10.219 -0.9152  0.3755 -1.9116
  135SAPE   H2S14588   5.643   4.124  10.328  1.1495 -1.0385 -0.9774
  135SAPE    C314589   5.594   4.546  10.038  0.6266  0.6627 -0.9491
  135SAPE    HX14590   5.697   4.551  10.079  0.7162  1.8343 -1.2834
  135SAPE    HY14591   5.550   4.648  10.041 -2.6884 -0.6516  1.4423
  135SAPE   O3114592   5.593   4.505   9.901  0.2010 -0.8034  0.0600
  135SAPE   C3114593   5.482   4.531   9.816  0.0964  0.3271 -0.7645
  135SAPE   O3214594   5.387   4.598   9.842 -0.0767  0.5276  0.5475
  135SAPE   C3214595   5.500   4.433   9.707 -0.1107  0.1520  0.0149
  135SAPE   H2X14596   5.541   4.337   9.746 -0.4215 -0.4639 -1.1314
  135SAPE   H2Y14597   5.562   4.479   9.627  0.8102  0.0721  0.6703
  135SAPE   C2314598   5.686   4.002  10.150  0.4160 -0.4442 -0.0118
  135SAPE   H3R14599   5.582   3.968  10.130 -0.8348  2.2437  1.3860
  135SAPE   H3S14600   5.736   3.942  10.229 -2.7222 -1.3160  1.4587
  135SAPE   C2414601   5.765   4.003  10.021  0.1007  0.4057 -0.3133
  135SAPE   H4R14602   5.873   4.008  10.047 -0.1128 -0.0258  0.7235
  135SAPE   H4S14603   5.734   4.093   9.964  0.5947  0.6822 -0.1520
  135SAPE   C2514604   5.745   3.879   9.934  0.1167  0.6717 -0.5711
  135SAPE   H5R14605   5.758   3.778   9.976  1.4666 -0.6382 -3.8010
  135SAPE   C2614606   5.725   3.884   9.804  0.4639 -0.4102  0.0128
  135SAPE   H6R14607   5.720   3.794   9.741 -0.7007  0.4612 -1.2164
  135SAPE   C2714608   5.705   4.004   9.719 -0.2016  1.1004  0.2923
  135SAPE   H7R14609   5.739   4.098   9.768  0.8341 -0.4548  2.7217
  135SAPE   H7S14610   5.594   4.004   9.711 -0.3633 -4.3929 -1.6511
  135SAPE   C2814611   5.761   3.991   9.581 -0.0956  0.0585  0.0962
  135SAPE   H8R14612   5.859   3.941   9.582  0.2844  0.7705  1.6593
  135SAPE   C2914613   5.697   4.032   9.465 -0.6840  0.1736  0.8058
  135SAPE   H9R14614   5.748   4.021   9.368 -1.5489 -1.7710  0.5327
  135SAPE  C21014615   5.557   4.092   9.460 -0.7193 -0.1017  0.7798
  135SAPE  H10R14616   5.561   4.199   9.489  0.2565  0.0048  0.2860
  135SAPE  H10S14617   5.490   4.031   9.524 -1.0929 -0.4888  0.0238
  135SAPE  C21114618   5.510   4.082   9.314 -0.6190 -0.4480  0.1850
  135SAPE  H11R14619   5.433   4.006   9.296 -1.4488  0.4104  0.0366
  135SAPE  C21214620   5.537   4.169   9.209 -0.6456  0.3460 -0.2429
  135SAPE  H12R14621   5.502   4.127   9.113  0.9430 -0.0166 -0.6951
  135SAPE  C21314622   5.631   4.293   9.217  0.3490 -0.2534  0.5967
  135SAPE  H13R14623   5.723   4.251   9.170 -0.6186  0.4328 -2.0592
  135SAPE  H13S14624   5.647   4.323   9.323  0.1974  0.2711  0.4738
  135SAPE  C21414625   5.581   4.417   9.144 -0.5172  0.0819 -0.3654
  135SAPE  H14R14626   5.538   4.491   9.213  0.4116 -0.0100  0.3312
  135SAPE  C21514627   5.585   4.437   9.014  0.1907  0.0313 -0.2512
  135SAPE  H15R14628   5.542   4.532   8.979 -0.8109 -0.3529 -0.0927
  135SAPE  C21614629   5.627   4.342   8.914 -0.6990  0.0382  0.2520
  135SAPE  H16R14630   5.606   4.235   8.935  0.4736 -0.0072  1.3033
  135SAPE  H16S14631   5.736   4.353   8.899 -0.7197  0.8169  0.6125
  135SAPE  C21714632   5.569   4.382   8.777  0.6675 -0.0685 -0.5375
  135SAPE  H17R14633   5.617   4.319   8.700  1.0453 -2.3320  1.4408
  135SAPE  H17S14634   5.573   4.490   8.750 -0.4309  0.0815 -0.1452
  135SAPE  C21814635   5.415   4.351   8.754  0.0286  0.2350 -0.3817
  135SAPE  H18R14636   5.358   4.416   8.824  3.0432  1.3559  1.1988
  135SAPE  H18S14637   5.412   4.249   8.798 -0.4113  0.4959  0.2178
  135SAPE  C21914638   5.356   4.353   8.610 -0.4070  0.5851  0.5780
  135SAPE  H19R14639   5.367   4.449   8.555 -1.1087 -0.5401 -1.6320
  135SAPE  H19S14640   5.248   4.326   8.601 -0.0974 -0.0508 -1.7658
  135SAPE  C22014641   5.414   4.240   8.523 -0.4768  0.5160  0.0934
  135SAPE  H20R14642   5.362   4.237   8.425 -1.3197 -2.5461  0.5239
  135SAPE  H20S14643   5.396   4.146   8.580  2.7010 -0.1718  0.1754
  135SAPE  H20T14644   5.520   4.261   8.495 -0.3202 -0.0667  0.2297
  135SAPE   C3314645   5.366   4.409   9.631  0.3157 -0.2457  0.2359
  135SAPE   H3X14646   5.271   4.412   9.688  2.0515  0.0346  3.3137
  135SAPE   H3Y14647   5.370   4.309   9.582  0.2223 -0.3591  0.4556
  135SAPE   C3414648   5.347   4.520   9.527 -0.1300  0.3751 -0.0040
  135SAPE   H4X14649   5.434   4.523   9.458  0.8044 -1.4274  1.0173
  135SAPE   H4Y14650   5.358   4.621   9.574 -2.6011  0.6268  0.1682
  135SAPE   C3514651   5.216   4.509   9.443 -0.0945 -0.1569 -0.0422
  135SAPE   H5X14652   5.244   4.596   9.379  1.4277  0.7562  1.7432
  135SAPE   H5Y14653   5.123   4.534   9.498 -0.3116  1.2688 -0.9909
  135SAPE   C3614654   5.198   4.375   9.380  0.2354  0.7289 -0.7810
  135SAPE   H6X14655   5.164   4.298   9.452  0.6481 -0.8515 -2.1928
  135SAPE   H6Y14656   5.295   4.338   9.339  0.1464  0.3493 -0.6486
  135SAPE   C3714657   5.095   4.369   9.267 -0.4679  0.0087 -0.4370
  135SAPE   H7X14658   5.003   4.410   9.313 -0.4019  0.2448 -0.5134
  135SAPE   H7Y14659   5.072   4.265   9.235 -1.2273 -0.0247  0.1866
  135SAPE   C3814660   5.116   4.465   9.145 -0.2757 -0.1415  0.0832
  135SAPE   H8X14661   5.198   4.421   9.084 -1.0275 -2.0243  0.3531
  135SAPE   H8Y14662   5.131   4.569   9.182 -0.6260 -0.0103 -0.1337
  135SAPE   C3914663   4.994   4.475   9.058  0.2102  0.3338  0.7379
  135SAPE   H9X14664   4.917   4.536   9.109  0.7094  3.8177 -2.2701
  135SAPE   H9Y14665   4.980   4.366   9.043  2.0602  0.3384 -1.7694
  135SAPE  C31014666   5.016   4.547   8.927  1.3359 -0.2593  1.0622
  135SAPE  H10X14667   5.073   4.481   8.858  2.7081  0.9277  1.0201
  135SAPE  H10Y14668   5.079   4.639   8.933  0.5013  0.2317  3.1732
  135SAPE  C31114669   4.883   4.590   8.851 -0.7132 -0.5207 -0.4254
  135SAPE  H11X14670   4.829   4.651   8.926 -1.7637 -2.2280  0.2833
  135SAPE  H11Y14671   4.819   4.502   8.829 -0.5279 -0.3385 -1.7559
  135SAPE  C31214672   4.915   4.667   8.725 -0.4266 -0.3085  0.9780
  135SAPE  H12X14673   4.995   4.739   8.753 -0.4648  0.1334 -0.0367
  135SAPE  H12Y14674   4.816   4.708   8.698 -0.6791 -1.7506 -0.3771
  135SAPE  C31314675   4.956   4.577   8.602  0.4912 -0.0863  0.2142
  135SAPE  H13X14676   4.892   4.486   8.596 -0.0876  0.3075  0.3067
  135SAPE  H13Y14677   5.062   4.556   8.625  1.2047  1.7681 -1.1394
  135SAPE  C31414678   4.938   4.639   8.466 -0.1001 -0.2725 -0.7715
  135SAPE  H14X14679   4.987   4.737   8.452 -1.9900  0.7804 -0.3224
  135SAPE  H14Y14680   4.828   4.656   8.465  0.3922  4.0126  0.7528
  135SAPE  C31514681   5.001   4.548   8.361  0.5697  0.1550 -0.2761
  135SAPE  H15X14682   4.942   4.454   8.372  1.8462 -0.4786  1.9522
  135SAPE  H15Y14683   5.111   4.539   8.376  0.4543 -2.4270 -0.5156
  135SAPE  C31614684   4.980   4.607   8.216  0.2522 -0.0923  0.4112
  135SAPE  H16X14685   5.012   4.713   8.210 -1.3404  0.4606  0.9956
  135SAPE  H16Y14686   4.874   4.589   8.186  0.4137  0.2986 -0.4316
  135SAPE  C31714687   5.067   4.533   8.105  0.2059 -0.3093 -0.1487
  135SAPE  H17X14688   5.078   4.425   8.127  0.6445 -0.3929 -0.7484
  135SAPE  H17Y14689   5.168   4.575   8.124 -0.6215  1.4392  0.5856
  135SAPE  C31814690   5.021   4.558   7.964 -0.4521  0.8177 -0.3897
  135SAPE  H18X14691   5.099   4.530   7.889  0.8581 -0.0043  1.2138
  135SAPE  H18Y14692   4.962   4.651   7.954 -0.4987  0.8846  0.4637
  135SAPE  H18Z14693   4.947   4.479   7.940 -0.6230  0.1519  2.0577
  136SAPE     N14694   1.096   4.529  10.848  0.3600  1.2627 -0.0172
  136SAPE   HN114695   1.001   4.558  10.816  1.0346  2.7039 -0.8177
  136SAPE   HN214696   1.130   4.449  10.791 -2.7124  0.5186 -0.9700
  136SAPE   HN314697   1.085   4.511  10.950  2.3535  0.7063  0.1421
  136SAPE   C1214698   1.193   4.637  10.837 -0.1607 -0.7268  0.4437
  136SAPE  H12A14699   1.292   4.611  10.880  1.7391  1.6158 -2.1955
  136SAPE  H12B14700   1.157   4.726  10.893 -0.7821 -1.2306  0.8696
  136SAPE   C1114701   1.218   4.676  10.688 -0.1324  0.6376 -0.2081
  136SAPE  H11A14702   1.253   4.590  10.627  1.7740  1.1162  0.1455
  136SAPE  H11B14703   1.306   4.745  10.689  0.7484 -0.4352  1.2686
  136SAPE     P14704   1.044   4.867  10.664  0.3165 -0.2942 -0.1094
  136SAPE   O1314705   0.904   4.850  10.701  0.3827 -0.3221 -0.0365
  136SAPE   O1414706   1.134   4.934  10.761  0.1540  0.0686  0.1267
  136SAPE   O1214707   1.100   4.726  10.624  0.4204  0.6527 -0.3968
  136SAPE   O1114708   1.061   4.945  10.527  0.2414  0.1221 -0.3356
  136SAPE    C114709   1.184   4.941  10.454 -0.0248  0.4435 -0.2911
  136SAPE    HA14710   1.253   5.017  10.496 -2.3939  1.7230  1.5127
  136SAPE    HB14711   1.229   4.840  10.447 -0.8937 -0.0552  1.0275
  136SAPE    C214712   1.162   4.985  10.309  0.1112  0.1204  0.2566
  136SAPE    HS14713   1.251   4.954  10.251 -1.6023  1.9922 -3.7509
  136SAPE   O2114714   1.127   5.123  10.305  0.4233 -0.5202  0.0217
  136SAPE   C2114715   1.230   5.201  10.309 -0.0299  0.2585 -0.0554
  136SAPE   O2214716   1.346   5.166  10.299  0.2302 -0.6282  0.6349
  136SAPE   C2214717   1.180   5.345  10.319  0.1272  0.3694  0.7106
  136SAPE   H2R14718   1.072   5.349  10.347 -0.8578  3.6825 -2.6371
  136SAPE   H2S14719   1.231   5.388  10.408  0.9919 -1.2941  1.0548
  136SAPE    C314720   1.043   4.899  10.253 -0.0114 -0.5198 -0.0472
  136SAPE    HX14721   0.951   4.945  10.296  1.9282  5.1705 -1.1492
  136SAPE    HY14722   1.053   4.794  10.288 -1.4966 -0.6400  0.1109
  136SAPE   O3114723   1.041   4.903  10.110  0.2997 -0.6655 -0.4455
  136SAPE   C3114724   0.924   4.869  10.047 -0.7376  0.1930 -0.0552
  136SAPE   O3214725   0.820   4.838  10.103  0.1755 -0.5649 -0.0430
  136SAPE   C3214726   0.948   4.841   9.902  0.0162 -0.6817 -0.3015
  136SAPE   H2X14727   0.922   4.736   9.879  1.9270 -1.7778  2.0562
  136SAPE   H2Y14728   1.056   4.864   9.889 -0.4538  1.9493 -0.1979
  136SAPE   C2314729   1.220   5.422  10.192  0.7069  0.0718  0.3464
  136SAPE   H3R14730   1.324   5.391  10.169 -0.6682 -3.9565 -1.3882
  136SAPE   H3S14731   1.220   5.531  10.208 -0.3962  0.4060 -1.5848
  136SAPE   C2414732   1.132   5.391  10.071  0.1553  0.0941 -0.5060
  136SAPE   H4R14733   1.029   5.429  10.089  0.4474 -0.0149  1.7348
  136SAPE   H4S14734   1.128   5.280  10.063 -0.4939  0.2058 -2.0658
  136SAPE   C2514735   1.200   5.429   9.943  0.4199 -0.3841 -0.3246
  136SAPE   H5R14736   1.308   5.408   9.949  0.2371 -2.4393 -2.9840
  136SAPE   C2614737   1.138   5.459   9.825 -0.3336 -0.0276  0.2077
  136SAPE   H6R14738   1.206   5.487   9.743 -1.6141 -0.6320 -1.1058
  136SAPE   C2714739   0.997   5.460   9.785 -0.1523  0.1526  0.2373
  136SAPE   H7R14740   0.965   5.356   9.809  1.4004 -0.5750 -0.7086
  136SAPE   H7S14741   0.989   5.476   9.676  2.0416 -1.2163 -0.1682
  136SAPE   C2814742   0.896   5.550   9.854 -0.2239 -0.0991 -0.0360
  136SAPE   H8R14743   0.817   5.503   9.916 -2.9281  0.0303 -3.1219
  136SAPE   C2914744   0.886   5.684   9.835  0.2138  0.7005 -0.0696
  136SAPE   H9R14745   0.812   5.733   9.899 -1.3617  1.0713 -2.0691
  136SAPE  C21014746   0.962   5.773   9.740 -0.6074  0.9468 -0.2500
  136SAPE  H10R14747   1.009   5.703   9.667 -0.1635  1.3585 -0.3626
  136SAPE  H10S14748   1.046   5.826   9.790 -0.8773  0.9384  0.2160
  136SAPE  C21114749   0.868   5.866   9.674  1.0599 -0.3548 -0.3173
  136SAPE  H11R14750   0.823   5.930   9.752 -1.0046 -1.2540 -0.7073
  136SAPE  C21214751   0.832   5.877   9.546 -0.3368  0.1228  0.8008
  136SAPE  H12R14752   0.748   5.940   9.513  0.1309  0.7515  0.7892
  136SAPE  C21314753   0.886   5.782   9.444  0.1326  0.5039 -0.3307
  136SAPE  H13R14754   0.996   5.786   9.458  0.0613  1.7326  0.0074
  136SAPE  H13S14755   0.875   5.833   9.346 -1.5596  3.6783  1.3251
  136SAPE  C21414756   0.824   5.640   9.430  0.2236  0.0705 -0.0655
  136SAPE  H14R14757   0.752   5.611   9.507 -0.1677  0.9551 -0.0822
  136SAPE  C21514758   0.841   5.558   9.315 -0.1916  0.2429 -0.0182
  136SAPE  H15R14759   0.784   5.464   9.308 -1.9601  1.2606  0.1805
  136SAPE  C21614760   0.927   5.604   9.202 -0.3075  0.2865  0.0204
  136SAPE  H16R14761   1.006   5.677   9.232  0.0431  0.6669 -1.7159
  136SAPE  H16S14762   0.867   5.659   9.127  1.7984  0.9877 -1.2467
  136SAPE  C21714763   0.992   5.484   9.133 -0.7695 -0.6176  0.4455
  136SAPE  H17R14764   1.049   5.429   9.211 -1.5964 -1.1263  0.7139
  136SAPE  H17S14765   1.065   5.525   9.061 -2.2391  1.0324 -0.1591
  136SAPE  C21814766   0.890   5.390   9.056 -0.2318  0.2766  0.2070
  136SAPE  H18R14767   0.834   5.450   8.981  0.6998 -2.4994 -3.0135
  136SAPE  H18S14768   0.810   5.341   9.116 -0.4945 -1.8620 -1.7011
  136SAPE  C21914769   0.972   5.282   8.983 -0.5372  1.0760  0.3697
  136SAPE  H19R14770   0.905   5.198   8.955  3.1643 -1.3345 -2.3179
  136SAPE  H19S14771   1.058   5.242   9.041  0.1147  0.8437 -0.7168
  136SAPE  C22014772   1.026   5.323   8.848  0.1988  0.2025  0.2989
  136SAPE  H20R14773   0.958   5.383   8.784  0.0424  0.4328  0.6800
  136SAPE  H20S14774   1.062   5.237   8.787  0.4560 -0.1972  1.0079
  136SAPE  H20T14775   1.116   5.381   8.876  1.2641 -1.3431  0.1756
  136SAPE   C3314776   0.864   4.936   9.806  0.0430  0.4474 -0.3459
  136SAPE   H3X14777   0.761   4.937   9.849 -0.0440  0.0600 -0.5394
  136SAPE   H3Y14778   0.869   4.888   9.706 -3.7701 -1.7359  0.2957
  136SAPE   C3414779   0.921   5.072   9.801  0.0597 -0.4904  0.4181
  136SAPE   H4X14780   1.032   5.083   9.795 -0.0363  0.3207 -0.0526
  136SAPE   H4Y14781   0.888   5.127   9.892 -0.9848 -0.4082 -0.0073
  136SAPE   C3514782   0.853   5.136   9.673 -0.6422 -0.4696 -0.3383
  136SAPE   H5X14783   0.817   5.238   9.698  1.6568  0.7025 -1.4701
  136SAPE   H5Y14784   0.769   5.069   9.648  0.4402 -1.5317 -1.2663
  136SAPE   C3614785   0.953   5.135   9.558  0.5864 -1.2427 -0.2860
  136SAPE   H6X14786   1.019   5.046   9.567  2.3324 -0.1120 -1.4485
  136SAPE   H6Y14787   1.015   5.227   9.556  0.5693 -1.2030  0.6389
  136SAPE   C3714788   0.883   5.129   9.421  0.4845 -1.0285  0.0076
  136SAPE   H7X14789   0.872   5.232   9.382 -3.1751 -0.3091  2.4327
  136SAPE   H7Y14790   0.778   5.092   9.423  0.1273 -0.0286  0.1741
  136SAPE   C3814791   0.941   5.034   9.317  0.2465  0.6828 -0.1039
  136SAPE   H8X14792   1.046   5.060   9.290  0.0917  0.4479 -0.9650
  136SAPE   H8Y14793   0.879   5.051   9.226 -0.6420  1.4021  0.6138
  136SAPE   C3914794   0.937   4.877   9.335  0.0414 -0.6579 -0.5348
  136SAPE   H9X14795   0.833   4.857   9.301 -0.4112  1.3926 -0.5052
  136SAPE   H9Y14796   0.949   4.857   9.443 -1.2037  1.4980  0.0761
  136SAPE  C31014797   1.047   4.815   9.251 -0.0655 -0.3439 -0.4265
  136SAPE  H10X14798   1.053   4.705   9.267 -2.7948 -0.0674  4.0293
  136SAPE  H10Y14799   1.143   4.853   9.292  0.1349 -1.7375  0.4460
  136SAPE  C31114800   1.041   4.861   9.101 -1.0509  0.2971 -0.1335
  136SAPE  H11X14801   1.068   4.968   9.096  0.1125 -0.0095 -1.0663
  136SAPE  H11Y14802   0.948   4.837   9.045 -0.1737 -0.1749 -1.4372
  136SAPE  C31214803   1.167   4.794   9.046  0.1696 -0.2276 -0.3090
  136SAPE  H12X14804   1.169   4.688   9.079 -0.0699 -0.7782 -1.9350
  136SAPE  H12Y14805   1.260   4.841   9.085  0.1094 -2.0010  2.1695
  136SAPE  C31314806   1.166   4.792   8.891  0.2925 -0.8847 -0.2902
  136SAPE  H13X14807   1.077   4.732   8.863  0.3179 -1.6352  1.1236
  136SAPE  H13Y14808   1.252   4.728   8.862  0.5198 -0.6968 -0.0361
  136SAPE  C31414809   1.172   4.933   8.813 -0.5710  0.0716  0.1982
  136SAPE  H14X14810   1.235   5.006   8.868 -0.9160  0.9531 -0.5550
  136SAPE  H14Y14811   1.070   4.974   8.793  0.0111  1.3120 -0.2738
  136SAPE  C31514812   1.233   4.908   8.681  0.5820 -0.8097  0.2854
  136SAPE  H15X14813   1.205   4.809   8.640  1.0566 -0.4419 -0.9642
  136SAPE  H15Y14814   1.343   4.906   8.701  0.8323  0.1948 -0.8772
  136SAPE  C31614815   1.217   5.022   8.578  0.0679 -0.5792  0.2182
  136SAPE  H16X14816   1.107   5.039   8.571  0.3952  1.2028 -1.7163
  136SAPE  H16Y14817   1.249   4.983   8.479  1.2189  0.4036  0.1691
  136SAPE  C31714818   1.303   5.150   8.616  0.2925 -0.6066 -0.2015
  136SAPE  H17X14819   1.406   5.110   8.626  0.0831 -1.2012 -0.3704
  136SAPE  H17Y14820   1.268   5.193   8.712  4.0887  0.6352  0.7869
  136SAPE  C31814821   1.303   5.250   8.499 -0.0074 -0.2316  0.2327
  136SAPE  H18X14822   1.353   5.342   8.536 -0.5406  0.9574 -1.8843
  136SAPE  H18Y14823   1.201   5.278   8.467 -1.3196 -2.5589  2.0996
  136SAPE  H18Z14824   1.357   5.205   8.413 -0.9339 -3.4824  1.2021
  137SAPE     N14825   5.302   0.201  10.866 -1.1669  0.7702 -0.0332
  137SAPE   HN114826   5.398   0.175  10.896 -1.6089 -0.1270  0.6478
  137SAPE   HN214827   5.232   0.178  10.940  1.0362 -3.2256  1.1178
  137SAPE   HN314828   5.283   0.144  10.781 -2.3424 -2.7544  2.3223
  137SAPE   C1214829   5.276   0.337  10.814 -0.1567  0.4944 -0.9916
  137SAPE  H12A14830   5.267   0.407  10.900 -2.2566 -1.5211  0.5505
  137SAPE  H12B14831   5.177   0.341  10.762 -1.3347  1.6662  1.2002
  137SAPE   C1114832   5.379   0.383  10.716  0.3567  0.5659  0.6387
  137SAPE  H11A14833   5.330   0.468  10.665  0.3463  0.1468 -0.0515
  137SAPE  H11B14834   5.402   0.305  10.640 -0.4108 -0.7877  1.7662
  137SAPE     P14835   5.630   0.353  10.765 -0.1996 -0.0078  0.2856
  137SAPE   O1314836   5.728   0.408  10.862  0.1774  0.5003  0.1160
  137SAPE   O1414837   5.603   0.208  10.766  0.6147  0.0530  0.1186
  137SAPE   O1214838   5.497   0.430  10.780  0.2039 -0.9668 -0.0550
  137SAPE   O1114839   5.677   0.407  10.629 -0.2573 -0.5001  0.0594
  137SAPE    C114840   5.793   0.339  10.565  0.0736  0.3588  0.5115
  137SAPE    HA14841   5.874   0.413  10.580  0.0672  0.6202 -0.6867
  137SAPE    HB14842   5.820   0.238  10.602  1.9752  0.4892 -0.4623
  137SAPE    C214843   5.756   0.321  10.412 -0.2910 -0.9035  0.0680
  137SAPE    HS14844   5.839   0.270  10.359 -0.6696 -2.6360  1.0584
  137SAPE   O2114845   5.722   0.440  10.345  0.4017  0.0885 -0.1261
  137SAPE   C2114846   5.828   0.519  10.331 -0.1690 -1.0951 -0.5812
  137SAPE   O2214847   5.935   0.496  10.375 -0.4966  0.5399 -0.1603
  137SAPE   C2214848   5.792   0.650  10.261  0.0019  0.1787 -0.4462
  137SAPE   H2R14849   5.681   0.653  10.256 -0.0619 -0.6102  0.2191
  137SAPE   H2S14850   5.818   0.740  10.321  1.8060 -0.9663  0.5839
  137SAPE    C314851   5.639   0.219  10.406  0.0640  0.3273 -0.3464
  137SAPE    HX14852   5.548   0.269  10.446 -0.7509 -0.6571 -0.9171
  137SAPE    HY14853   5.680   0.133  10.463  2.6937  2.3150  0.9755
  137SAPE   O3114854   5.615   0.171  10.273  0.3785 -0.4113  0.3423
  137SAPE   C3114855   5.514   0.077  10.272 -0.4549 -0.7400 -0.4210
  137SAPE   O3214856   5.454   0.055  10.375  0.0941  0.4314 -0.1837
  137SAPE   C3214857   5.482   0.018  10.140 -0.4797  0.1991  0.3930
  137SAPE   H2X14858   5.385  -0.036  10.144 -1.1352  0.9168 -2.7399
  137SAPE   H2Y14859   5.561  -0.058  10.121 -0.5952 -0.2435  1.6107
  137SAPE   C2314860   5.854   0.658  10.125 -0.5901  0.5295 -0.1847
  137SAPE   H3R14861   5.815   0.577  10.060 -1.1039  0.3755  0.3078
  137SAPE   H3S14862   5.965   0.651  10.129 -0.6025  0.8486  1.0677
  137SAPE   C2414863   5.807   0.788  10.056 -0.3583  0.1690  0.4817
  137SAPE   H4R14864   5.837   0.875  10.119 -0.1143  0.6022 -0.2219
  137SAPE   H4S14865   5.696   0.793  10.054 -0.4436 -1.5124 -0.6852
  137SAPE   C2514866   5.856   0.802   9.908  0.1403 -0.3803 -0.4467
  137SAPE   H5R14867   5.939   0.732   9.889  2.6403  1.7828  1.7379
  137SAPE   C2614868   5.822   0.890   9.812  0.7796  0.7310 -0.1123
  137SAPE   H6R14869   5.861   0.881   9.709 -2.0170 -1.4985 -1.0928
  137SAPE   C2714870   5.719   0.998   9.827  0.5399 -0.6407 -0.2055
  137SAPE   H7R14871   5.760   1.083   9.769  1.4366  0.3468  1.7902
  137SAPE   H7S14872   5.718   1.038   9.931  1.3685  3.0140 -1.4628
  137SAPE   C2814873   5.575   0.989   9.770 -0.4147  1.2542 -0.4266
  137SAPE   H8R14874   5.503   0.987   9.853  1.1737  2.0432  1.0479
  137SAPE   C2914875   5.530   0.965   9.646 -0.5127  0.2368  0.2331
  137SAPE   H9R14876   5.423   0.944   9.630 -0.4896 -0.8938  1.4130
  137SAPE  C21014877   5.623   0.948   9.527 -0.0761 -0.0479 -1.5257
  137SAPE  H10R14878   5.552   0.931   9.443 -0.3351  0.7859 -1.4847
  137SAPE  H10S14879   5.679   0.853   9.535 -0.6839 -0.2439  1.0291
  137SAPE  C21114880   5.719   1.059   9.494  0.3223 -0.2367 -0.0239
  137SAPE  H11R14881   5.694   1.152   9.548  1.9836 -0.5279  1.3474
  137SAPE  C21214882   5.815   1.060   9.402  0.2184  0.9294 -0.9808
  137SAPE  H12R14883   5.875   1.152   9.399 -0.3689  1.3378 -0.6275
  137SAPE  C21314884   5.857   0.944   9.321 -0.7200 -0.2253 -0.1623
  137SAPE  H13R14885   5.836   0.972   9.216 -0.8856 -0.1359 -0.1063
  137SAPE  H13S14886   5.796   0.855   9.348  0.0852 -0.3727  1.2323
  137SAPE  C21414887   6.000   0.918   9.349 -0.3564  0.7619  0.0700
  137SAPE  H14R14888   6.031   0.926   9.455 -0.0107  1.1912 -0.0584
  137SAPE  C21514889   6.095   0.901   9.257  0.2685 -0.3160  0.8215
  137SAPE  H15R14890   6.199   0.909   9.291  0.1581 -0.2543  1.1448
  137SAPE  C21614891   6.075   0.879   9.109  0.1261  0.6206 -0.3616
  137SAPE  H16R14892   5.977   0.832   9.086 -0.0707  0.9791 -0.2600
  137SAPE  H16S14893   6.145   0.798   9.081 -0.0783  0.7250 -1.1803
  137SAPE  C21714894   6.100   1.006   9.023 -0.0885  0.4220  0.2608
  137SAPE  H17R14895   6.102   0.983   8.914  1.2921  0.3701  0.2816
  137SAPE  H17S14896   6.202   1.041   9.047 -0.1910  0.0364  1.2741
  137SAPE  C21814897   6.000   1.125   9.029 -0.2351 -0.1581  0.3758
  137SAPE  H18R14898   6.016   1.178   9.125  1.4990 -1.4258  0.8315
  137SAPE  H18S14899   5.896   1.088   9.029 -0.5006  0.5570 -0.0344
  137SAPE  C21914900   6.021   1.228   8.921 -0.3847  0.0153 -0.2006
  137SAPE  H19R14901   5.995   1.186   8.821  1.5809 -0.7251 -0.4454
  137SAPE  H19S14902   6.128   1.256   8.929 -0.9770  2.0618  1.1162
  137SAPE  C22014903   5.932   1.345   8.946  0.0038  0.2880  0.0180
  137SAPE  H20R14904   5.972   1.401   9.033  1.8006 -0.7000 -0.1255
  137SAPE  H20S14905   5.830   1.308   8.968 -0.6954  1.6001 -0.8855
  137SAPE  H20T14906   5.934   1.416   8.860  1.3237 -0.0520 -0.2584
  137SAPE   C3314907   5.467   0.109  10.010  0.2885 -0.1545  0.0766
  137SAPE   H3X14908   5.566   0.157   9.995  1.5283 -2.6670 -0.1927
  137SAPE   H3Y14909   5.384   0.183  10.012 -1.1226 -1.5373  4.4961
  137SAPE   C3414910   5.459   0.021   9.886  1.3596 -0.1143 -0.2233
  137SAPE   H4X14911   5.368  -0.042   9.887  1.2864 -0.1282 -2.6784
  137SAPE   H4Y14912   5.549  -0.044   9.894  0.0185 -1.8688  1.8196
  137SAPE   C3514913   5.456   0.111   9.767  0.9720  0.3042  0.4336
  137SAPE   H5X14914   5.546   0.175   9.758  1.8240 -1.0483 -1.3159
  137SAPE   H5Y14915   5.373   0.183   9.755  2.0753  1.4549 -0.4664
  137SAPE   C3614916   5.450   0.028   9.641  0.5111 -0.0842  0.0353
  137SAPE   H6X14917   5.363  -0.040   9.636 -0.3246  1.0393 -3.0446
  137SAPE   H6Y14918   5.538  -0.041   9.640  1.5057  1.1420 -0.1761
  137SAPE   C3714919   5.436   0.106   9.509  0.3603 -0.6510 -0.2693
  137SAPE   H7X14920   5.540   0.137   9.484  0.3827 -1.2646 -0.9834
  137SAPE   H7Y14921   5.374   0.196   9.525  0.1850 -1.0871  1.8236
  137SAPE   C3814922   5.394   0.027   9.389 -0.2532 -0.5795 -0.4955
  137SAPE   H8X14923   5.286   0.000   9.396 -0.3646  0.0940  0.4759
  137SAPE   H8Y14924   5.456  -0.064   9.370 -1.9763 -1.9108 -0.0084
  137SAPE   C3914925   5.403   0.114   9.268 -0.4090  0.1618  0.0934
  137SAPE   H9X14926   5.505   0.158   9.268  0.0030 -0.5648 -3.1719
  137SAPE   H9Y14927   5.327   0.194   9.283 -0.6489  0.0165 -0.3174
  137SAPE  C31014928   5.364   0.043   9.139  0.6915  0.2894  0.4948
  137SAPE  H10X14929   5.275  -0.023   9.150 -0.2894  1.9531  3.7912
  137SAPE  H10Y14930   5.449  -0.024   9.116  0.7060 -0.2569  2.0749
  137SAPE  C31114931   5.343   0.139   9.020 -0.3657  0.1555  0.1590
  137SAPE  H11X14932   5.417   0.220   9.039 -1.9316  1.4752  0.9773
  137SAPE  H11Y14933   5.251   0.199   9.038 -0.2501  0.2443  0.4602
  137SAPE  C31214934   5.344   0.086   8.883  0.4860 -0.9978  0.9129
  137SAPE  H12X14935   5.392  -0.014   8.877 -0.0300 -1.1421 -2.4202
  137SAPE  H12Y14936   5.390   0.155   8.809 -1.3644  1.6812  2.0625
  137SAPE  C31314937   5.194   0.079   8.835 -0.7221  0.5363  0.1134
  137SAPE  H13X14938   5.143   0.176   8.852 -0.5501  0.8663 -1.1039
  137SAPE  H13Y14939   5.130   0.006   8.889 -1.5778  0.7316 -0.6215
  137SAPE  C31414940   5.194   0.038   8.685 -0.2654 -0.4796  0.4792
  137SAPE  H14X14941   5.220  -0.070   8.691 -1.7829 -0.8286  1.3960
  137SAPE  H14Y14942   5.267   0.097   8.625 -0.4692 -0.1343  0.5691
  137SAPE  C31514943   5.057   0.041   8.613  0.6857 -0.1359 -0.0297
  137SAPE  H15X14944   5.010   0.140   8.597 -1.7124 -0.6483  3.0017
  137SAPE  H15Y14945   4.991  -0.018   8.680  0.2687  2.3285  1.8716
  137SAPE  C31614946   5.066  -0.024   8.477 -0.8422  0.1354  0.2499
  137SAPE  H16X14947   5.120  -0.121   8.480 -2.5151 -0.9450 -1.7165
  137SAPE  H16Y14948   5.118   0.045   8.407 -0.0833 -1.2637 -0.6179
  137SAPE  C31714949   4.923  -0.054   8.420 -0.5529 -0.1053 -0.7184
  137SAPE  H17X14950   4.863  -0.110   8.494 -0.4903 -0.1796 -0.7239
  137SAPE  H17Y14951   4.944  -0.132   8.343 -1.0781 -0.1081 -0.8626
  137SAPE  C31814952   4.853   0.072   8.360 -0.0495 -0.0408 -0.3122
  137SAPE  H18X14953   4.751   0.040   8.331 -0.1490 -1.5953  1.5697
  137SAPE  H18Y14954   4.894   0.116   8.266  0.8517  0.1320  0.1448
  137SAPE  H18Z14955   4.848   0.146   8.442 -0.3317 -1.7308  1.2686
  138SAPE     N14956   3.021   5.692  10.871  1.0485  1.2487 -0.9407
  138SAPE   HN114957   2.957   5.773  10.863  0.8835  1.4009  1.1842
  138SAPE   HN214958   2.959   5.610  10.889  1.9506  0.7352 -0.0121
  138SAPE   HN314959   3.075   5.727  10.953  0.2948  2.7204 -1.0497
  138SAPE   C1214960   3.113   5.679  10.749 -0.3936  0.1125 -0.5754
  138SAPE  H12A14961   3.050   5.666  10.659  0.1727 -0.3440 -0.9169
  138SAPE  H12B14962   3.177   5.588  10.758 -0.3070 -0.0152 -2.1637
  138SAPE   C1114963   3.207   5.797  10.750 -0.3961 -0.4794  0.7141
  138SAPE  H11A14964   3.271   5.798  10.660  0.7508  3.3873  1.4029
  138SAPE  H11B14965   3.285   5.789  10.829 -0.4429 -2.4252  0.5988
  138SAPE     P14966   3.114   6.024  10.643  0.3186 -0.3010  0.1947
  138SAPE   O1314967   3.014   6.123  10.691  0.1597  0.2395 -0.0305
  138SAPE   O1414968   3.248   6.087  10.612  0.2975  0.0540 -0.2587
  138SAPE   O1214969   3.126   5.914  10.759 -0.2581 -0.0306 -0.0150
  138SAPE   O1114970   3.059   5.944  10.522 -0.1722  0.2503  0.1068
  138SAPE    C114971   3.067   5.999  10.388  0.9946  0.5368 -0.5475
  138SAPE    HA14972   3.155   6.062  10.363  1.2692  0.3404 -0.0989
  138SAPE    HB14973   3.073   5.912  10.319  2.7918  0.7474 -0.7072
  138SAPE    C214974   2.939   6.078  10.353  0.2632  0.0095 -0.3945
  138SAPE    HS14975   2.916   6.148  10.437 -2.1008  1.7849 -2.3691
  138SAPE   O2114976   2.836   5.978  10.351  0.1847  0.2100 -0.1240
  138SAPE   C2114977   2.712   6.011  10.324 -0.0884 -0.6074 -0.1104
  138SAPE   O2214978   2.669   6.123  10.316  0.1641 -0.2867 -0.1990
  138SAPE   C2214979   2.627   5.889  10.297 -0.6458  0.4671  0.2642
  138SAPE   H2R14980   2.666   5.805  10.358  1.6308  1.5914  0.4476
  138SAPE   H2S14981   2.526   5.915  10.333 -0.4160  1.0449  0.5083
  138SAPE    C314982   2.952   6.156  10.223 -0.3196  0.4609  0.9914
  138SAPE    HX14983   3.052   6.204  10.212  0.0185 -0.7397 -1.9216
  138SAPE    HY14984   2.885   6.244  10.213 -0.9153 -0.2501 -2.0981
  138SAPE   O3114985   2.927   6.082  10.108 -0.3043 -0.0961 -0.0369
  138SAPE   C3114986   3.029   6.066  10.020  0.0739 -0.4146  0.6230
  138SAPE   O3214987   3.144   6.082  10.044 -0.0234  0.3123  1.1072
  138SAPE   C3214988   2.979   6.021   9.886  0.2859  0.3879  0.3258
  138SAPE   H2X14989   2.912   6.107   9.861 -1.2152 -1.0784 -0.9594
  138SAPE   H2Y14990   2.928   5.926   9.912  1.1210  0.1934  1.3052
  138SAPE   C2314991   2.626   5.832  10.146 -0.8510  0.3838 -0.6468
  138SAPE   H3R14992   2.732   5.825  10.113  0.0245  2.4740  1.5086
  138SAPE   H3S14993   2.567   5.906  10.088 -3.2632  1.4938  2.8800
  138SAPE   C2414994   2.555   5.697  10.126  0.3683  0.4134 -0.3339
  138SAPE   H4R14995   2.519   5.716  10.023 -0.6525  1.9278  0.2537
  138SAPE   H4S14996   2.476   5.689  10.204  1.4524 -1.3240  0.6462
  138SAPE   C2514997   2.642   5.581  10.137  0.4913  0.3561  0.6737
  138SAPE   H5R14998   2.640   5.525  10.231  1.6344  3.1758  2.5032
  138SAPE   C2614999   2.726   5.536  10.040  0.0848  0.0166 -0.2943
  138SAPE   H6R15000   2.791   5.452  10.069  0.7076  0.5803 -0.0365
  138SAPE   C2715001   2.742   5.603   9.907 -0.4225  0.2034  0.1641
  138SAPE   H7R15002   2.836   5.561   9.867 -0.3553  0.4124  0.0980
  138SAPE   H7S15003   2.757   5.712   9.926  0.6553  0.0490  0.2388
  138SAPE   C2815004   2.628   5.570   9.815  0.5084 -0.7984 -0.7793
  138SAPE   H8R15005   2.550   5.505   9.859  2.5181 -1.4576  2.0463
  138SAPE   C2915006   2.612   5.638   9.701  0.8633  0.4547  0.3836
  138SAPE   H9R15007   2.514   5.620   9.654 -0.1837  4.1863  0.8221
  138SAPE  C21015008   2.703   5.747   9.644  0.3162 -0.2784  0.5632
  138SAPE  H10R15009   2.767   5.780   9.729 -0.6284 -1.3078  1.7256
  138SAPE  H10S15010   2.630   5.830   9.631 -0.6249 -0.8709  1.8278
  138SAPE  C21115011   2.779   5.696   9.523 -0.2119 -0.0738  0.6538
  138SAPE  H11R15012   2.815   5.593   9.534  1.4929  0.3801 -0.2391
  138SAPE  C21215013   2.805   5.760   9.406  0.3601 -0.5291  0.3560
  138SAPE  H12R15014   2.846   5.708   9.318  0.1532  0.0669 -0.1028
  138SAPE  C21315015   2.757   5.905   9.375 -0.8550  0.0207 -0.2516
  138SAPE  H13R15016   2.818   5.990   9.411 -2.0506  1.6201 -1.8055
  138SAPE  H13S15017   2.657   5.915   9.423 -3.0330  0.6879 -4.3983
  138SAPE  C21415018   2.741   5.933   9.231 -0.9039  0.1025 -0.2054
  138SAPE  H14R15019   2.811   6.006   9.189  0.2289 -1.0632 -0.3980
  138SAPE  C21515020   2.640   5.900   9.150 -0.4956 -1.2037  0.4562
  138SAPE  H15R15021   2.666   5.911   9.044 -3.1590 -0.6021 -0.2215
  138SAPE  C21615022   2.522   5.810   9.167 -0.3254  0.2563  0.2785
  138SAPE  H16R15023   2.546   5.728   9.238  0.0178  0.3098  0.2263
  138SAPE  H16S15024   2.493   5.767   9.068  1.9904 -1.3333  0.1999
  138SAPE  C21715025   2.410   5.896   9.222 -0.0853 -0.2247 -0.0194
  138SAPE  H17R15026   2.393   5.985   9.157  2.8963  1.9862  1.9886
  138SAPE  H17S15027   2.447   5.930   9.321  0.8171  0.2227 -0.4958
  138SAPE  C21815028   2.279   5.822   9.249 -0.5082 -0.5558 -0.4870
  138SAPE  H18R15029   2.295   5.727   9.304 -1.9778 -0.4911  0.0854
  138SAPE  H18S15030   2.234   5.793   9.152 -1.4398 -0.9008  0.0374
  138SAPE  C21915031   2.168   5.906   9.325  0.4787 -0.2247  0.1207
  138SAPE  H19R15032   2.070   5.869   9.288  0.2391 -0.5582  1.0446
  138SAPE  H19S15033   2.181   6.014   9.305 -1.0493  0.1080  0.7229
  138SAPE  C22015034   2.173   5.888   9.474  0.2434 -0.9107 -0.1461
  138SAPE  H20R15035   2.167   5.782   9.508  0.7474  0.3258  4.3846
  138SAPE  H20S15036   2.082   5.939   9.511 -1.9994 -2.7212 -2.7224
  138SAPE  H20T15037   2.267   5.920   9.524 -0.7420 -0.4274  1.4542
  138SAPE   C3315038   3.096   6.005   9.777 -0.4518  0.1137  0.9177
  138SAPE   H3X15039   3.162   5.928   9.820  1.0543  0.8360 -0.0023
  138SAPE   H3Y15040   3.156   6.099   9.778 -1.4973  0.7996  1.0304
  138SAPE   C3415041   3.050   5.971   9.641 -0.3689 -0.0518  0.0474
  138SAPE   H4X15042   2.952   6.018   9.617 -0.8791 -1.3849 -0.6146
  138SAPE   H4Y15043   3.025   5.867   9.611 -0.3154  0.3040 -1.3391
  138SAPE   C3515044   3.149   6.038   9.538  0.0300  0.1833  0.0315
  138SAPE   H5X15045   3.253   6.016   9.571 -0.2423 -0.2513  0.6039
  138SAPE   H5Y15046   3.126   6.147   9.541 -3.3488 -0.4588  1.1948
  138SAPE   C3615047   3.124   6.011   9.389 -0.3006 -0.0759 -0.3632
  138SAPE   H6X15048   3.028   6.059   9.363 -0.4466  0.7513  1.5679
  138SAPE   H6Y15049   3.132   5.902   9.368  0.4590  0.0276 -0.6582
  138SAPE   C3715050   3.233   6.078   9.312  0.1050  0.0663  0.7089
  138SAPE   H7X15051   3.332   6.029   9.325  0.2736  0.0367 -0.5957
  138SAPE   H7Y15052   3.236   6.187   9.338  1.3066  0.9058 -2.4714
  138SAPE   C3815053   3.212   6.065   9.157 -0.3250 -0.1158  0.0156
  138SAPE   H8X15054   3.101   6.064   9.145 -0.3995 -0.7563  0.7098
  138SAPE   H8Y15055   3.253   5.971   9.115  2.0343  0.7993  0.0971
  138SAPE   C3915056   3.268   6.189   9.079  0.1005  0.6525  0.0821
  138SAPE   H9X15057   3.379   6.176   9.082  0.0418  0.0406 -0.2422
  138SAPE   H9Y15058   3.237   6.268   9.151  0.8049  0.9800  0.0384
  138SAPE  C31015059   3.197   6.197   8.950  0.9272  0.4225 -0.4715
  138SAPE  H10X15060   3.089   6.176   8.967  1.0576  1.1855  1.6237
  138SAPE  H10Y15061   3.240   6.126   8.877 -0.3497  2.0544 -2.9703
  138SAPE  C31115062   3.210   6.333   8.878 -0.0693 -0.5328 -0.4191
  138SAPE  H11X15063   3.305   6.338   8.820  0.2648 -0.2927  0.1387
  138SAPE  H11Y15064   3.213   6.403   8.964 -0.8015 -1.2885  0.2391
  138SAPE  C31215065   3.094   6.359   8.791  0.7936  0.2842  0.6899
  138SAPE  H12X15066   2.995   6.338   8.836 -0.3001 -1.0693 -2.1042
  138SAPE  H12Y15067   3.098   6.285   8.708 -0.7849 -0.5355  1.3016
  138SAPE  C31315068   3.102   6.499   8.737  0.1179 -0.6052  0.1228
  138SAPE  H13X15069   3.196   6.500   8.677 -0.6339  0.3164 -1.0975
  138SAPE  H13Y15070   3.104   6.569   8.822 -1.4169 -0.2227 -0.1249
  138SAPE  C31415071   2.992   6.527   8.637  0.5262  0.4515 -0.6976
  138SAPE  H14X15072   2.893   6.526   8.687  1.4854 -0.2214  1.3234
  138SAPE  H14Y15073   2.987   6.446   8.561 -3.8739 -0.4928  0.3358
  138SAPE  C31515074   3.018   6.657   8.560 -0.0875 -0.2715 -0.4124
  138SAPE  H15X15075   2.938   6.661   8.483 -1.0207  0.4830  0.5603
  138SAPE  H15Y15076   3.111   6.644   8.501  0.6883 -0.6661  0.8488
  138SAPE  C31615077   3.019   6.790   8.642 -0.0114  0.4226  0.1526
  138SAPE  H16X15078   3.105   6.791   8.712  1.1971 -0.4507 -1.2408
  138SAPE  H16Y15079   2.921   6.803   8.692 -0.4224  1.4176 -0.8615
  138SAPE  C31715080   3.042   6.908   8.543 -0.4089 -0.1567 -0.4681
  138SAPE  H17X15081   2.969   6.909   8.459  1.9188  0.4812 -2.5884
  138SAPE  H17Y15082   3.138   6.899   8.488  0.4816  1.3252  0.7641
  138SAPE  C31815083   3.038   7.040   8.618  0.1047 -0.3333 -0.2031
  138SAPE  H18X15084   2.947   7.045   8.682  0.9607 -1.0118  1.1337
  138SAPE  H18Y15085   3.047   7.132   8.557  3.1830 -0.3107  0.1317
  138SAPE  H18Z15086   3.125   7.037   8.688 -0.8831  0.2813  1.0994
  139SAPE     N15087   3.355   4.777  10.836 -0.5279 -0.1651 -0.0939
  139SAPE   HN115088   3.397   4.691  10.877  1.1541 -0.0114 -1.4075
  139SAPE   HN215089   3.436   4.843  10.831  0.2375 -1.0073  0.7252
  139SAPE   HN315090   3.280   4.804  10.902  0.3052  0.0987  0.7719
  139SAPE   C1215091   3.308   4.741  10.697 -0.0529  0.6574  0.1110
  139SAPE  H12A15092   3.242   4.823  10.662 -0.7587 -0.6058 -1.6584
  139SAPE  H12B15093   3.248   4.648  10.702  0.0005  0.6553  0.8970
  139SAPE   C1115094   3.422   4.716  10.593  0.4518  0.9875 -0.3933
  139SAPE  H11A15095   3.462   4.814  10.558 -0.4348  0.8872 -1.7759
  139SAPE  H11B15096   3.370   4.656  10.515  0.5394  0.5592 -0.1244
  139SAPE     P15097   3.639   4.589  10.564 -0.3904 -0.0232 -0.2203
  139SAPE   O1315098   3.725   4.701  10.521 -0.0994  1.0814 -0.1313
  139SAPE   O1415099   3.709   4.482  10.640  0.5199 -0.3824 -0.5633
  139SAPE   O1215100   3.528   4.640  10.653  0.3769  0.9952  0.2867
  139SAPE   O1115101   3.560   4.517  10.443 -0.2402  0.0687  0.3046
  139SAPE    C115102   3.596   4.395  10.374  0.4512 -0.0023 -0.7936
  139SAPE    HA15103   3.589   4.306  10.441 -2.2155  0.4127 -0.3783
  139SAPE    HB15104   3.521   4.384  10.293 -1.4522  0.3714  0.8058
  139SAPE    C215105   3.742   4.394  10.326  0.2726 -0.4062 -0.1029
  139SAPE    HS15106   3.819   4.385  10.406  0.3297  0.2287 -0.0881
  139SAPE   O2115107   3.767   4.508  10.241 -0.2198  0.4663 -0.4288
  139SAPE   C2115108   3.893   4.541  10.234 -0.7615  0.0542  0.4349
  139SAPE   O2215109   3.992   4.474  10.256  0.1451  0.0940 -0.9257
  139SAPE   C2215110   3.897   4.689  10.192 -0.0660  0.2770  0.4299
  139SAPE   H2R15111   3.791   4.723  10.195 -1.0497 -2.5651  3.6374
  139SAPE   H2S15112   3.953   4.744  10.270 -1.1302  2.0500  0.0046
  139SAPE    C315113   3.760   4.263  10.251 -0.3439  0.1859 -0.6481
  139SAPE    HX15114   3.744   4.181  10.325 -1.3912 -0.7292 -1.8502
  139SAPE    HY15115   3.868   4.259  10.223  0.5450  1.0462  2.3149
  139SAPE   O3115116   3.668   4.251  10.141 -0.4760 -0.5488 -0.1325
  139SAPE   C3115117   3.723   4.236  10.022  0.4062 -0.6753 -0.9464
  139SAPE   O3215118   3.839   4.221   9.991 -0.7747 -0.0085 -0.3929
  139SAPE   C3215119   3.605   4.237   9.921 -0.5866  1.3049  0.1698
  139SAPE   H2X15120   3.583   4.337   9.879 -0.0175  1.0097 -0.8817
  139SAPE   H2Y15121   3.509   4.197   9.960 -1.2449  2.3829 -0.3048
  139SAPE   C2315122   3.951   4.703  10.048  0.6277 -1.1009 -0.4100
  139SAPE   H3R15123   4.058   4.676  10.051  0.3492 -2.1318  2.0300
  139SAPE   H3S15124   3.945   4.810  10.018  0.9121 -0.7632  0.7163
  139SAPE   C2415125   3.873   4.622   9.947  0.2367 -0.0259 -0.3374
  139SAPE   H4R15126   3.871   4.517   9.981 -0.3540 -0.4351 -1.5736
  139SAPE   H4S15127   3.928   4.612   9.851 -0.5157 -1.0240 -0.6786
  139SAPE   C2515128   3.736   4.676   9.909 -0.7463  0.2019 -0.8958
  139SAPE   H5R15129   3.695   4.719  10.002 -0.3422 -0.6113 -0.3327
  139SAPE   C2615130   3.671   4.677   9.793 -0.1104  0.1220 -0.2613
  139SAPE   H6R15131   3.571   4.723   9.784 -0.6635 -1.2009 -1.2645
  139SAPE   C2715132   3.717   4.620   9.664 -0.2815  0.7601 -0.1243
  139SAPE   H7R15133   3.633   4.583   9.602 -0.5235 -0.4063  0.8590
  139SAPE   H7S15134   3.775   4.528   9.687 -0.2148  0.7747 -0.2323
  139SAPE   C2815135   3.799   4.704   9.575 -0.7417 -0.4518 -0.2567
  139SAPE   H8R15136   3.854   4.782   9.630  0.0299 -1.2958  0.1862
  139SAPE   C2915137   3.836   4.668   9.451 -0.5128  0.8758 -0.6297
  139SAPE   H9R15138   3.898   4.729   9.383 -0.0590  1.3484  0.1868
  139SAPE  C21015139   3.802   4.538   9.384 -0.4026 -0.5544  0.2496
  139SAPE  H10R15140   3.799   4.460   9.463 -2.5280  0.8839  1.6819
  139SAPE  H10S15141   3.875   4.520   9.302  1.0743  0.8005  1.1988
  139SAPE  C21115142   3.661   4.536   9.318  0.0393  0.4288  0.5284
  139SAPE  H11R15143   3.585   4.472   9.365 -0.1699 -0.2907 -0.7499
  139SAPE  C21215144   3.634   4.571   9.195  0.0124  0.8364  1.0423
  139SAPE  H12R15145   3.530   4.592   9.167 -0.1312  0.3185  1.1855
  139SAPE  C21315146   3.728   4.625   9.094 -0.3004  0.3146 -0.6513
  139SAPE  H13R15147   3.793   4.543   9.058  1.4440  0.7905  1.2454
  139SAPE  H13S15148   3.799   4.693   9.146  0.7303 -1.0287 -0.2526
  139SAPE  C21415149   3.653   4.711   8.991 -0.1996 -0.2370  0.0991
  139SAPE  H14R15150   3.579   4.786   9.024  0.8664  0.8575  0.0930
  139SAPE  C21515151   3.672   4.714   8.860  0.2752 -0.0683 -0.1985
  139SAPE  H15R15152   3.612   4.789   8.807 -0.4037  0.4234  1.2137
  139SAPE  C21615153   3.764   4.627   8.778  0.0093  0.0646 -0.2877
  139SAPE  H16R15154   3.824   4.557   8.840  0.4398 -0.4734 -1.2721
  139SAPE  H16S15155   3.841   4.691   8.729  0.0361 -0.5798 -1.1098
  139SAPE  C21715156   3.670   4.555   8.681  0.1264  0.2598 -0.3266
  139SAPE  H17R15157   3.618   4.629   8.617  0.0419  0.1748 -0.3566
  139SAPE  H17S15158   3.594   4.499   8.739 -1.0425  0.4080 -1.6776
  139SAPE  C21815159   3.758   4.476   8.588  0.2528  0.5229  0.4926
  139SAPE  H18R15160   3.841   4.539   8.548  2.2750 -2.3221 -0.1173
  139SAPE  H18S15161   3.683   4.461   8.507  2.1845 -1.0423 -1.1063
  139SAPE  C21915162   3.822   4.346   8.636 -0.4625 -0.8555  0.5295
  139SAPE  H19R15163   3.743   4.288   8.688  0.7793 -1.5376  1.6957
  139SAPE  H19S15164   3.905   4.358   8.709  1.0031 -0.7658 -1.0800
  139SAPE  C22015165   3.885   4.262   8.521  0.0512 -0.7124 -0.0601
  139SAPE  H20R15166   3.804   4.198   8.481 -2.4367  0.9790  1.9131
  139SAPE  H20S15167   3.959   4.191   8.564  0.9272  0.6528  0.7713
  139SAPE  H20T15168   3.936   4.328   8.448 -1.6745 -0.6747 -1.2835
  139SAPE   C3315169   3.648   4.142   9.802 -0.7337  0.0280  0.4829
  139SAPE   H3X15170   3.549   4.115   9.759  0.3575 -1.5097 -1.2070
  139SAPE   H3Y15171   3.706   4.049   9.824 -1.7603 -1.0535 -1.1021
  139SAPE   C3415172   3.737   4.222   9.700  0.2322 -0.2331 -0.3597
  139SAPE   H4X15173   3.841   4.230   9.739  0.2255 -2.7531  0.3627
  139SAPE   H4Y15174   3.690   4.322   9.686  0.4378 -0.0785  0.0469
  139SAPE   C3515175   3.750   4.165   9.552  0.0742  0.0787  0.6460
  139SAPE   H5X15176   3.783   4.060   9.542 -0.0923  0.2821 -3.8025
  139SAPE   H5Y15177   3.825   4.219   9.491 -0.1677 -1.1947 -0.8474
  139SAPE   C3615178   3.624   4.182   9.472 -0.3757  0.4284  0.3108
  139SAPE   H6X15179   3.606   4.289   9.450  0.8872  0.3628 -1.2895
  139SAPE   H6Y15180   3.541   4.160   9.541 -0.9300 -1.1307 -0.7914
  139SAPE   C3715181   3.631   4.101   9.338  0.6208  0.5248  0.7438
  139SAPE   H7X15182   3.539   4.038   9.334  2.1954 -1.9176  0.7655
  139SAPE   H7Y15183   3.714   4.028   9.337  0.0265 -0.1928  1.5652
  139SAPE   C3815184   3.633   4.190   9.211  0.1182 -0.4940 -0.1234
  139SAPE   H8X15185   3.693   4.277   9.247 -0.3412 -0.9030  1.7550
  139SAPE   H8Y15186   3.534   4.237   9.196  1.4134  2.1209 -1.1326
  139SAPE   C3915187   3.714   4.117   9.103 -0.6038  0.0183  0.1162
  139SAPE   H9X15188   3.809   4.067   9.132 -0.1973  1.3022  1.0830
  139SAPE   H9Y15189   3.743   4.197   9.031  0.1106 -0.8218 -0.5536
  139SAPE  C31015190   3.620   4.023   9.024 -0.1141 -0.4564  0.4435
  139SAPE  H10X15191   3.537   4.079   8.975 -1.0390 -3.2106 -1.3591
  139SAPE  H10Y15192   3.587   3.941   9.091  0.1204 -0.7403  0.2107
  139SAPE  C31115193   3.690   3.949   8.909 -0.5675  0.4400  0.0091
  139SAPE  H11X15194   3.714   3.850   8.954 -0.6600  1.3064  2.0689
  139SAPE  H11Y15195   3.781   4.006   8.882 -1.9975  3.3073  0.8434
  139SAPE  C31215196   3.602   3.939   8.780 -0.2958  0.9329 -0.2153
  139SAPE  H12X15197   3.584   4.044   8.748 -2.2927  1.5432  2.4786
  139SAPE  H12Y15198   3.501   3.899   8.802  0.2554 -0.3752  0.0669
  139SAPE  C31315199   3.666   3.856   8.662 -0.1812 -0.6882  0.3338
  139SAPE  H13X15200   3.594   3.849   8.578 -1.8364 -1.7416  1.7669
  139SAPE  H13Y15201   3.677   3.751   8.697 -3.2689 -1.2815 -0.2009
  139SAPE  C31415202   3.805   3.901   8.629 -0.5026  0.5673 -0.8408
  139SAPE  H14X15203   3.873   3.865   8.709 -0.7837  3.1268  0.6890
  139SAPE  H14Y15204   3.795   4.012   8.625  3.2226  1.1762  1.3782
  139SAPE  C31515205   3.860   3.849   8.498 -0.2700 -0.1478  0.5242
  139SAPE  H15X15206   3.967   3.868   8.474 -0.4318  0.0296 -0.0900
  139SAPE  H15Y15207   3.808   3.908   8.419 -0.5885 -0.7475  0.2777
  139SAPE  C31615208   3.828   3.705   8.462  0.5103 -0.1686 -0.2532
  139SAPE  H16X15209   3.893   3.634   8.517  1.5082  0.6448 -0.3471
  139SAPE  H16Y15210   3.721   3.692   8.490 -0.1263  1.1912 -1.8873
  139SAPE  C31715211   3.842   3.675   8.311  0.2886  0.2616  0.2878
  139SAPE  H17X15212   3.951   3.669   8.294  0.3657 -0.1896  0.9418
  139SAPE  H17Y15213   3.809   3.763   8.252  0.3703  0.6688  0.8453
  139SAPE  C31815214   3.771   3.563   8.241 -0.0950  0.2959 -0.4410
  139SAPE  H18X15215   3.826   3.543   8.146  0.1676  0.1702 -0.2625
  139SAPE  H18Y15216   3.665   3.593   8.227 -0.3997  0.0268  1.1794
  139SAPE  H18Z15217   3.779   3.476   8.310  0.3348  0.1347 -0.6868
  140SAPE     N15218   0.406   2.963  10.957 -0.5013 -0.2133  0.3630
  140SAPE   HN115219   0.492   3.010  10.991  1.2191 -2.6639 -0.2950
  140SAPE   HN215220   0.436   2.916  10.869  1.1798 -1.5573  1.5801
  140SAPE   HN315221   0.330   3.033  10.952  0.0419  0.4614  1.1763
  140SAPE   C1215222   0.370   2.850  11.054 -0.0558 -0.2607  0.3714
  140SAPE  H12A15223   0.303   2.782  10.997  1.5554 -0.9477 -0.7651
  140SAPE  H12B15224   0.321   2.895  11.143  0.9824  1.2891  0.2073
  140SAPE   C1115225   0.498   2.779  11.092 -0.1999 -0.9616 -0.2044
  140SAPE  H11A15226   0.462   2.698  11.158 -1.8297  1.1611  1.6862
  140SAPE  H11B15227   0.571   2.851  11.136  0.1479 -1.5436  0.1807
  140SAPE     P15228   0.522   2.579  10.919  0.0070  0.0692 -0.0552
  140SAPE   O1315229   0.639   2.515  10.852 -0.7029 -0.3607 -0.3425
  140SAPE   O1415230   0.451   2.496  11.018 -0.4059  0.4085  0.3432
  140SAPE   O1215231   0.565   2.716  10.984  0.3440 -0.1857  0.3222
  140SAPE   O1115232   0.433   2.615  10.794  0.4755 -0.1502  0.2827
  140SAPE    C115233   0.328   2.529  10.738  0.3348  0.1251  0.4977
  140SAPE    HA15234   0.341   2.421  10.762  0.4249  0.1727  0.6653
  140SAPE    HB15235   0.231   2.557  10.784 -1.4135 -0.5389 -2.5350
  140SAPE    C215236   0.321   2.549  10.578  0.1277  0.3199 -0.8422
  140SAPE    HS15237   0.269   2.461  10.536 -1.1154  2.1013 -3.2768
  140SAPE   O2115238   0.452   2.572  10.527 -0.2759 -0.4289 -0.3670
  140SAPE   C2115239   0.522   2.458  10.534  0.5042 -0.1529  0.3535
  140SAPE   O2215240   0.479   2.348  10.555  0.5674 -0.1651  0.2309
  140SAPE   C2215241   0.670   2.498  10.526 -0.1521 -0.4032 -0.1920
  140SAPE   H2R15242   0.681   2.589  10.463  1.4082 -0.2206  0.2984
  140SAPE   H2S15243   0.694   2.526  10.631 -0.3702  2.1708 -0.7632
  140SAPE    C315244   0.236   2.672  10.546  0.4852  0.1276  0.1456
  140SAPE    HX15245   0.260   2.755  10.615  1.5162  0.2285 -0.3109
  140SAPE    HY15246   0.131   2.659  10.579  0.9317 -1.0792  1.1433
  140SAPE   O3115247   0.240   2.718  10.402 -0.0535  0.6506 -0.1862
  140SAPE   C3115248   0.326   2.804  10.384 -0.3612 -0.7354 -0.4007
  140SAPE   O3215249   0.394   2.869  10.461 -0.0319 -0.5535 -0.0087
  140SAPE   C3215250   0.348   2.809  10.232  0.0970 -0.1074 -1.1305
  140SAPE   H2X15251   0.374   2.706  10.199 -0.9182 -0.6857 -0.1771
  140SAPE   H2Y15252   0.434   2.877  10.216 -0.7051  1.1193 -0.3457
  140SAPE   C2315253   0.762   2.380  10.472 -0.6948 -0.5523  0.4116
  140SAPE   H3R15254   0.742   2.289  10.534 -2.3627  0.4449  1.4091
  140SAPE   H3S15255   0.868   2.409  10.488 -0.4112 -0.7488 -0.9984
  140SAPE   C2415256   0.767   2.358  10.320  0.0519 -0.1162  0.0563
  140SAPE   H4R15257   0.809   2.454  10.283 -1.5674  0.4270 -0.4918
  140SAPE   H4S15258   0.668   2.363  10.269 -0.1738 -0.4379  0.4494
  140SAPE   C2515259   0.846   2.233  10.287  0.1589  0.0408  0.0228
  140SAPE   H5R15260   0.805   2.135  10.314  0.7152 -0.4216 -0.7586
  140SAPE   C2615261   0.941   2.222  10.202 -0.2223  0.3788  0.2815
  140SAPE   H6R15262   0.977   2.120  10.183  0.6745  0.2309  2.4711
  140SAPE   C2715263   0.998   2.335  10.116 -0.1000 -0.1838 -0.7035
  140SAPE   H7R15264   1.039   2.413  10.185  3.1114 -1.3988 -1.0459
  140SAPE   H7S15265   0.915   2.376  10.055  0.1826  1.6300  0.0400
  140SAPE   C2815266   1.119   2.293  10.034 -0.3635 -0.2478  0.1682
  140SAPE   H8R15267   1.192   2.242  10.098 -1.0459 -0.7259  0.5815
  140SAPE   C2915268   1.139   2.298   9.901  1.0803  0.1995 -0.3957
  140SAPE   H9R15269   1.227   2.251   9.854  1.2296  0.8899 -0.8239
  140SAPE  C21015270   1.050   2.375   9.804  0.2051 -0.1546 -0.4969
  140SAPE  H10R15271   1.127   2.443   9.762 -0.1562  0.5981  0.0360
  140SAPE  H10S15272   0.972   2.431   9.861  0.5877 -0.3412  0.2265
  140SAPE  C21115273   0.977   2.281   9.711  0.7161  0.0513 -0.5501
  140SAPE  H11R15274   0.878   2.251   9.747  1.8549 -0.6747  2.2457
  140SAPE  C21215275   1.020   2.230   9.595  0.2709 -0.1660 -0.1146
  140SAPE  H12R15276   0.958   2.161   9.536 -0.4164 -0.9142  1.4059
  140SAPE  C21315277   1.152   2.266   9.538  0.2752  0.1894 -0.6106
  140SAPE  H13R15278   1.202   2.343   9.600 -0.1856  0.0028  0.0041
  140SAPE  H13S15279   1.140   2.312   9.437  0.8954 -1.6489 -1.5716
  140SAPE  C21415280   1.240   2.143   9.526  0.6604  0.4855 -0.4659
  140SAPE  H14R15281   1.271   2.111   9.627 -2.6023 -1.0326  0.2059
  140SAPE  C21515282   1.291   2.090   9.413 -0.0269 -0.3938  0.4314
  140SAPE  H15R15283   1.353   1.999   9.414 -1.8892 -1.7101  0.5573
  140SAPE  C21615284   1.248   2.143   9.282 -0.1066 -0.5116 -0.1116
  140SAPE  H16R15285   1.327   2.125   9.207 -1.9222  1.8209 -2.7915
  140SAPE  H16S15286   1.252   2.254   9.285  2.1798 -0.5333 -0.4800
  140SAPE  C21715287   1.121   2.083   9.219  0.0329 -0.5964  0.0760
  140SAPE  H17R15288   1.047   2.061   9.300 -0.3840  0.6263  0.0507
  140SAPE  H17S15289   1.154   1.982   9.186  0.5289 -0.2127 -0.6087
  140SAPE  C21815290   1.062   2.155   9.102 -0.1990 -0.3081  0.2314
  140SAPE  H18R15291   0.980   2.100   9.052 -0.3824  1.3475 -1.4336
  140SAPE  H18S15292   1.144   2.172   9.029  2.1646  3.1455  3.3088
  140SAPE  C21915293   1.002   2.291   9.134  0.1016 -0.2041  0.1299
  140SAPE  H19R15294   1.072   2.358   9.189 -1.4148 -0.7290  2.8808
  140SAPE  H19S15295   0.919   2.279   9.207  0.9630  0.9332  1.3717
  140SAPE  C22015296   0.947   2.368   9.009 -0.0202  0.4252  0.1679
  140SAPE  H20R15297   1.029   2.374   8.934  0.4125  3.3721  0.7411
  140SAPE  H20S15298   0.932   2.474   9.039 -1.6174  0.4547 -0.6412
  140SAPE  H20T15299   0.853   2.317   8.983  0.4686 -2.5962  3.5455
  140SAPE   C3315300   0.229   2.867  10.160 -0.0613 -0.0835 -0.2692
  140SAPE   H3X15301   0.203   2.966  10.203  1.3348 -0.2325  1.0122
  140SAPE   H3Y15302   0.147   2.794  10.177 -0.3142 -0.4489 -2.7556
  140SAPE   C3415303   0.250   2.875  10.009 -0.2718  0.7436  0.1098
  140SAPE   H4X15304   0.325   2.800   9.975  0.0910  1.3531 -0.4583
  140SAPE   H4Y15305   0.288   2.971   9.968 -2.6582  0.7413 -2.3990
  140SAPE   C3515306   0.126   2.827   9.927 -0.4242  0.1725 -0.4481
  140SAPE   H5X15307   0.042   2.899   9.940 -1.5583 -1.0067 -1.0497
  140SAPE   H5Y15308   0.098   2.728   9.967  2.0173 -0.0495  0.9415
  140SAPE   C3615309   0.170   2.805   9.786 -0.3937  0.3116 -0.0357
  140SAPE   H6X15310   0.080   2.787   9.725 -1.3047 -0.3441  1.4457
  140SAPE   H6Y15311   0.252   2.730   9.774  0.8430  1.4947  0.6462
  140SAPE   C3715312   0.230   2.927   9.720 -0.2944  0.4505  0.4755
  140SAPE   H7X15313   0.335   2.938   9.754  0.1233 -2.1182  0.2296
  140SAPE   H7Y15314   0.168   3.004   9.770  1.0208 -0.1287  3.1608
  140SAPE   C3815315   0.227   2.945   9.569 -0.1011 -0.3296  0.1752
  140SAPE   H8X15316   0.180   3.042   9.544 -0.2352 -0.5302 -0.3537
  140SAPE   H8Y15317   0.160   2.867   9.529 -0.6951  0.5082 -0.5004
  140SAPE   C3915318   0.365   2.929   9.500 -0.6420 -0.0515 -0.1762
  140SAPE   H9X15319   0.393   2.821   9.498  1.9277  0.5638 -0.0809
  140SAPE   H9Y15320   0.437   2.990   9.559  1.8704 -4.4329  1.7796
  140SAPE  C31015321   0.367   2.973   9.357 -0.2060 -0.1471  0.2857
  140SAPE  H10X15322   0.477   2.978   9.342  0.0341 -0.8747  1.5710
  140SAPE  H10Y15323   0.306   3.066   9.355 -1.9456 -1.2365 -1.4203
  140SAPE  C31115324   0.278   2.880   9.266  0.6361 -0.2574  0.5476
  140SAPE  H11X15325   0.173   2.879   9.303  0.5672  3.3777  0.7866
  140SAPE  H11Y15326   0.313   2.777   9.287  0.1882 -0.3093  1.0865
  140SAPE  C31215327   0.271   2.909   9.116 -0.0817  0.0970 -0.4277
  140SAPE  H12X15328   0.177   2.860   9.082 -0.6823  0.8034  0.1722
  140SAPE  H12Y15329   0.359   2.851   9.080  0.2625  0.2758  0.1132
  140SAPE  C31315330   0.273   3.055   9.081 -0.4491 -0.1230 -0.8173
  140SAPE  H13X15331   0.370   3.095   9.117 -1.1950  1.0682 -0.0619
  140SAPE  H13Y15332   0.200   3.109   9.145 -1.0500 -0.0689 -1.5263
  140SAPE  C31415333   0.263   3.082   8.932  0.6290  0.1937 -0.3823
  140SAPE  H14X15334   0.258   3.193   8.929 -0.6032  0.2207  1.0675
  140SAPE  H14Y15335   0.166   3.048   8.888  0.0733 -1.1712  1.7380
  140SAPE  C31515336   0.387   3.036   8.853  0.2853 -0.7450  0.3217
  140SAPE  H15X15337   0.395   2.926   8.870  0.4023 -1.4978 -3.7049
  140SAPE  H15Y15338   0.470   3.084   8.909  0.8908  0.5972 -1.6140
  140SAPE  C31615339   0.364   3.084   8.708  0.8916  0.6817 -0.3908
  140SAPE  H16X15340   0.326   3.188   8.695 -0.1533  0.1426 -1.9490
  140SAPE  H16Y15341   0.281   3.018   8.675 -1.5345  2.0101  2.5514
  140SAPE  C31715342   0.488   3.064   8.625 -0.1811 -0.3087 -0.0615
  140SAPE  H17X15343   0.517   2.960   8.650 -1.2168 -0.9107 -1.2576
  140SAPE  H17Y15344   0.568   3.137   8.652 -0.8698  0.6466 -0.5558
  140SAPE  C31815345   0.459   3.075   8.474  0.0223  0.3861 -0.1228
  140SAPE  H18X15346   0.540   3.033   8.411 -0.7453  0.6017 -1.2987
  140SAPE  H18Y15347   0.457   3.181   8.440 -0.6180 -0.0318 -1.5071
  140SAPE  H18Z15348   0.361   3.028   8.449  0.3689  0.4241 -1.6978
  141SAPE     N15349   5.944   3.652  10.993 -0.2346 -0.0219 -0.1564
  141SAPE   HN115350   6.007   3.702  10.928  1.7494 -0.3794  1.3871
  141SAPE   HN215351   5.875   3.606  10.931  0.6410 -0.6090 -0.7081
  141SAPE   HN315352   5.892   3.723  11.049 -1.2407 -0.0241 -1.0618
  141SAPE   C1215353   6.025   3.549  11.073 -0.4369 -0.3730  0.2121
  141SAPE  H12A15354   5.965   3.488  11.144 -1.4157 -1.1855 -1.2509
  141SAPE  H12B15355   6.105   3.602  11.128  1.8403 -1.4950 -1.8028
  141SAPE   C1115356   6.104   3.458  10.971  0.0539  0.6282  0.0299
  141SAPE  H11A15357   6.178   3.400  11.029 -0.6888 -0.1872  0.1843
  141SAPE  H11B15358   6.153   3.510  10.886  1.6159 -3.9139 -2.1602
  141SAPE     P15359   6.037   3.242  10.842 -0.2792 -0.1661 -0.2242
  141SAPE   O1315360   6.182   3.213  10.842  0.1370 -0.3959 -0.3359
  141SAPE   O1415361   5.963   3.129  10.897 -0.8134  0.3579  0.0692
  141SAPE   O1215362   6.002   3.372  10.920  0.2287  0.5834 -0.1951
  141SAPE   O1115363   5.992   3.273  10.693  0.2658  0.1976  0.1473
  141SAPE    C115364   6.034   3.389  10.629  0.1001 -0.2226 -0.3986
  141SAPE    HA15365   5.950   3.460  10.648  0.9385  0.4797  0.8155
  141SAPE    HB15366   6.127   3.430  10.674 -0.8922  0.8809  0.7230
  141SAPE    C215367   6.061   3.373  10.473  0.7206  0.1872 -0.3974
  141SAPE    HS15368   6.095   3.476  10.451  1.1507  0.2389  0.4524
  141SAPE   O2115369   5.944   3.331  10.404  0.3382  0.2140  0.3226
  141SAPE   C2115370   5.881   3.429  10.343 -0.4774 -0.0262  0.0833
  141SAPE   O2215371   5.917   3.546  10.335  0.3617 -0.7268 -0.0956
  141SAPE   C2215372   5.758   3.381  10.276  0.8900 -0.0294  0.1182
  141SAPE   H2R15373   5.763   3.277  10.239  0.8585  0.7363 -2.2536
  141SAPE   H2S15374   5.679   3.369  10.352  0.6391  2.4439  0.3401
  141SAPE    C315375   6.180   3.270  10.448 -0.0136 -0.2285 -0.0693
  141SAPE    HX15376   6.166   3.194  10.527  0.6279 -0.2734  0.0086
  141SAPE    HY15377   6.270   3.332  10.468 -1.0444  1.1393  0.4416
  141SAPE   O3115378   6.184   3.209  10.323 -0.2890  0.1913  0.0814
  141SAPE   C3115379   6.199   3.291  10.216 -0.0494 -0.6210  0.0106
  141SAPE   O3215380   6.231   3.411  10.224 -0.0538  0.3570  0.0291
  141SAPE   C3215381   6.179   3.217  10.086 -0.8906 -0.0676  0.0169
  141SAPE   H2X15382   6.081   3.165  10.090 -0.9626  0.0200 -0.5022
  141SAPE   H2Y15383   6.257   3.139  10.096 -0.8120  0.2756  2.8110
  141SAPE   C2315384   5.712   3.470  10.160  0.2350  0.8885 -0.1282
  141SAPE   H3R15385   5.791   3.471  10.082  0.3037 -0.1712 -0.0904
  141SAPE   H3S15386   5.690   3.576  10.185 -0.6593  1.0751 -1.5967
  141SAPE   C2415387   5.577   3.420  10.095 -1.2656  0.7916  0.2464
  141SAPE   H4R15388   5.597   3.318  10.056  1.9235  1.1775  0.6285
  141SAPE   H4S15389   5.555   3.494  10.016 -1.2614 -0.2210 -0.7301
  141SAPE   C2515390   5.465   3.423  10.194 -0.2151  0.2219  0.6453
  141SAPE   H5R15391   5.480   3.504  10.267  1.4197  0.7908 -0.2572
  141SAPE   C2615392   5.370   3.331  10.206  0.3100 -0.2489 -0.7653
  141SAPE   H6R15393   5.291   3.346  10.280 -0.5508 -0.9349 -1.5265
  141SAPE   C2715394   5.347   3.207  10.132  1.1707  0.6266 -0.0834
  141SAPE   H7R15395   5.401   3.226  10.037  3.3761  0.5681  1.0887
  141SAPE   H7S15396   5.237   3.196  10.123  0.8809  0.4073  2.7125
  141SAPE   C2815397   5.395   3.089  10.218 -0.7338  0.1030  0.0784
  141SAPE   H8R15398   5.325   3.058  10.297 -0.0483  2.9881  1.9558
  141SAPE   C2915399   5.510   3.020  10.206  0.5750  0.0069 -0.5410
  141SAPE   H9R15400   5.516   2.934  10.275 -1.9618  2.0754  2.5813
  141SAPE  C21015401   5.621   3.044  10.106 -0.6130 -0.2648  0.1028
  141SAPE  H10R15402   5.717   3.080  10.149 -0.2219  0.8661 -1.6064
  141SAPE  H10S15403   5.595   3.119  10.028  0.9384 -0.1895 -0.3728
  141SAPE  C21115404   5.649   2.915  10.034 -0.7808  0.1899  0.2200
  141SAPE  H11R15405   5.564   2.850  10.012  0.2241 -0.6888 -1.2426
  141SAPE  C21215406   5.769   2.863  10.007 -0.3543  0.3650  0.3713
  141SAPE  H12R15407   5.776   2.756   9.982  0.6364  1.2129 -3.5423
  141SAPE  C21315408   5.901   2.926  10.035  0.0146  0.4295  0.0108
  141SAPE  H13R15409   5.904   3.016  10.100  0.3900  0.0175  0.5799
  141SAPE  H13S15410   5.935   2.962   9.935  1.1757  0.1254  0.2737
  141SAPE  C21415411   6.001   2.829  10.088  0.0443  0.5526 -0.1048
  141SAPE  H14R15412   5.993   2.803  10.194  3.2711 -0.2531  0.0414
  141SAPE  C21515413   6.104   2.777  10.021 -0.0591 -0.4471  0.0251
  141SAPE  H15R15414   6.166   2.699  10.067 -2.0436 -1.3352  1.3309
  141SAPE  C21615415   6.138   2.802   9.878  0.8263 -0.6819  0.4409
  141SAPE  H16R15416   6.132   2.913   9.873 -0.9973 -0.6362  2.1838
  141SAPE  H16S15417   6.061   2.760   9.810  0.9307 -1.6713  0.9092
  141SAPE  C21715418   6.262   2.733   9.844  0.3722 -0.6000 -0.1473
  141SAPE  H17R15419   6.269   2.632   9.889 -2.0760 -1.4574 -1.5244
  141SAPE  H17S15420   6.346   2.796   9.881 -0.3416 -0.5103  1.3688
  141SAPE  C21815421   6.278   2.727   9.689  0.4164  0.7203 -0.4882
  141SAPE  H18R15422   6.228   2.641   9.639  3.0270 -1.4052  0.2962
  141SAPE  H18S15423   6.383   2.691   9.676 -0.2211 -1.2756 -0.4465
  141SAPE  C21915424   6.266   2.861   9.603  0.2344 -0.0509 -0.7502
  141SAPE  H19R15425   6.341   2.927   9.651 -0.1444  0.1107 -0.3730
  141SAPE  H19S15426   6.166   2.907   9.618 -0.5330 -1.6138 -0.8030
  141SAPE  C22015427   6.289   2.837   9.456 -0.0020 -0.1093 -0.1059
  141SAPE  H20R15428   6.274   2.933   9.402  3.7895  0.6963 -0.0175
  141SAPE  H20S15429   6.226   2.758   9.411 -0.9909  1.6208 -1.8771
  141SAPE  H20T15430   6.394   2.804   9.443  1.1984  2.5970  1.6346
  141SAPE   C3315431   6.176   3.310   9.961  0.4291 -0.5595  0.2187
  141SAPE   H3X15432   6.245   3.397   9.968  0.3044 -0.5578  1.7519
  141SAPE   H3Y15433   6.073   3.345   9.937 -0.4095 -2.2219  1.2887
  141SAPE   C3415434   6.231   3.231   9.835  0.3494 -0.6188 -0.6519
  141SAPE   H4X15435   6.191   3.128   9.845 -0.3180 -0.3265 -0.2108
  141SAPE   H4Y15436   6.339   3.214   9.853  0.2192 -0.5414  0.2290
  141SAPE   C3515437   6.191   3.305   9.707 -0.0550 -0.5256  0.0644
  141SAPE   H5X15438   6.231   3.408   9.699 -1.4128 -0.0355 -0.6686
  141SAPE   H5Y15439   6.080   3.308   9.710 -0.0244  1.2522  2.2264
  141SAPE   C3615440   6.251   3.233   9.579 -0.0109 -0.5571 -0.4019
  141SAPE   H6X15441   6.207   3.132   9.570 -2.0798 -0.0385  2.5133
  141SAPE   H6Y15442   6.361   3.217   9.589  0.4954  1.0543 -2.5611
  141SAPE   C3715443   6.233   3.309   9.452 -0.6295  0.2409 -0.7016
  141SAPE   H7X15444   6.252   3.417   9.469  1.0373 -0.3082  1.2418
  141SAPE   H7Y15445   6.124   3.298   9.430 -1.4781  4.3279  0.5186
  141SAPE   C3815446   6.336   3.270   9.344 -0.0554  0.8160  0.0233
  141SAPE   H8X15447   6.334   3.159   9.345  0.1025  0.8135  1.2549
  141SAPE   H8Y15448   6.438   3.302   9.374  0.6333 -0.4105 -0.9244
  141SAPE   C3915449   6.310   3.327   9.206  0.8340  0.3036  0.1238
  141SAPE   H9X15450   6.300   3.438   9.212 -0.5284  0.2549 -0.7339
  141SAPE   H9Y15451   6.216   3.279   9.172  1.9840 -1.6764 -0.4212
  141SAPE  C31015452   6.423   3.303   9.102 -0.3355  0.0191 -0.1913
  141SAPE  H10X15453   6.510   3.362   9.138  0.3852  0.5555 -2.6219
  141SAPE  H10Y15454   6.387   3.338   9.003 -3.6847  0.2095  0.9432
  141SAPE  C31115455   6.475   3.160   9.096 -0.6387 -0.5270 -0.1401
  141SAPE  H11X15456   6.405   3.085   9.054  1.6851 -2.9413  0.0138
  141SAPE  H11Y15457   6.497   3.108   9.192  0.2407 -0.0012 -0.0437
  141SAPE  C31215458   6.601   3.156   9.006  0.0291  0.1494  0.4258
  141SAPE  H12X15459   6.675   3.228   9.048  2.6135 -3.4338  2.5838
  141SAPE  H12Y15460   6.569   3.184   8.904 -2.5591  2.7806  1.8067
  141SAPE  C31315461   6.691   3.023   9.005  0.1373 -0.3412 -0.1839
  141SAPE  H13X15462   6.613   2.945   9.014 -1.1245  0.7280 -1.4745
  141SAPE  H13Y15463   6.770   3.018   9.084 -0.8298 -0.4554  0.8025
  141SAPE  C31415464   6.755   2.998   8.865 -0.7908  0.7805  0.3046
  141SAPE  H14X15465   6.835   3.068   8.833  0.1051 -0.3484  0.0137
  141SAPE  H14Y15466   6.679   3.014   8.786 -0.5128 -0.6432 -0.2832
  141SAPE  C31515467   6.794   2.851   8.840  0.1487  0.2503  0.3862
  141SAPE  H15X15468   6.702   2.789   8.849  0.4293 -0.2941 -0.3659
  141SAPE  H15Y15469   6.866   2.813   8.916 -1.0138 -3.2899 -0.0814
  141SAPE  C31615470   6.858   2.835   8.696  0.2144  0.1479  0.2409
  141SAPE  H16X15471   6.881   2.727   8.684 -0.3755 -0.1353  1.4493
  141SAPE  H16Y15472   6.948   2.900   8.698 -0.5156  1.1795  1.7480
  141SAPE  C31715473   6.773   2.883   8.572  0.2331  0.3667 -0.6885
  141SAPE  H17X15474   6.750   2.991   8.579 -0.4631  0.1694  0.4719
  141SAPE  H17Y15475   6.673   2.843   8.600  0.1927  1.4278  0.8410
  141SAPE  C31815476   6.808   2.828   8.422  0.3724  0.0594  1.0347
  141SAPE  H18X15477   6.721   2.831   8.353 -1.0874 -0.8765  2.7473
  141SAPE  H18Y15478   6.829   2.721   8.444 -0.9332 -0.3009  0.6211
  141SAPE  H18Z15479   6.900   2.877   8.386  1.8337 -2.2604  1.4161
  142SAPE     N15480   1.407   3.465  11.091 -0.9046 -0.0337  0.5277
  142SAPE   HN115481   1.467   3.438  11.011 -0.2223  2.0643  0.2655
  142SAPE   HN215482   1.472   3.473  11.171 -0.1408  3.4297 -0.2756
  142SAPE   HN315483   1.329   3.400  11.113 -2.1755  1.5615  0.9846
  142SAPE   C1215484   1.359   3.607  11.058  0.2338 -0.0171 -0.0556
  142SAPE  H12A15485   1.442   3.669  11.019  0.6205 -1.0075 -0.8661
  142SAPE  H12B15486   1.316   3.641  11.155 -0.5592 -0.8705 -0.0857
  142SAPE   C1115487   1.249   3.603  10.959  1.1645  0.5479 -0.2378
  142SAPE  H11A15488   1.285   3.576  10.858  0.5686  1.5428 -0.7268
  142SAPE  H11B15489   1.207   3.704  10.938 -0.9537 -0.4065 -0.7794
  142SAPE     P15490   0.988   3.525  10.942  0.8156  0.0221  0.0124
  142SAPE   O1315491   0.896   3.441  11.025  0.3272 -0.3928 -0.1958
  142SAPE   O1415492   0.950   3.668  10.923 -0.0672  0.1530  0.1323
  142SAPE   O1215493   1.134   3.523  11.007  0.3231 -0.2377 -0.0062
  142SAPE   O1115494   1.008   3.457  10.805  0.6043  0.3523  0.1821
  142SAPE    C115495   1.061   3.320  10.811 -0.4607  0.1351  0.4470
  142SAPE    HA15496   1.168   3.330  10.783  0.6496  1.0252  4.4338
  142SAPE    HB15497   1.072   3.278  10.913 -0.5510 -2.1952 -0.4525
  142SAPE    C215498   0.980   3.212  10.734  0.2478  0.8019 -0.6525
  142SAPE    HS15499   1.006   3.113  10.778 -1.0158  0.2545 -1.0765
  142SAPE   O2115500   1.005   3.217  10.597  0.1222 -0.5434 -0.1013
  142SAPE   C2115501   1.122   3.156  10.572 -0.4420 -0.8903  0.1566
  142SAPE   O2215502   1.190   3.097  10.652 -0.1510 -0.2818  0.0930
  142SAPE   C2215503   1.170   3.178  10.427 -0.2952 -0.0384  0.1804
  142SAPE   H2R15504   1.256   3.108  10.414  0.1568  0.6194 -0.3939
  142SAPE   H2S15505   1.089   3.149  10.356 -1.6230 -0.0486  1.6308
  142SAPE    C315506   0.823   3.214  10.753 -0.4916  0.7473 -0.1882
  142SAPE    HX15507   0.798   3.322  10.743  2.0980  1.5573  1.0043
  142SAPE    HY15508   0.797   3.190  10.858 -2.7030  2.3819 -0.2819
  142SAPE   O3115509   0.764   3.113  10.665  0.6369 -0.4784  0.0164
  142SAPE   C3115510   0.693   3.174  10.561  0.0716  0.2560 -0.4196
  142SAPE   O3215511   0.680   3.290  10.550  0.0789 -0.5343 -0.1400
  142SAPE   C3215512   0.654   3.070  10.461  0.2470  0.3803  0.8043
  142SAPE   H2X15513   0.608   3.125  10.376  3.7623 -0.4899 -1.8886
  142SAPE   H2Y15514   0.582   3.007  10.517  1.6127  0.0197  2.2395
  142SAPE   C2315515   1.206   3.326  10.406 -0.1473  0.3566 -0.7585
  142SAPE   H3R15516   1.284   3.358  10.478  2.0021 -2.1844 -1.7973
  142SAPE   H3S15517   1.112   3.384  10.423  0.4606  1.4654 -1.0431
  142SAPE   C2415518   1.263   3.349  10.265 -0.6304 -0.6435 -0.7344
  142SAPE   H4R15519   1.229   3.447  10.224 -2.7148 -1.6126 -1.4721
  142SAPE   H4S15520   1.219   3.287  10.184  0.2177 -2.0226 -0.1522
  142SAPE   C2515521   1.415   3.335  10.253 -0.5563 -0.3888 -0.1698
  142SAPE   H5R15522   1.479   3.420  10.279 -2.4342  0.6775  1.2151
  142SAPE   C2615523   1.487   3.231  10.195  0.4792  0.1410  0.0173
  142SAPE   H6R15524   1.597   3.235  10.201  0.5206 -1.1713  0.5745
  142SAPE   C2715525   1.424   3.102  10.142 -0.1701 -0.3153 -0.1286
  142SAPE   H7R15526   1.392   3.126  10.038  1.2168  1.6745 -0.1470
  142SAPE   H7S15527   1.332   3.072  10.197 -0.4196  0.4077 -0.1425
  142SAPE   C2815528   1.529   2.992  10.124  0.8479 -0.5460  0.1805
  142SAPE   H8R15529   1.522   2.917  10.205 -1.9247  1.5592  2.1009
  142SAPE   C2915530   1.609   2.973  10.019 -0.0486  0.3615  0.1879
  142SAPE   H9R15531   1.669   2.881  10.024  0.4568  0.7373  3.7075
  142SAPE  C21015532   1.610   3.049   9.891 -0.0759  0.1196  0.2320
  142SAPE  H10R15533   1.712   3.049   9.848 -1.0921 -0.2767 -2.3892
  142SAPE  H10S15534   1.567   3.151   9.900 -0.9042 -0.0405 -1.5078
  142SAPE  C21115535   1.512   2.987   9.792 -0.2653 -0.1030 -0.5109
  142SAPE  H11R15536   1.440   2.917   9.839  0.8982 -0.4887  0.7472
  142SAPE  C21215537   1.514   3.017   9.656  0.3268 -0.5475  0.0643
  142SAPE  H12R15538   1.434   2.971   9.596 -0.5763 -0.1603  0.9395
  142SAPE  C21315539   1.602   3.116   9.589 -0.1549  0.2280  0.0686
  142SAPE  H13R15540   1.696   3.121   9.647 -0.2679 -0.1080  0.2858
  142SAPE  H13S15541   1.556   3.215   9.607 -0.3219  0.0675  0.5446
  142SAPE  C21415542   1.623   3.095   9.447 -0.2901  0.0787  0.3725
  142SAPE  H14R15543   1.585   3.000   9.407 -0.2200 -0.0218  0.5439
  142SAPE  C21515544   1.678   3.179   9.360 -0.4833  0.6773 -0.4522
  142SAPE  H15R15545   1.705   3.137   9.262  0.7066  0.2556  0.0299
  142SAPE  C21615546   1.733   3.324   9.372 -0.2634  0.1535 -0.7411
  142SAPE  H16R15547   1.735   3.348   9.480 -2.8586 -0.5872 -0.4809
  142SAPE  H16S15548   1.661   3.396   9.328 -0.1912  1.2202  0.8151
  142SAPE  C21715549   1.873   3.345   9.322 -0.2535 -0.5539  0.3494
  142SAPE  H17R15550   1.937   3.277   9.383 -0.7966  1.4288  3.3858
  142SAPE  H17S15551   1.891   3.448   9.359 -0.8650 -0.3209 -0.0003
  142SAPE  C21815552   1.897   3.341   9.170 -0.5153  0.5053  0.5714
  142SAPE  H18R15553   1.810   3.386   9.118 -0.2162  1.3012  0.7410
  142SAPE  H18S15554   1.897   3.235   9.138  0.5739  0.6039  0.1980
  142SAPE  C21915555   2.026   3.416   9.135 -0.2433 -0.6002  0.6272
  142SAPE  H19R15556   2.111   3.365   9.184 -0.4755 -0.2883  1.3737
  142SAPE  H19S15557   2.016   3.514   9.187  0.1933 -0.6804  0.8629
  142SAPE  C22015558   2.049   3.448   8.991  0.0324 -0.6829  0.0907
  142SAPE  H20R15559   1.948   3.446   8.946 -0.3899  1.4792  0.8495
  142SAPE  H20S15560   2.101   3.366   8.936  0.7249  0.9513 -1.8392
  142SAPE  H20T15561   2.097   3.547   8.973 -3.7685  1.1366 -1.1611
  142SAPE   C3315562   0.767   2.985  10.402 -0.7349  0.5022  0.1035
  142SAPE   H3X15563   0.824   2.926  10.476 -2.0020  0.3498  0.9910
  142SAPE   H3Y15564   0.836   3.049  10.342 -0.0831  1.1330  1.4954
  142SAPE   C3415565   0.726   2.864  10.320 -0.2564  0.0994  0.3732
  142SAPE   H4X15566   0.629   2.822  10.354  1.0051 -2.4372  1.1263
  142SAPE   H4Y15567   0.796   2.781  10.345 -0.2708 -0.2512 -0.7364
  142SAPE   C3515568   0.745   2.890  10.167 -0.3027 -0.7556  0.0273
  142SAPE   H5X15569   0.851   2.909  10.138 -0.5034 -0.3962 -0.4864
  142SAPE   H5Y15570   0.705   2.991  10.144 -0.1640 -0.9088 -0.9453
  142SAPE   C3615571   0.686   2.789  10.075 -0.1625  0.5548  0.4597
  142SAPE   H6X15572   0.578   2.815  10.073 -0.2988 -0.0243  0.1406
  142SAPE   H6Y15573   0.708   2.689  10.117 -1.6341  0.2546  0.5960
  142SAPE   C3715574   0.753   2.796   9.938  0.1598 -0.3247 -0.2572
  142SAPE   H7X15575   0.858   2.759   9.945 -0.1233 -0.9670  0.8113
  142SAPE   H7Y15576   0.765   2.897   9.894 -0.7102 -1.3696 -3.1507
  142SAPE   C3815577   0.684   2.713   9.829 -0.2254  0.0098  0.0804
  142SAPE   H8X15578   0.575   2.734   9.820 -0.2997 -1.0845 -2.5065
  142SAPE   H8Y15579   0.694   2.608   9.865  1.0313  0.2233  0.3987
  142SAPE   C3915580   0.734   2.737   9.688  0.2719 -0.2783  0.5942
  142SAPE   H9X15581   0.845   2.745   9.693  0.4983  0.2449 -2.8147
  142SAPE   H9Y15582   0.694   2.834   9.651 -2.0451 -0.9820  1.1180
  142SAPE  C31015583   0.692   2.629   9.590 -0.2854 -0.0589 -0.1733
  142SAPE  H10X15584   0.583   2.636   9.569 -0.4046  1.5199  0.7967
  142SAPE  H10Y15585   0.696   2.533   9.646 -2.5601  0.0062  0.2229
  142SAPE  C31115586   0.783   2.633   9.470  0.3859  0.6610  0.2780
  142SAPE  H11X15587   0.750   2.540   9.419 -0.2059  1.2941 -0.5243
  142SAPE  H11Y15588   0.892   2.626   9.491  0.3929 -0.6340 -0.1206
  142SAPE  C31215589   0.738   2.743   9.372  0.6084  0.7013  0.1954
  142SAPE  H12X15590   0.770   2.843   9.409  1.3389 -0.3219  2.4740
  142SAPE  H12Y15591   0.627   2.748   9.364  0.4950  2.0943  2.0859
  142SAPE  C31315592   0.817   2.731   9.236  0.2680  0.4785  0.1148
  142SAPE  H13X15593   0.808   2.629   9.193 -1.5912  0.0154  1.4711
  142SAPE  H13Y15594   0.925   2.752   9.251 -0.0103  2.6465 -0.4686
  142SAPE  C31415595   0.759   2.832   9.137  0.5296 -0.4732 -0.1754
  142SAPE  H14X15596   0.757   2.931   9.188 -1.6120 -1.8118  2.6261
  142SAPE  H14Y15597   0.651   2.806   9.129  0.2307  0.3844  0.8651
  142SAPE  C31515598   0.828   2.831   9.002 -0.4919 -0.4427  0.0692
  142SAPE  H15X15599   0.823   2.728   8.960 -0.8150 -0.4223  0.0600
  142SAPE  H15Y15600   0.934   2.864   9.002 -0.5547 -0.2444  0.9294
  142SAPE  C31615601   0.757   2.926   8.906 -0.3872  0.3898  0.3313
  142SAPE  H16X15602   0.758   3.026   8.954 -0.5603  0.2316  0.6774
  142SAPE  H16Y15603   0.650   2.896   8.907 -0.8614  1.8908  2.2833
  142SAPE  C31715604   0.811   2.916   8.764  0.2269 -0.0605 -0.4581
  142SAPE  H17X15605   0.917   2.951   8.760  0.4000 -0.5340 -0.0558
  142SAPE  H17Y15606   0.746   2.984   8.705  0.1830 -1.5398 -2.2309
  142SAPE  C31815607   0.789   2.780   8.687  0.0734 -0.2978 -0.4554
  142SAPE  H18X15608   0.806   2.792   8.577  0.7526 -1.4917 -0.5008
  142SAPE  H18Y15609   0.690   2.737   8.710  1.4275 -2.8536  0.9658
  142SAPE  H18Z15610   0.865   2.707   8.721  0.8171  0.3617 -0.6639
  143SAPE     N15611   1.658   5.159  10.593 -0.3937 -0.1863 -0.4855
  143SAPE   HN115612   1.687   5.226  10.667 -0.3150 -0.3311 -0.3848
  143SAPE   HN215613   1.719   5.080  10.624  0.2216  0.9401  1.3555
  143SAPE   HN315614   1.685   5.200  10.501 -3.4056 -0.0255 -1.3838
  143SAPE   C1215615   1.509   5.112  10.602 -0.2724  0.5351 -0.3031
  143SAPE  H12A15616   1.497   5.058  10.506  1.3037  0.4574 -0.4814
  143SAPE  H12B15617   1.462   5.212  10.612  1.5044  1.4221 -0.4542
  143SAPE   C1115618   1.481   5.020  10.731 -0.5263 -0.1897 -0.0690
  143SAPE  H11A15619   1.389   4.962  10.708 -0.7761 -0.2869  1.1072
  143SAPE  H11B15620   1.472   5.087  10.818 -1.4985 -1.1348  0.5821
  143SAPE     P15621   1.585   4.817  10.856 -0.4410  0.0844 -0.0356
  143SAPE   O1315622   1.718   4.786  10.907  0.4756  0.1047  0.6044
  143SAPE   O1415623   1.488   4.869  10.956  0.3310 -0.5540  0.2596
  143SAPE   O1215624   1.596   4.930  10.747 -0.3543 -0.1996  0.2731
  143SAPE   O1115625   1.522   4.690  10.785 -0.4887  0.4563  0.2194
  143SAPE    C115626   1.600   4.569  10.762 -0.7343  0.1783 -0.0876
  143SAPE    HA15627   1.674   4.548  10.842  0.6747 -0.2025 -1.4400
  143SAPE    HB15628   1.546   4.472  10.768  2.0164 -1.4872 -0.1481
  143SAPE    C215629   1.689   4.568  10.627  0.1187  0.2941 -0.0354
  143SAPE    HS15630   1.789   4.608  10.654 -0.1420 -0.3667  2.1471
  143SAPE   O2115631   1.640   4.658  10.530  0.7730 -0.0687  0.5239
  143SAPE   C2115632   1.526   4.632  10.466 -0.6253  0.2018 -0.4894
  143SAPE   O2215633   1.457   4.535  10.495  0.0567  0.3368  0.5924
  143SAPE   C2215634   1.495   4.731  10.358  0.0937 -0.3386  0.2463
  143SAPE   H2R15635   1.388   4.722  10.329  0.3091 -0.1199 -0.6187
  143SAPE   H2S15636   1.516   4.837  10.386  0.9353  0.3828 -2.7958
  143SAPE    C315637   1.718   4.422  10.577 -0.8830 -0.0672 -0.2522
  143SAPE    HX15638   1.621   4.368  10.576 -1.8552  1.5834 -1.3493
  143SAPE    HY15639   1.784   4.376  10.654 -3.1118 -2.2326  0.4907
  143SAPE   O3115640   1.771   4.399  10.449 -0.0126  0.2564  0.7901
  143SAPE   C3115641   1.897   4.425  10.436 -0.8020 -0.5127  1.0462
  143SAPE   O3215642   1.972   4.466  10.521  0.0108  0.1229 -0.3360
  143SAPE   C3215643   1.938   4.404  10.294  0.7036 -0.0960 -0.4754
  143SAPE   H2X15644   2.038   4.451  10.287  1.1713 -1.1223 -0.8691
  143SAPE   H2Y15645   1.867   4.449  10.222  0.7427  0.5210 -0.1323
  143SAPE   C2315646   1.579   4.709  10.231 -0.2397 -0.1548 -0.1556
  143SAPE   H3R15647   1.570   4.608  10.185 -0.0395  0.3441 -1.3320
  143SAPE   H3S15648   1.686   4.725  10.254  0.0637  0.4626 -1.8293
  143SAPE   C2415649   1.537   4.799  10.115  0.1903 -0.3061 -0.2833
  143SAPE   H4R15650   1.568   4.902  10.140  0.3414 -0.6654  1.0907
  143SAPE   H4S15651   1.429   4.786  10.092  0.5245 -0.9828 -1.5807
  143SAPE   C2515652   1.609   4.764   9.988 -0.4687  0.0238  0.1959
  143SAPE   H5R15653   1.715   4.794   9.993 -0.6558  0.4907  2.2481
  143SAPE   C2615654   1.559   4.713   9.876 -0.0525 -0.6933 -0.2377
  143SAPE   H6R15655   1.628   4.720   9.791 -0.1498 -0.3075 -0.2876
  143SAPE   C2715656   1.418   4.676   9.849  0.1694  0.1694 -0.2970
  143SAPE   H7R15657   1.371   4.645   9.945  0.2781 -1.1759 -0.6477
  143SAPE   H7S15658   1.416   4.588   9.780  0.8905  0.0162 -0.1223
  143SAPE   C2815659   1.340   4.781   9.776 -0.6001  0.2419 -0.4050
  143SAPE   H8R15660   1.306   4.850   9.854 -0.6172  1.2529 -1.2854
  143SAPE   C2915661   1.319   4.802   9.644 -0.6220 -0.5179  1.0615
  143SAPE   H9R15662   1.269   4.892   9.606 -2.4124 -2.3015 -1.1519
  143SAPE  C21015663   1.379   4.712   9.538  0.3532  0.3545  0.1100
  143SAPE  H10R15664   1.333   4.742   9.441 -1.7972 -1.6335  0.4126
  143SAPE  H10S15665   1.351   4.605   9.546  1.7455 -0.0498 -0.2910
  143SAPE  C21115666   1.526   4.744   9.518  0.6021  0.1656 -0.4761
  143SAPE  H11R15667   1.595   4.760   9.603  0.5128  1.6459 -0.6537
  143SAPE  C21215668   1.589   4.759   9.398 -0.6496  0.4339 -0.3156
  143SAPE  H12R15669   1.696   4.784   9.396 -1.2052  3.1409  0.2860
  143SAPE  C21315670   1.524   4.743   9.269  0.3511 -0.0192  0.9154
  143SAPE  H13R15671   1.474   4.838   9.243  1.3964 -0.0833 -1.5749
  143SAPE  H13S15672   1.448   4.662   9.272  0.6535 -0.3706 -0.3398
  143SAPE  C21415673   1.616   4.700   9.160  0.3304 -0.4080 -0.1629
  143SAPE  H14R15674   1.700   4.634   9.185 -0.7645 -1.2572  1.4153
  143SAPE  C21515675   1.604   4.741   9.031  0.2881 -0.9374  0.5797
  143SAPE  H15R15676   1.680   4.705   8.960  1.3110  1.0179  0.6068
  143SAPE  C21615677   1.509   4.840   8.967 -0.4719  0.4433 -0.3910
  143SAPE  H16R15678   1.453   4.900   9.041 -0.6231 -0.9237  0.6300
  143SAPE  H16S15679   1.435   4.779   8.911  0.4171  0.3867 -1.5474
  143SAPE  C21715680   1.579   4.951   8.883 -0.4403  0.2403  0.5694
  143SAPE  H17R15681   1.653   4.993   8.954  0.4361 -2.2070  1.1791
  143SAPE  H17S15682   1.505   5.031   8.861 -1.6960 -0.9193  0.5037
  143SAPE  C21815683   1.654   4.908   8.757 -0.2226 -0.0564  0.0178
  143SAPE  H18R15684   1.587   4.915   8.668  2.1856 -1.6567 -2.0347
  143SAPE  H18S15685   1.686   4.803   8.771  1.3327  0.0303 -2.3289
  143SAPE  C21915686   1.787   4.988   8.731  0.3780 -0.2276  0.1435
  143SAPE  H19R15687   1.831   4.943   8.639 -1.8109  0.8692 -1.5566
  143SAPE  H19S15688   1.865   4.972   8.808  1.6057  0.6884 -0.8501
  143SAPE  C22015689   1.774   5.139   8.711  0.6367 -0.4090  0.1730
  143SAPE  H20R15690   1.678   5.152   8.656  0.3225 -1.4061  0.4560
  143SAPE  H20S15691   1.859   5.177   8.650  0.2475  2.2046  1.1482
  143SAPE  H20T15692   1.757   5.209   8.795  1.5600 -1.4743  1.2777
  143SAPE   C3315693   1.944   4.253  10.249 -0.1516  0.0966  0.4196
  143SAPE   H3X15694   1.842   4.211  10.239 -0.5592  1.0653  0.3002
  143SAPE   H3Y15695   2.012   4.213  10.326  1.0012  0.5493 -0.3332
  143SAPE   C3415696   2.012   4.230  10.111 -0.6424  0.3990 -0.1287
  143SAPE   H4X15697   2.115   4.273  10.108  0.4502 -2.1046 -2.0633
  143SAPE   H4Y15698   1.951   4.286  10.037 -0.3954  1.0567  0.1580
  143SAPE   C3515699   2.005   4.082  10.086  0.1989  0.0641 -0.3367
  143SAPE   H5X15700   1.900   4.047  10.096  0.3917 -0.9959 -1.7669
  143SAPE   H5Y15701   2.072   4.031  10.159  1.0231  0.3640 -0.8591
  143SAPE   C3615702   2.052   4.042   9.944  0.3873  0.1624 -0.5310
  143SAPE   H6X15703   1.981   4.086   9.871 -1.1176  0.3131  0.9621
  143SAPE   H6Y15704   2.034   3.933   9.934  0.7233  0.2077 -1.7867
  143SAPE   C3715705   2.199   4.074   9.902  0.5985 -0.3981 -0.2006
  143SAPE   H7X15706   2.209   4.184   9.909 -1.2996 -0.2544  0.7492
  143SAPE   H7Y15707   2.211   4.043   9.796  2.1690 -0.5336 -0.0140
  143SAPE   C3815708   2.304   4.015  10.000 -0.3481 -0.6324 -0.1111
  143SAPE   H8X15709   2.290   3.906  10.011  2.3977 -1.0472 -0.1055
  143SAPE   H8Y15710   2.304   4.064  10.100  1.3658 -0.5970 -0.0976
  143SAPE   C3915711   2.448   4.038   9.951  0.2440  0.6094 -0.1247
  143SAPE   H9X15712   2.517   4.040  10.037 -1.3678  0.8119  1.2117
  143SAPE   H9Y15713   2.463   4.142   9.915  1.8299  0.3967 -0.1275
  143SAPE  C31015714   2.497   3.930   9.845 -0.1397 -0.2489 -0.2076
  143SAPE  H10X15715   2.454   3.978   9.755 -0.0440  0.0721 -0.0861
  143SAPE  H10Y15716   2.457   3.831   9.875  2.3062 -2.0014 -2.3358
  143SAPE  C31115717   2.644   3.928   9.843  0.1776  0.3417 -0.1816
  143SAPE  H11X15718   2.684   3.924   9.947 -0.5930 -1.0180  0.0766
  143SAPE  H11Y15719   2.688   4.022   9.803  1.7072  0.1773  1.0027
  143SAPE  C31215720   2.701   3.813   9.766 -0.3138 -0.0275  0.1367
  143SAPE  H12X15721   2.652   3.715   9.786  0.1806 -0.2931  0.0558
  143SAPE  H12Y15722   2.807   3.789   9.788  0.4870  1.6397 -1.5917
  143SAPE  C31315723   2.719   3.855   9.610 -0.1809 -0.1118 -0.0300
  143SAPE  H13X15724   2.774   3.948   9.586 -1.0011  0.0700 -1.3316
  143SAPE  H13Y15725   2.614   3.868   9.576 -0.3256 -3.0601 -0.9347
  143SAPE  C31415726   2.780   3.743   9.525  0.1048 -0.0821 -0.0233
  143SAPE  H14X15727   2.741   3.647   9.563 -1.5546 -0.2544 -1.9776
  143SAPE  H14Y15728   2.891   3.734   9.523  0.4565  1.8697  3.3242
  143SAPE  C31515729   2.748   3.748   9.379 -0.9020 -0.6066  0.0606
  143SAPE  H15X15730   2.755   3.850   9.335 -0.9085 -1.2955 -1.6039
  143SAPE  H15Y15731   2.642   3.719   9.358 -0.4517 -2.3161 -0.0041
  143SAPE  C31615732   2.835   3.655   9.287  0.3533 -0.4115 -0.3148
  143SAPE  H16X15733   2.823   3.548   9.315 -1.2605  0.3285  2.2375
  143SAPE  H16Y15734   2.944   3.675   9.274  0.0924  0.5357 -1.2000
  143SAPE  C31715735   2.776   3.665   9.146  0.4502  0.1330 -0.7554
  143SAPE  H17X15736   2.773   3.772   9.116 -0.1858  0.9575  1.9975
  143SAPE  H17Y15737   2.669   3.635   9.146  0.8178 -1.2579 -0.0136
  143SAPE  C31815738   2.861   3.584   9.046 -0.0089 -0.7908  0.4543
  143SAPE  H18X15739   2.873   3.480   9.082  2.2779  0.2903  3.2350
  143SAPE  H18Y15740   2.960   3.633   9.058 -0.7515  0.2608  2.8493
  143SAPE  H18Z15741   2.827   3.598   8.941 -0.1087 -1.1853  0.4321
  144SAPE     N15742   5.132   3.824  10.976  0.0998 -0.6297  0.1733
  144SAPE   HN115743   5.203   3.795  11.047 -0.3581  1.1721  1.4419
  144SAPE   HN215744   5.124   3.927  10.978  1.9275 -0.3882 -1.5132
  144SAPE   HN315745   5.046   3.772  11.004 -0.4222  0.1001 -0.0697
  144SAPE   C1215746   5.199   3.767  10.853  0.5544  0.2435 -0.2096
  144SAPE  H12A15747   5.229   3.663  10.878 -0.2622  0.2620  0.9224
  144SAPE  H12B15748   5.287   3.832  10.834 -1.4092  2.7342 -1.4819
  144SAPE   C1115749   5.112   3.757  10.730 -0.5641 -0.7353  0.2000
  144SAPE  H11A15750   5.161   3.716  10.640 -2.4234  0.7128 -1.5708
  144SAPE  H11B15751   5.076   3.856  10.696 -0.9926 -0.4657  1.3671
  144SAPE     P15752   4.984   3.524  10.739  0.3002 -0.0709 -0.1275
  144SAPE   O1315753   5.101   3.463  10.811  0.1919 -0.6348  0.0277
  144SAPE   O1415754   4.848   3.477  10.774 -0.0928  0.1673  0.0275
  144SAPE   O1215755   4.993   3.681  10.756 -0.2822  0.2705  0.0118
  144SAPE   O1115756   5.010   3.522  10.588  0.5828 -0.2811 -0.5503
  144SAPE    C115757   4.927   3.583  10.491  0.3620 -0.3542 -0.0820
  144SAPE    HA15758   4.823   3.596  10.526  0.1967  1.2875 -1.0479
  144SAPE    HB15759   4.966   3.684  10.465  1.4599 -0.6614  0.3169
  144SAPE    C215760   4.928   3.484  10.374 -0.3359 -0.1050  0.0393
  144SAPE    HS15761   4.858   3.518  10.295  0.5805  0.4882 -0.5271
  144SAPE   O2115762   4.887   3.354  10.419 -0.7962  0.4638 -0.3927
  144SAPE   C2115763   4.756   3.339  10.442 -0.1803 -0.1552 -0.9325
  144SAPE   O2215764   4.666   3.410  10.407 -0.2985  0.0472 -0.4392
  144SAPE   C2215765   4.745   3.220  10.529  0.1953  0.6822 -1.3657
  144SAPE   H2R15766   4.824   3.224  10.607 -0.3385  3.7162 -0.8539
  144SAPE   H2S15767   4.650   3.242  10.582  0.6594  0.4168 -0.3950
  144SAPE    C315768   5.061   3.474  10.297 -1.0369  0.0606 -0.5043
  144SAPE    HX15769   5.046   3.391  10.224 -0.0313 -1.6198  1.1218
  144SAPE    HY15770   5.147   3.433  10.353  0.1156 -2.5193 -3.7958
  144SAPE   O3115771   5.094   3.595  10.223 -0.2422  0.1422 -0.1030
  144SAPE   C3115772   5.180   3.669  10.285  0.4318  0.1968 -0.7731
  144SAPE   O3215773   5.234   3.645  10.393  0.2508 -0.2874 -0.6448
  144SAPE   C3215774   5.181   3.808  10.211 -0.3169  0.3621 -0.5853
  144SAPE   H2X15775   5.194   3.889  10.285  0.1564 -0.1145 -0.1427
  144SAPE   H2Y15776   5.088   3.825  10.153  0.2893  0.4846 -1.5535
  144SAPE   C2315777   4.741   3.077  10.460 -0.2867 -0.4544 -0.0861
  144SAPE   H3R15778   4.658   3.018  10.506 -1.3902  1.1492  0.0723
  144SAPE   H3S15779   4.831   3.019  10.489 -0.8384 -0.1351  2.5205
  144SAPE   C2415780   4.722   3.083  10.308  0.7078 -0.5348 -0.0675
  144SAPE   H4R15781   4.636   3.144  10.276  0.8956 -0.4121 -0.3412
  144SAPE   H4S15782   4.687   2.980  10.287  0.8504 -1.3490  3.1520
  144SAPE   C2515783   4.848   3.115  10.230  0.4943  0.3554 -0.7131
  144SAPE   H5R15784   4.940   3.081  10.280  0.8799  0.0942 -1.5901
  144SAPE   C2615785   4.861   3.190  10.117  0.2192  0.2297 -0.5494
  144SAPE   H6R15786   4.962   3.213  10.081 -0.1940  2.4031 -0.5001
  144SAPE   C2715787   4.751   3.261  10.045 -0.5243 -0.1727  0.3100
  144SAPE   H7R15788   4.647   3.230  10.067 -0.9283  0.4932 -0.6163
  144SAPE   H7S15789   4.753   3.239   9.936 -0.3130  1.0555  0.0540
  144SAPE   C2815790   4.763   3.412  10.051 -0.2631  0.0229  0.1547
  144SAPE   H8R15791   4.712   3.451  10.140 -2.6256 -0.4245 -0.9195
  144SAPE   C2915792   4.831   3.501   9.969 -0.3411  0.1759  0.7804
  144SAPE   H9R15793   4.821   3.609   9.988 -0.5573  0.3084 -0.0647
  144SAPE  C21015794   4.915   3.463   9.852 -0.8139  0.1279  0.7674
  144SAPE  H10R15795   4.903   3.526   9.761  0.8052  0.5330  0.7924
  144SAPE  H10S15796   4.885   3.363   9.815 -0.2598  1.3690 -3.5815
  144SAPE  C21115797   5.068   3.453   9.880  0.2357  0.1959  0.1399
  144SAPE  H11R15798   5.103   3.525   9.956 -3.0487 -0.3648  2.3703
  144SAPE  C21215799   5.158   3.355   9.847 -0.4043 -0.3082 -0.2075
  144SAPE  H12R15800   5.260   3.362   9.887 -0.8102  1.6199  0.6186
  144SAPE  C21315801   5.127   3.238   9.760  0.1707  0.7278 -0.1345
  144SAPE  H13R15802   5.146   3.245   9.650  3.3808  0.9877  0.3463
  144SAPE  H13S15803   5.019   3.211   9.765  0.7232 -2.0410 -1.2760
  144SAPE  C21415804   5.203   3.125   9.816 -0.2206  0.4740 -0.2398
  144SAPE  H14R15805   5.149   3.055   9.881 -0.3265  1.6502  0.9789
  144SAPE  C21515806   5.322   3.086   9.774 -0.2887  0.3046  0.0150
  144SAPE  H15R15807   5.384   3.015   9.831  1.9637  2.0689 -0.0888
  144SAPE  C21615808   5.408   3.149   9.664 -0.2973  0.3021  0.9391
  144SAPE  H16R15809   5.362   3.243   9.628 -1.2848 -0.7253 -0.5909
  144SAPE  H16S15810   5.420   3.088   9.572  2.9687  1.1159  0.7045
  144SAPE  C21715811   5.553   3.183   9.720  0.0528  0.5960 -0.7665
  144SAPE  H17R15812   5.596   3.097   9.776  3.7970  2.5732 -0.2979
  144SAPE  H17S15813   5.528   3.252   9.804  0.2782 -0.3836  0.1389
  144SAPE  C21815814   5.651   3.239   9.614  0.2709 -0.0330  0.6318
  144SAPE  H18R15815   5.623   3.344   9.590 -1.4156 -0.2810  1.3224
  144SAPE  H18S15816   5.667   3.179   9.522 -0.0021 -0.6282  0.9688
  144SAPE  C21915817   5.785   3.256   9.687  0.2586 -0.3382  0.4373
  144SAPE  H19R15818   5.858   3.290   9.610 -1.1139  0.6692 -0.4731
  144SAPE  H19S15819   5.816   3.153   9.713 -0.6191 -0.3007  1.7165
  144SAPE  C22015820   5.793   3.360   9.806 -0.2482 -0.0502 -0.9010
  144SAPE  H20R15821   5.846   3.454   9.780  1.6929 -0.9356 -0.3173
  144SAPE  H20S15822   5.832   3.319   9.901 -1.2482  1.1288  0.0572
  144SAPE  H20T15823   5.694   3.401   9.833  0.3796  1.4601 -0.7793
  144SAPE   C3315824   5.303   3.819  10.116 -0.1054  0.4935 -0.4664
  144SAPE   H3X15825   5.400   3.792  10.160  0.1978  0.4933 -1.1219
  144SAPE   H3Y15826   5.317   3.923  10.078  0.5847  0.1886 -1.0477
  144SAPE   C3415827   5.274   3.747   9.987  0.0279 -0.1435  0.5634
  144SAPE   H4X15828   5.184   3.795   9.942  0.1815  0.8571  1.2988
  144SAPE   H4Y15829   5.239   3.645  10.012 -1.5999 -0.1025 -1.2984
  144SAPE   C3515830   5.392   3.742   9.891 -0.5532 -0.6125  0.5789
  144SAPE   H5X15831   5.487   3.717   9.941 -0.8227  1.3845  2.2445
  144SAPE   H5Y15832   5.391   3.848   9.857  1.0572 -0.9737 -0.7110
  144SAPE   C3615833   5.370   3.649   9.762  0.1027 -0.0746  0.6450
  144SAPE   H6X15834   5.269   3.658   9.717  0.7660  2.5843 -0.4683
  144SAPE   H6Y15835   5.384   3.546   9.801 -3.6423  0.7353  4.8949
  144SAPE   C3715836   5.474   3.676   9.651  0.5562  0.4799  0.0538
  144SAPE   H7X15837   5.570   3.659   9.706  1.2410  2.7988 -0.3123
  144SAPE   H7Y15838   5.483   3.784   9.628  0.9572  0.8833  1.9305
  144SAPE   C3815839   5.460   3.586   9.523 -0.3920 -0.3405  0.4955
  144SAPE   H8X15840   5.358   3.597   9.480 -0.1643  0.1736  0.0777
  144SAPE   H8Y15841   5.461   3.478   9.552  0.3478 -0.5369 -0.2155
  144SAPE   C3915842   5.571   3.597   9.415 -0.2427  0.1746  0.1453
  144SAPE   H9X15843   5.672   3.597   9.462  0.7223  0.2235 -1.8460
  144SAPE   H9Y15844   5.554   3.694   9.364  2.3616  0.4263 -0.4202
  144SAPE  C31015845   5.542   3.491   9.305  0.0795 -0.2096  0.4552
  144SAPE  H10X15846   5.440   3.517   9.271  0.4545 -0.4192 -0.8975
  144SAPE  H10Y15847   5.555   3.388   9.344 -0.0450  0.0652  1.2250
  144SAPE  C31115848   5.646   3.503   9.191  0.4173  0.0525 -0.1246
  144SAPE  H11X15849   5.736   3.445   9.220  0.4170  0.3992  0.5852
  144SAPE  H11Y15850   5.679   3.609   9.195  1.7244 -0.3632  0.9398
  144SAPE  C31215851   5.592   3.458   9.057  0.1767 -0.0163  0.2688
  144SAPE  H12X15852   5.533   3.368   9.086 -0.4990  0.3784  0.1428
  144SAPE  H12Y15853   5.669   3.425   8.985  1.7834 -0.3581  2.0600
  144SAPE  C31315854   5.514   3.570   9.001 -0.3306 -0.6806 -0.3213
  144SAPE  H13X15855   5.572   3.632   8.930  0.3149 -0.9998 -0.0833
  144SAPE  H13Y15856   5.500   3.642   9.085  0.1337  1.1604 -1.7737
  144SAPE  C31415857   5.386   3.537   8.939  0.0741 -0.2241 -0.0796
  144SAPE  H14X15858   5.320   3.498   9.020  0.7013  1.0292  1.0794
  144SAPE  H14Y15859   5.401   3.466   8.856  0.9867  2.5273 -2.4469
  144SAPE  C31515860   5.299   3.655   8.893 -0.0805 -0.5441  1.0052
  144SAPE  H15X15861   5.355   3.707   8.813 -0.9714  1.4328  1.5970
  144SAPE  H15Y15862   5.297   3.729   8.977  2.3826  0.0666  0.5938
  144SAPE  C31615863   5.165   3.609   8.832 -0.3792 -0.9272  0.1950
  144SAPE  H16X15864   5.103   3.554   8.906  0.4568 -1.8716  0.2213
  144SAPE  H16Y15865   5.187   3.539   8.748 -0.5103 -2.2157  1.2050
  144SAPE  C31715866   5.094   3.724   8.765  0.1371 -0.6442 -0.2350
  144SAPE  H17X15867   5.102   3.820   8.820 -0.6086  0.3392 -1.7551
  144SAPE  H17Y15868   4.987   3.703   8.744 -0.3594  1.3269  0.1059
  144SAPE  C31815869   5.143   3.748   8.625  0.1182  0.1458 -0.0978
  144SAPE  H18X15870   5.063   3.793   8.563 -1.2265  0.1058  1.5443
  144SAPE  H18Y15871   5.158   3.652   8.570 -2.0912 -0.6682  0.6314
  144SAPE  H18Z15872   5.233   3.813   8.620 -0.8040  1.8373  2.9588
  145SAPE     N15873   1.938   3.088  10.953 -0.2821 -0.1621 -0.0520
  145SAPE   HN115874   2.018   3.022  10.942  2.1753  2.4198  1.0258
  145SAPE   HN215875   1.900   3.071  11.048 -0.5015  1.2569  0.1424
  145SAPE   HN315876   1.864   3.062  10.885 -0.6317 -2.8971  1.2688
  145SAPE   C1215877   1.982   3.228  10.937  0.3727  0.3973 -0.0969
  145SAPE  H12A15878   2.093   3.222  10.932  0.2496 -2.9083 -2.5922
  145SAPE  H12B15879   1.946   3.296  11.018 -1.3603 -1.3577  0.7021
  145SAPE   C1115880   1.929   3.289  10.802  0.8456 -0.0348 -1.1067
  145SAPE  H11A15881   1.979   3.233  10.720 -0.2266 -0.9632 -1.1578
  145SAPE  H11B15882   1.953   3.397  10.802 -1.1086  0.4393 -0.9077
  145SAPE     P15883   1.672   3.387  10.807  0.2842 -0.0572 -0.7918
  145SAPE   O1315884   1.580   3.351  10.918  0.0767 -0.0671 -0.1155
  145SAPE   O1415885   1.736   3.522  10.805 -0.4420  0.4884  0.3952
  145SAPE   O1215886   1.793   3.276  10.792 -0.3216 -0.4658 -0.0506
  145SAPE   O1115887   1.602   3.369  10.670 -0.4118  0.0814  0.1445
  145SAPE    C115888   1.597   3.251  10.592  0.6001  0.1767  0.5725
  145SAPE    HA15889   1.595   3.161  10.656  0.3924  1.3652  2.2911
  145SAPE    HB15890   1.519   3.254  10.512  0.2135 -0.8420  0.8905
  145SAPE    C215891   1.713   3.248  10.489  0.2675 -0.4494  0.4497
  145SAPE    HS15892   1.804   3.264  10.551 -0.1200 -0.2808  0.9788
  145SAPE   O2115893   1.693   3.362  10.401  0.4085 -0.0676  0.3118
  145SAPE   C2115894   1.800   3.434  10.376  0.0470 -0.5044  0.2356
  145SAPE   O2215895   1.915   3.395  10.385 -0.5167 -0.0813 -0.3489
  145SAPE   C2215896   1.758   3.564  10.302 -0.0401  0.4106 -0.0397
  145SAPE   H2R15897   1.793   3.563  10.197 -0.5908 -0.5131 -0.2336
  145SAPE   H2S15898   1.650   3.561  10.275  0.3179  0.1370 -1.5118
  145SAPE    C315899   1.726   3.119  10.406  0.2371  0.0417 -0.7798
  145SAPE    HX15900   1.626   3.087  10.368  1.0072 -0.7708 -2.2190
  145SAPE    HY15901   1.747   3.032  10.473 -0.6973 -0.1110 -0.6739
  145SAPE   O3115902   1.820   3.124  10.293  0.6870  0.2444 -0.7080
  145SAPE   C3115903   1.945   3.098  10.320  0.4978 -0.0901 -0.0040
  145SAPE   O3215904   1.993   3.092  10.437 -0.2424  0.2453  0.1454
  145SAPE   C3215905   2.018   3.041  10.196 -0.6320  0.2107 -0.2662
  145SAPE   H2X15906   1.954   2.965  10.147  0.2203  1.0225 -2.8197
  145SAPE   H2Y15907   2.107   2.987  10.237 -0.0146  1.2352 -0.2232
  145SAPE   C2315908   1.802   3.698  10.365 -0.4112  0.0251 -0.3309
  145SAPE   H3R15909   1.911   3.690  10.382 -0.5894  1.6642  2.2329
  145SAPE   H3S15910   1.742   3.701  10.459  1.3703 -1.9561  0.9490
  145SAPE   C2415911   1.776   3.825  10.291  0.2377  0.2492 -0.3140
  145SAPE   H4R15912   1.857   3.831  10.215  0.2101 -1.3037 -0.5155
  145SAPE   H4S15913   1.788   3.909  10.362 -0.7148 -1.5373  2.1059
  145SAPE   C2515914   1.643   3.844  10.230 -0.4597 -0.3496  0.5258
  145SAPE   H5R15915   1.566   3.855  10.308  1.1558  0.6194  2.0525
  145SAPE   C2615916   1.616   3.848  10.098 -0.6530 -0.2232  0.3159
  145SAPE   H6R15917   1.510   3.854  10.066  0.1539 -2.1014 -3.2129
  145SAPE   C2715918   1.704   3.829   9.976  0.4712 -0.5347  0.2643
  145SAPE   H7R15919   1.793   3.770  10.007  0.9800 -1.3830 -2.5523
  145SAPE   H7S15920   1.734   3.933   9.950  3.3786 -0.7699  2.1336
  145SAPE   C2815921   1.631   3.764   9.857 -0.3800  0.1511  0.4612
  145SAPE   H8R15922   1.553   3.691   9.880 -4.0392  2.8280 -2.2156
  145SAPE   C2915923   1.641   3.803   9.730  0.8006 -0.5577 -0.5698
  145SAPE   H9R15924   1.589   3.745   9.652  1.8344 -1.3209 -0.7175
  145SAPE  C21015925   1.730   3.910   9.688 -0.2849  0.1631  0.3648
  145SAPE  H10R15926   1.837   3.885   9.671  0.2594  2.0252  0.8207
  145SAPE  H10S15927   1.755   3.988   9.763  0.0360  0.3890  0.0261
  145SAPE  C21115928   1.659   3.982   9.578 -0.3728  0.0080  0.6116
  145SAPE  H11R15929   1.608   4.074   9.609  1.5294  1.3199  0.0543
  145SAPE  C21215930   1.682   3.954   9.448 -0.1611 -0.1585  0.2070
  145SAPE  H12R15931   1.617   4.013   9.383 -1.6226 -1.5601  0.3314
  145SAPE  C21315932   1.773   3.846   9.389  0.0413  0.2077 -0.2931
  145SAPE  H13R15933   1.713   3.796   9.310  0.5761  0.9357 -1.1841
  145SAPE  H13S15934   1.776   3.765   9.464 -2.4058  1.5755  1.4065
  145SAPE  C21415935   1.900   3.894   9.323  0.2523  0.0074  0.7598
  145SAPE  H14R15936   1.984   3.906   9.392  0.6102  1.8322  0.0461
  145SAPE  C21515937   1.898   3.927   9.189  0.3830  0.1670 -0.1183
  145SAPE  H15R15938   1.993   3.954   9.141  0.2068 -1.0514 -1.2196
  145SAPE  C21615939   1.778   3.909   9.095 -0.0485  0.2807 -0.3552
  145SAPE  H16R15940   1.684   3.946   9.141  0.3563  0.2213  0.5544
  145SAPE  H16S15941   1.760   3.801   9.075  0.8930  0.2905 -1.3659
  145SAPE  C21715942   1.802   3.990   8.966  1.4660 -0.3227 -0.3487
  145SAPE  H17R15943   1.821   4.092   9.006 -3.2012  0.9722 -0.8811
  145SAPE  H17S15944   1.706   3.996   8.909  0.1304  0.8081  1.8880
  145SAPE  C21815945   1.894   3.933   8.862  0.2526  0.2619 -0.2631
  145SAPE  H18R15946   1.996   3.945   8.904  0.5498 -0.1488 -0.8422
  145SAPE  H18S15947   1.876   3.986   8.766 -2.7322  0.2865  0.2319
  145SAPE  C21915948   1.869   3.791   8.830 -0.2046  1.3364 -0.2482
  145SAPE  H19R15949   1.759   3.781   8.832 -0.3555  2.5437 -1.1391
  145SAPE  H19S15950   1.895   3.719   8.911 -2.2490  2.1660  1.2309
  145SAPE  C22015951   1.927   3.743   8.701 -1.1649 -0.3990  0.0884
  145SAPE  H20R15952   1.880   3.783   8.609  0.9994  2.5989  0.1489
  145SAPE  H20S15953   1.910   3.633   8.692 -0.1926 -0.5922  0.4897
  145SAPE  H20T15954   2.037   3.751   8.705 -1.2494  0.6212  2.5384
  145SAPE   C3315955   2.053   3.145  10.087  0.5172 -0.3943 -0.5497
  145SAPE   H3X15956   2.133   3.207  10.132  0.6461  0.0343 -1.3537
  145SAPE   H3Y15957   1.963   3.202  10.057  0.1002 -0.4098  0.6121
  145SAPE   C3415958   2.102   3.079   9.964  0.4529  0.2770 -0.0909
  145SAPE   H4X15959   2.025   3.007   9.931 -0.4932  2.1256 -2.1388
  145SAPE   H4Y15960   2.189   3.013   9.988 -0.6101 -1.3450 -0.5422
  145SAPE   C3515961   2.119   3.164   9.837  0.5394  0.3841  0.4593
  145SAPE   H5X15962   2.191   3.247   9.850  1.5458 -0.2517 -0.8153
  145SAPE   H5Y15963   2.023   3.215   9.814  0.8173  0.7126  0.0187
  145SAPE   C3615964   2.154   3.068   9.719  0.2591 -0.1108  0.1729
  145SAPE   H6X15965   2.091   2.977   9.721  1.3966 -0.9194 -0.0612
  145SAPE   H6Y15966   2.259   3.031   9.714  1.0309  2.0080 -0.6460
  145SAPE   C3715967   2.133   3.137   9.582  0.0036  0.0353  0.0668
  145SAPE   H7X15968   2.196   3.229   9.573 -1.1326  0.7321 -1.1256
  145SAPE   H7Y15969   2.031   3.174   9.557  0.3932 -0.6276 -2.9818
  145SAPE   C3815970   2.162   3.036   9.469 -0.5895 -0.0405 -0.6580
  145SAPE   H8X15971   2.122   2.934   9.488 -0.7911  0.2926  0.8465
  145SAPE   H8Y15972   2.272   3.025   9.461 -0.2750  0.5774  1.9928
  145SAPE   C3915973   2.111   3.079   9.329 -0.6197  0.2848 -0.6308
  145SAPE   H9X15974   2.153   3.181   9.317  0.8556 -0.0066  1.5244
  145SAPE   H9Y15975   2.000   3.069   9.326 -0.5831 -1.2036  1.1728
  145SAPE  C31015976   2.167   2.984   9.219  0.7093 -0.1280  0.0815
  145SAPE  H10X15977   2.117   2.886   9.227 -0.8641  0.3333 -2.7697
  145SAPE  H10Y15978   2.278   2.980   9.221  0.7914  0.4380 -1.5919
  145SAPE  C31115979   2.125   3.047   9.083  0.2695  0.1825  0.6085
  145SAPE  H11X15980   2.175   3.146   9.075 -0.5848  0.7330  1.8016
  145SAPE  H11Y15981   2.016   3.070   9.077  0.1280 -0.8246 -1.8749
  145SAPE  C31215982   2.170   2.964   8.969  0.5601  0.1057  0.3304
  145SAPE  H12X15983   2.146   2.858   8.995  3.6880 -0.6123  0.6845
  145SAPE  H12Y15984   2.279   2.976   8.952  0.3713  0.7402 -0.5051
  145SAPE  C31315985   2.108   3.001   8.825  0.2040  0.0164  0.1287
  145SAPE  H13X15986   2.145   2.924   8.755  0.5986  1.2614 -1.0770
  145SAPE  H13Y15987   2.148   3.102   8.799  0.1287 -0.1833 -0.7893
  145SAPE  C31415988   1.960   3.019   8.826  0.5587 -0.7466  0.5013
  145SAPE  H14X15989   1.936   3.108   8.889 -1.9222 -1.6992  1.0113
  145SAPE  H14Y15990   1.909   2.934   8.876  1.5384 -1.9471 -0.4875
  145SAPE  C31515991   1.899   3.045   8.685 -0.7348 -0.3593  0.3011
  145SAPE  H15X15992   1.934   2.951   8.638 -2.1359 -1.0496  0.5744
  145SAPE  H15Y15993   1.937   3.136   8.634  0.2365 -0.6728  0.4444
  145SAPE  C31615994   1.742   3.043   8.672  0.3776 -0.4617  0.5500
  145SAPE  H16X15995   1.702   3.114   8.748 -2.4637  2.1283 -2.9580
  145SAPE  H16Y15996   1.698   2.943   8.692  2.0301 -1.3091  0.1195
  145SAPE  C31715997   1.698   3.092   8.531  0.2653  0.0151 -0.5324
  145SAPE  H17X15998   1.757   3.040   8.453 -0.4129  0.9203 -1.6865
  145SAPE  H17Y15999   1.728   3.199   8.534 -0.0065  0.1268 -1.4125
  145SAPE  C31816000   1.548   3.075   8.500  0.8835  0.1168 -0.2852
  145SAPE  H18X16001   1.535   2.968   8.473 -1.2817  0.8280 -2.4180
  145SAPE  H18Y16002   1.505   3.133   8.416  1.3823 -1.8590 -1.9696
  145SAPE  H18Z16003   1.499   3.111   8.594 -0.2248 -0.1396 -0.7448
  146SAPE     N16004   6.754   2.137  10.610 -0.1890 -0.6250  0.9044
  146SAPE   HN116005   6.754   2.093  10.704  0.4126  0.2996  1.3470
  146SAPE   HN216006   6.819   2.217  10.606  1.2156 -1.6222  2.4016
  146SAPE   HN316007   6.662   2.164  10.570  1.6847  1.5760 -2.4544
  146SAPE   C1216008   6.835   2.064  10.503 -0.3091  0.6872  0.5388
  146SAPE  H12A16009   6.941   2.078  10.531  0.9753 -2.1751 -2.3497
  146SAPE  H12B16010   6.815   2.123  10.411  0.4366  0.9036  0.5111
  146SAPE   C1116011   6.805   1.916  10.505  0.0031  0.1602  0.3909
  146SAPE  H11A16012   6.838   1.871  10.408 -1.4101  0.3942 -0.2266
  146SAPE  H11B16013   6.695   1.904  10.491 -0.1505  2.7048 -1.2575
  146SAPE     P16014   6.832   1.702  10.655  0.3668 -0.4677 -0.1007
  146SAPE   O1316015   6.957   1.623  10.673 -0.5750  0.6196  0.2104
  146SAPE   O1416016   6.732   1.701  10.766  0.4184  0.4296 -0.3600
  146SAPE   O1216017   6.863   1.848  10.618  0.4651 -0.4301  0.2204
  146SAPE   O1116018   6.763   1.660  10.520 -0.1133  0.1119 -0.1978
  146SAPE    C116019   6.725   1.522  10.500 -0.1743 -0.1630  0.0849
  146SAPE    HA16020   6.684   1.481  10.594 -1.5942  1.9406  0.4542
  146SAPE    HB16021   6.640   1.520  10.428 -0.9267 -3.0961  0.9315
  146SAPE    C216022   6.846   1.434  10.449 -0.2655  0.8127  0.7335
  146SAPE    HS16023   6.920   1.436  10.532 -0.2021  0.0886  0.6989
  146SAPE   O2116024   6.894   1.483  10.322  0.1025 -0.1217 -0.3889
  146SAPE   C2116025   7.023   1.473  10.310  0.0552 -0.0888  0.0295
  146SAPE   O2216026   7.093   1.405  10.383  0.4069 -0.0236 -0.6342
  146SAPE   C2216027   7.073   1.536  10.173  0.0728  0.2775 -0.0958
  146SAPE   H2R16028   7.023   1.488  10.086  0.3138 -2.1038  0.9899
  146SAPE   H2S16029   7.042   1.643  10.177  2.3637  1.0317 -0.9427
  146SAPE    C316030   6.809   1.283  10.422 -0.3361 -0.2713 -1.0890
  146SAPE    HX16031   6.803   1.241  10.524 -2.0349  1.1650 -0.5425
  146SAPE    HY16032   6.898   1.234  10.377 -0.1169 -0.5496 -0.3643
  146SAPE   O3116033   6.683   1.267  10.360  0.0743 -0.1909 -0.1552
  146SAPE   C3116034   6.691   1.246  10.230 -0.6837 -0.0394 -0.9794
  146SAPE   O3216035   6.794   1.236  10.166  0.1329 -0.1858 -0.2511
  146SAPE   C3216036   6.550   1.233  10.168 -0.0184  0.0475 -0.5097
  146SAPE   H2X16037   6.519   1.329  10.121  0.7087 -0.3205 -1.7916
  146SAPE   H2Y16038   6.467   1.234  10.242 -1.1077  3.0044 -1.6098
  146SAPE   C2316039   7.223   1.513  10.146  0.1551  0.3828 -0.0611
  146SAPE   H3R16040   7.251   1.406  10.145 -1.3773 -0.0395  0.3108
  146SAPE   H3S16041   7.276   1.585  10.212  0.2480  1.7933 -1.6121
  146SAPE   C2416042   7.264   1.569  10.009 -0.4771 -0.0307  0.1154
  146SAPE   H4R16043   7.194   1.534   9.931 -0.1753 -0.5012  0.0501
  146SAPE   H4S16044   7.358   1.513   9.987 -0.7967  0.2730 -2.2773
  146SAPE   C2516045   7.290   1.719  10.004 -0.1462 -0.9932  0.1840
  146SAPE   H5R16046   7.317   1.772  10.097  1.9326  0.0186 -0.9327
  146SAPE   C2616047   7.293   1.796   9.896  0.0270 -0.1965  0.3100
  146SAPE   H6R16048   7.304   1.903   9.920 -0.8845 -0.2252  0.8873
  146SAPE   C2716049   7.257   1.753   9.757 -0.1970  0.7944 -0.4112
  146SAPE   H7R16050   7.228   1.844   9.701  1.5095  0.2796 -2.2138
  146SAPE   H7S16051   7.160   1.699   9.759  1.3143 -2.1530 -2.1119
  146SAPE   C2816052   7.356   1.665   9.683  0.2007  0.6477  0.8246
  146SAPE   H8R16053   7.421   1.606   9.749  0.3174 -1.5076 -1.1347
  146SAPE   C2916054   7.371   1.639   9.549  0.8589  0.2144  0.3989
  146SAPE   H9R16055   7.429   1.548   9.526  0.3927 -0.8439  2.9860
  146SAPE  C21016056   7.287   1.705   9.442 -0.0560 -0.5706 -0.0472
  146SAPE  H10R16057   7.347   1.767   9.372 -2.1884 -0.5593 -1.9897
  146SAPE  H10S16058   7.206   1.762   9.492  1.8753  1.8791  0.5113
  146SAPE  C21116059   7.216   1.602   9.365  0.4251 -0.2498  0.8633
  146SAPE  H11R16060   7.124   1.560   9.408 -2.0306  3.5978 -0.1545
  146SAPE  C21216061   7.259   1.560   9.247 -0.3098  0.1595 -0.2045
  146SAPE  H12R16062   7.204   1.475   9.205  2.6959 -1.4225 -1.2112
  146SAPE  C21316063   7.384   1.590   9.171  0.0002  0.2077  0.1807
  146SAPE  H13R16064   7.432   1.685   9.201  1.8233 -0.0062 -1.8246
  146SAPE  H13S16065   7.352   1.609   9.066  0.4895  2.3114  0.3651
  146SAPE  C21416066   7.478   1.473   9.163  0.7262  0.5135 -0.4837
  146SAPE  H14R16067   7.464   1.392   9.236 -1.3071  0.6397 -0.6785
  146SAPE  C21516068   7.586   1.461   9.090  0.0956  0.2338  0.4457
  146SAPE  H15R16069   7.659   1.381   9.106 -0.9298 -0.6350  0.8609
  146SAPE  C21616070   7.638   1.569   8.996 -1.3429  0.2193 -0.4085
  146SAPE  H16R16071   7.567   1.653   8.979  0.0750  1.5907  0.2042
  146SAPE  H16S16072   7.641   1.524   8.894  2.2663  1.1593 -0.8587
  146SAPE  C21716073   7.777   1.630   9.032  0.1022  0.1992  0.2386
  146SAPE  H17R16074   7.850   1.546   9.026  0.4608  0.6273 -2.3657
  146SAPE  H17S16075   7.773   1.677   9.133 -5.1260  0.4754  0.1898
  146SAPE  C21816076   7.832   1.724   8.921 -0.1495  0.0128  0.1783
  146SAPE  H18R16077   7.751   1.784   8.873  0.4007 -0.2762 -1.1670
  146SAPE  H18S16078   7.871   1.662   8.837 -0.0876 -0.7262  0.7443
  146SAPE  C21916079   7.950   1.816   8.966  0.4287  0.0806  0.3373
  146SAPE  H19R16080   7.901   1.888   9.036 -1.7919  1.0647 -2.0178
  146SAPE  H19S16081   7.982   1.896   8.896 -0.0259  0.5138  0.6191
  146SAPE  C22016082   8.067   1.746   9.023 -0.1966 -0.3651 -0.2693
  146SAPE  H20R16083   8.098   1.665   8.954  0.6671  0.1241 -0.4632
  146SAPE  H20S16084   8.035   1.714   9.125 -0.6508  0.6773 -0.0699
  146SAPE  H20T16085   8.153   1.816   9.032  0.5064 -1.1113 -1.0976
  146SAPE   C3316086   6.546   1.117  10.070 -0.4482 -0.5387  0.2051
  146SAPE   H3X16087   6.441   1.085  10.051 -1.1660  0.5259  2.1240
  146SAPE   H3Y16088   6.591   1.025  10.113 -1.5684 -1.2543 -0.0849
  146SAPE   C3416089   6.586   1.148   9.930 -0.4142 -0.5573 -0.9228
  146SAPE   H4X16090   6.688   1.192   9.938 -1.6225  2.0306  1.9064
  146SAPE   H4Y16091   6.526   1.232   9.889  0.6908  2.4068  3.0252
  146SAPE   C3516092   6.573   1.036   9.830 -0.0155  0.6041  0.0542
  146SAPE   H5X16093   6.467   1.005   9.817  0.1520 -0.2806  0.6864
  146SAPE   H5Y16094   6.622   0.943   9.863  0.5554  1.3254  1.2891
  146SAPE   C3616095   6.624   1.072   9.691  0.3637 -0.9487 -0.6832
  146SAPE   H6X16096   6.733   1.088   9.698  0.1651  0.7999 -0.9888
  146SAPE   H6Y16097   6.579   1.172   9.671  2.0761 -0.7334 -4.3061
  146SAPE   C3716098   6.599   0.969   9.583 -0.6664  0.2754  0.3684
  146SAPE   H7X16099   6.490   0.955   9.573 -0.4184 -1.2085 -0.4624
  146SAPE   H7Y16100   6.648   0.879   9.627 -2.2281 -0.3843  0.8193
  146SAPE   C3816101   6.662   1.006   9.448  0.2552  0.0597  0.5527
  146SAPE   H8X16102   6.772   1.025   9.456  0.6136 -2.0890  1.5285
  146SAPE   H8Y16103   6.620   1.106   9.423 -0.1689 -0.4519 -0.8771
  146SAPE   C3916104   6.617   0.926   9.324 -0.2397 -0.1941 -0.2694
  146SAPE   H9X16105   6.508   0.946   9.310 -0.4031 -1.3045 -0.6980
  146SAPE   H9Y16106   6.625   0.816   9.338 -0.1992 -0.0595  0.8195
  146SAPE  C31016107   6.681   0.965   9.190 -0.9318  0.2864  0.1412
  146SAPE  H10X16108   6.790   0.947   9.197 -1.0546 -1.4460 -1.5353
  146SAPE  H10Y16109   6.667   1.072   9.163 -2.0345  0.1409  0.0727
  146SAPE  C31116110   6.635   0.870   9.076  0.3845 -0.4476  0.3296
  146SAPE  H11X16111   6.655   0.765   9.108  0.3442 -1.2602 -2.1119
  146SAPE  H11Y16112   6.701   0.876   8.987 -0.2187 -1.4345 -0.2097
  146SAPE  C31216113   6.490   0.864   9.031 -0.6201 -0.3608 -0.2418
  146SAPE  H12X16114   6.443   0.964   9.027 -0.3716 -0.2840 -2.0658
  146SAPE  H12Y16115   6.428   0.806   9.103 -2.6036  0.1601 -1.4364
  146SAPE  C31316116   6.477   0.791   8.898 -0.3491 -0.5499 -0.2990
  146SAPE  H13X16117   6.529   0.693   8.896  0.0912 -0.3168 -1.6904
  146SAPE  H13Y16118   6.530   0.850   8.820 -1.6711  0.7252 -0.2762
  146SAPE  C31416119   6.331   0.775   8.857 -0.2855  0.2603 -0.4005
  146SAPE  H14X16120   6.275   0.871   8.851  1.9248  1.5895 -0.8706
  146SAPE  H14Y16121   6.299   0.714   8.944 -0.6882  2.2499  0.9246
  146SAPE  C31516122   6.315   0.691   8.724  0.7918 -0.1865 -0.0764
  146SAPE  H15X16123   6.415   0.647   8.703  1.4667  2.0005 -1.8655
  146SAPE  H15Y16124   6.285   0.761   8.643  0.6610  0.0321  0.1591
  146SAPE  C31616125   6.212   0.581   8.752 -0.9189 -0.3611 -0.1092
  146SAPE  H16X16126   6.113   0.609   8.796  0.1938 -0.0173  2.3402
  146SAPE  H16Y16127   6.246   0.499   8.819  0.6045  0.0610 -0.3425
  146SAPE  C31716128   6.187   0.505   8.624  0.5412 -0.3617  0.3850
  146SAPE  H17X16129   6.141   0.569   8.546 -1.8130 -1.8801  0.4224
  146SAPE  H17Y16130   6.098   0.441   8.647 -0.1337  0.5841  0.4502
  146SAPE  C31816131   6.311   0.429   8.583  0.3150  0.2281  0.3973
  146SAPE  H18X16132   6.377   0.495   8.523 -2.9177  1.7673 -1.7918
  146SAPE  H18Y16133   6.275   0.347   8.516 -3.0350  0.5899  1.5891
  146SAPE  H18Z16134   6.360   0.379   8.669 -2.6631 -1.1870  1.4264
  147SAPE     N16135   4.568   4.082   5.928  0.0929  0.2606  0.2201
  147SAPE   HN116136   4.632   4.027   5.867 -0.1177  1.5640 -1.2459
  147SAPE   HN216137   4.495   4.017   5.963 -0.8462  0.1346 -1.8306
  147SAPE   HN316138   4.530   4.156   5.865  1.8033  2.0983  1.2431
  147SAPE   C1216139   4.648   4.147   6.035  0.0205  0.1716 -0.4560
  147SAPE  H12A16140   4.584   4.206   6.104 -1.6952 -1.9993 -0.0650
  147SAPE  H12B16141   4.723   4.209   5.982 -0.4464  0.7436 -0.4568
  147SAPE   C1116142   4.727   4.049   6.121 -0.4398  0.2627  0.3778
  147SAPE  H11A16143   4.802   4.113   6.172 -0.1237  1.5481 -1.5739
  147SAPE  H11B16144   4.781   3.983   6.049 -1.0938  2.0847 -1.9138
  147SAPE     P16145   4.676   3.829   6.242  0.1530  0.5478 -0.0408
  147SAPE   O1316146   4.579   3.738   6.174  0.3676 -0.6614 -0.7210
  147SAPE   O1416147   4.818   3.787   6.226  0.8965 -0.3286  0.6115
  147SAPE   O1216148   4.642   3.980   6.209 -0.8852 -0.2282 -0.4149
  147SAPE   O1116149   4.645   3.815   6.395 -0.6838 -0.0982  0.1307
  147SAPE    C116150   4.610   3.919   6.480  0.7393  0.5009 -0.1545
  147SAPE    HA16151   4.683   4.002   6.467  2.4397 -0.6032  1.7793
  147SAPE    HB16152   4.510   3.962   6.456  0.7764  0.3571 -0.5770
  147SAPE    C216153   4.603   3.858   6.627 -0.1383  0.7205 -0.4535
  147SAPE    HS16154   4.565   3.937   6.696 -3.5172 -1.4668  0.4174
  147SAPE   O2116155   4.727   3.811   6.676 -0.4667  0.1466  0.1210
  147SAPE   C2116156   4.814   3.906   6.708  0.2523 -0.5207  0.0786
  147SAPE   O2216157   4.787   4.028   6.700  0.4180 -0.4099  0.0238
  147SAPE   C2216158   4.950   3.856   6.764  1.0558 -0.0729  0.4779
  147SAPE   H2R16159   4.986   3.784   6.687  1.7956 -0.8863  1.5466
  147SAPE   H2S16160   5.026   3.937   6.762  1.7918 -0.7198  1.3188
  147SAPE    C316161   4.496   3.749   6.642  0.2395  0.1189 -0.4431
  147SAPE    HX16162   4.529   3.662   6.581 -0.4014  1.1215 -2.3118
  147SAPE    HY16163   4.413   3.791   6.582 -0.0015  1.6843  0.9225
  147SAPE   O3116164   4.455   3.728   6.776 -0.1204 -0.0682 -0.0259
  147SAPE   C3116165   4.370   3.627   6.792 -0.6091  0.3640 -0.3804
  147SAPE   O3216166   4.312   3.570   6.706  0.2303 -0.3758  0.3033
  147SAPE   C3216167   4.346   3.601   6.937  0.2064 -0.3329 -0.8216
  147SAPE   H2X16168   4.382   3.499   6.962 -1.0440 -0.5689  0.1472
  147SAPE   H2Y16169   4.236   3.603   6.953  0.3333 -0.3165  0.0974
  147SAPE   C2316170   4.949   3.772   6.898 -0.5301 -0.2745 -0.2345
  147SAPE   H3R16171   5.045   3.721   6.922  0.5426  0.7073 -2.1826
  147SAPE   H3S16172   4.864   3.702   6.890 -0.3960 -0.3790 -0.7809
  147SAPE   C2416173   4.909   3.853   7.025 -0.4835  0.0246 -0.0699
  147SAPE   H4R16174   4.903   3.785   7.112 -1.7646  0.7382  0.4174
  147SAPE   H4S16175   4.814   3.910   7.029 -0.7441 -0.3893 -0.3721
  147SAPE   C2516176   5.032   3.937   7.056  0.4434  0.4978 -0.1331
  147SAPE   H5R16177   5.116   3.877   7.091 -1.3846 -2.8029 -0.9973
  147SAPE   C2616178   5.037   4.068   7.052 -0.2071 -0.2830  0.4353
  147SAPE   H6R16179   5.132   4.117   7.075 -0.7633 -0.2116  2.8706
  147SAPE   C2716180   4.920   4.157   7.012  0.0078  0.5711 -0.6773
  147SAPE   H7R16181   4.906   4.230   7.095  1.0098  0.4700 -0.4044
  147SAPE   H7S16182   4.830   4.095   6.994  0.5357 -0.7607  1.0365
  147SAPE   C2816183   4.940   4.239   6.893 -0.2209  0.7565  0.0877
  147SAPE   H8R16184   4.983   4.183   6.809  1.3654 -0.1100  1.4132
  147SAPE   C2916185   4.890   4.364   6.872 -0.0878 -0.9886 -0.3462
  147SAPE   H9R16186   4.928   4.410   6.779  0.6453  0.3685  0.6018
  147SAPE  C21016187   4.806   4.442   6.967  0.0011  0.5727 -0.7514
  147SAPE  H10R16188   4.859   4.499   7.046 -1.0575 -1.2117  1.3584
  147SAPE  H10S16189   4.748   4.370   7.029  0.1648  0.1952 -1.0288
  147SAPE  C21116190   4.708   4.520   6.881 -0.2524  0.5750 -0.1977
  147SAPE  H11R16191   4.659   4.471   6.795  0.1089  3.6640 -2.3173
  147SAPE  C21216192   4.685   4.651   6.897 -0.3671  0.9639  0.1430
  147SAPE  H12R16193   4.617   4.707   6.830 -0.3985  2.0365  1.0483
  147SAPE  C21316194   4.737   4.734   7.013 -0.0954 -0.0662 -0.3209
  147SAPE  H13R16195   4.757   4.835   6.973  0.0343  0.2989  0.6399
  147SAPE  H13S16196   4.834   4.703   7.057 -0.1418 -0.2107 -0.3189
  147SAPE  C21416197   4.647   4.726   7.123  0.6741 -0.2243 -0.2462
  147SAPE  H14R16198   4.624   4.624   7.156 -1.0013  1.1663  3.4217
  147SAPE  C21516199   4.594   4.832   7.188 -0.8132  0.1549 -0.3140
  147SAPE  H15R16200   4.533   4.806   7.275  0.3215  0.8530  0.7152
  147SAPE  C21616201   4.604   4.981   7.153  0.7425  0.9383 -0.3340
  147SAPE  H16R16202   4.503   5.019   7.130  1.1317  1.9841 -0.3740
  147SAPE  H16S16203   4.686   5.002   7.081  2.4275  1.8977  1.7597
  147SAPE  C21716204   4.636   5.048   7.285 -0.2399  0.0370 -0.2744
  147SAPE  H17R16205   4.740   5.024   7.316 -0.1507  0.2765 -0.3851
  147SAPE  H17S16206   4.576   4.998   7.364  1.7392 -1.8868  0.1070
  147SAPE  C21816207   4.625   5.201   7.293  0.4100  0.2210 -0.5352
  147SAPE  H18R16208   4.551   5.232   7.216  0.1911  2.1159  0.3663
  147SAPE  H18S16209   4.726   5.240   7.268  1.4301 -1.2753  1.0358
  147SAPE  C21916210   4.592   5.238   7.442 -0.5838 -0.6734 -0.7482
  147SAPE  H19R16211   4.622   5.344   7.456  2.4538 -1.7582  2.6870
  147SAPE  H19S16212   4.670   5.176   7.492 -2.1255 -2.3110 -0.3048
  147SAPE  C22016213   4.452   5.212   7.486  0.4936 -0.7659  0.1622
  147SAPE  H20R16214   4.418   5.114   7.446 -1.3877 -0.4377  0.8949
  147SAPE  H20S16215   4.391   5.282   7.426  1.7541 -0.4091 -0.7645
  147SAPE  H20T16216   4.433   5.219   7.595 -1.4560 -0.5593 -0.1598
  147SAPE   C3316217   4.419   3.697   7.038  0.0122 -0.5085  0.0676
  147SAPE   H3X16218   4.391   3.805   7.040  1.8926  0.2192 -3.5593
  147SAPE   H3Y16219   4.528   3.694   7.017 -0.4245 -1.0820 -2.4337
  147SAPE   C3416220   4.380   3.651   7.183 -0.0954 -0.1795 -0.1545
  147SAPE   H4X16221   4.276   3.613   7.182  0.2075 -1.1981  1.9165
  147SAPE   H4Y16222   4.381   3.727   7.264  1.5578 -0.3868  0.0460
  147SAPE   C3516223   4.453   3.527   7.241 -0.1836 -0.1990 -0.2180
  147SAPE   H5X16224   4.559   3.562   7.241 -0.7592  1.7726 -2.1043
  147SAPE   H5Y16225   4.446   3.449   7.162 -0.6386  2.7263 -3.3105
  147SAPE   C3616226   4.391   3.477   7.377 -0.4715  0.7816 -0.3856
  147SAPE   H6X16227   4.459   3.394   7.406 -0.6400  0.9406  0.4952
  147SAPE   H6Y16228   4.284   3.448   7.367 -1.1957  2.6041  1.5854
  147SAPE   C3716229   4.397   3.577   7.495 -0.0264  0.5110 -0.5512
  147SAPE   H7X16230   4.291   3.596   7.521  0.3093  0.3794  0.9753
  147SAPE   H7Y16231   4.444   3.670   7.454  2.6601 -0.5566 -0.0853
  147SAPE   C3816232   4.464   3.521   7.624  0.0524 -0.2831 -0.7456
  147SAPE   H8X16233   4.404   3.440   7.672 -0.9327  1.6249  1.4183
  147SAPE   H8Y16234   4.457   3.609   7.691  2.2717 -0.8692  0.3355
  147SAPE   C3916235   4.612   3.491   7.611  0.4663  0.1329  0.8349
  147SAPE   H9X16236   4.664   3.586   7.586 -0.4628  1.0551  2.2396
  147SAPE   H9Y16237   4.637   3.425   7.526  0.2077 -0.1063  0.9431
  147SAPE  C31016238   4.692   3.455   7.745  0.2393  0.1128  0.3559
  147SAPE  H10X16239   4.802   3.459   7.729  0.2203 -1.8160 -0.6406
  147SAPE  H10Y16240   4.672   3.345   7.749 -0.6629  0.2124 -0.6585
  147SAPE  C31116241   4.639   3.529   7.871 -0.0344  0.1750  0.6503
  147SAPE  H11X16242   4.532   3.500   7.867  0.0876 -0.1856 -2.1416
  147SAPE  H11Y16243   4.652   3.638   7.851  1.4261  0.0298  0.6912
  147SAPE  C31216244   4.710   3.487   8.005 -0.4069  0.2384 -0.1601
  147SAPE  H12X16245   4.676   3.384   8.030  1.9602 -0.3519  0.8683
  147SAPE  H12Y16246   4.675   3.563   8.077 -2.1255 -0.2087 -0.4825
  147SAPE  C31316247   4.866   3.481   7.996  0.6096 -0.0317  1.0672
  147SAPE  H13X16248   4.905   3.548   7.916  1.3355 -0.2515  1.2332
  147SAPE  H13Y16249   4.911   3.382   7.976  1.3760  0.1600  1.8138
  147SAPE  C31416250   4.943   3.518   8.129  0.2025 -0.0116  0.0035
  147SAPE  H14X16251   4.895   3.464   8.213 -2.1120  2.3684  0.3317
  147SAPE  H14Y16252   4.943   3.628   8.143  0.9221 -0.3080  2.8801
  147SAPE  C31516253   5.092   3.471   8.126  0.7042 -0.0257 -0.5051
  147SAPE  H15X16254   5.136   3.499   8.029 -0.4647 -0.3606 -1.1491
  147SAPE  H15Y16255   5.089   3.362   8.150 -1.6305 -0.6192 -3.0041
  147SAPE  C31616256   5.160   3.548   8.246 -0.7066  0.6870  0.0462
  147SAPE  H16X16257   5.110   3.498   8.332  0.7970 -1.4413 -0.2353
  147SAPE  H16Y16258   5.128   3.654   8.235  0.5461  1.2945  1.8033
  147SAPE  C31716259   5.313   3.511   8.243 -0.7483 -0.6876 -0.1810
  147SAPE  H17X16260   5.362   3.558   8.155  1.0096  2.2537  2.1794
  147SAPE  H17Y16261   5.316   3.402   8.221 -0.5490 -0.8292  0.5258
  147SAPE  C31816262   5.386   3.538   8.374  0.2006 -0.5716 -0.0188
  147SAPE  H18X16263   5.328   3.489   8.455 -3.4355  1.5450 -1.1592
  147SAPE  H18Y16264   5.381   3.648   8.389 -0.9246 -0.6378  0.1167
  147SAPE  H18Z16265   5.490   3.498   8.367 -0.0692 -1.2259 -0.3258
  148SAPE     N16266   4.887   3.040   6.498  0.0678 -0.1664 -0.3487
  148SAPE   HN116267   4.834   3.096   6.429 -1.5401 -1.7914 -0.4955
  148SAPE   HN216268   4.819   2.992   6.561 -0.4581 -0.0696 -0.8429
  148SAPE   HN316269   4.949   3.102   6.553 -1.3939  0.8396  0.2316
  148SAPE   C1216270   4.971   2.940   6.420 -0.4992  0.0076 -0.6602
  148SAPE  H12A16271   4.896   2.890   6.354  1.0277  0.0768 -2.5082
  148SAPE  H12B16272   5.008   2.869   6.498 -0.7688  0.9106  0.3040
  148SAPE   C1116273   5.084   3.012   6.342 -0.0100  0.7626  0.5539
  148SAPE  H11A16274   5.028   3.080   6.274  0.4042  0.9316  0.3790
  148SAPE  H11B16275   5.140   2.935   6.285  0.2474  0.8639  0.6680
  148SAPE     P16276   5.306   3.146   6.392  0.1864 -0.1352  0.2251
  148SAPE   O1316277   5.323   3.170   6.246  0.6446 -0.2282 -0.0079
  148SAPE   O1416278   5.309   3.264   6.480 -0.7191  0.2842  0.2463
  148SAPE   O1216279   5.171   3.078   6.433 -0.4972  0.2676 -0.1977
  148SAPE   O1116280   5.411   3.037   6.440  0.0831  0.3573  0.2648
  148SAPE    C116281   5.369   2.918   6.508  0.4961  0.3118  0.2426
  148SAPE    HA16282   5.311   2.854   6.437 -0.5774  1.6045 -0.0796
  148SAPE    HB16283   5.464   2.868   6.537 -0.2424  0.1938  2.6934
  148SAPE    C216284   5.298   2.930   6.648 -0.0056 -0.8263  0.0531
  148SAPE    HS16285   5.205   2.988   6.633  1.0784  1.0374  0.1867
  148SAPE   O2116286   5.394   2.988   6.734 -0.1962 -0.3851 -0.5395
  148SAPE   C2116287   5.345   3.066   6.827 -0.3296  0.5577  0.4955
  148SAPE   O2216288   5.228   3.103   6.834 -0.7124  0.1532 -0.4896
  148SAPE   C2216289   5.455   3.117   6.921  1.0044 -0.4520 -0.4237
  148SAPE   H2R16290   5.488   3.033   6.985  2.9573  0.0014 -0.7714
  148SAPE   H2S16291   5.541   3.147   6.858  1.9863  2.8822  2.2234
  148SAPE    C316292   5.245   2.799   6.707 -0.5719 -0.4085  0.2155
  148SAPE    HX16293   5.338   2.739   6.719  0.4034  0.6191 -1.7922
  148SAPE    HY16294   5.177   2.753   6.632 -0.5311 -1.2394  0.6635
  148SAPE   O3116295   5.178   2.809   6.831  0.4945  0.2717 -0.6625
  148SAPE   C3116296   5.046   2.819   6.829 -0.1249  0.1665 -0.4832
  148SAPE   O3216297   4.981   2.843   6.729 -0.2307 -0.9895 -0.3394
  148SAPE   C3216298   4.989   2.821   6.973 -0.2520 -0.0650  0.1242
  148SAPE   H2X16299   5.046   2.896   7.032  1.0183 -0.6054 -0.3769
  148SAPE   H2Y16300   5.011   2.718   7.008  3.3469  0.4371 -0.3098
  148SAPE   C2316301   5.403   3.239   7.007 -0.3388  0.2038 -0.0799
  148SAPE   H3R16302   5.329   3.191   7.075  0.4424 -1.4018 -0.3189
  148SAPE   H3S16303   5.358   3.317   6.943  1.4469  0.5916 -0.9142
  148SAPE   C2416304   5.529   3.291   7.098  0.0608  0.3802  0.9168
  148SAPE   H4R16305   5.511   3.395   7.133  0.3273  0.9213 -0.5139
  148SAPE   H4S16306   5.620   3.294   7.034 -0.0667  3.4371  0.7323
  148SAPE   C2516307   5.554   3.192   7.211  0.5206 -0.2110  0.3030
  148SAPE   H5R16308   5.593   3.095   7.176 -0.1767  0.2591 -1.9039
  148SAPE   C2616309   5.513   3.200   7.340 -0.5451  0.3764 -0.2181
  148SAPE   H6R16310   5.535   3.114   7.405  0.1230  0.7982  0.1264
  148SAPE   C2716311   5.439   3.301   7.425 -0.2563  0.0073  0.1895
  148SAPE   H7R16312   5.458   3.404   7.390 -0.6852  1.1785  3.0782
  148SAPE   H7S16313   5.462   3.301   7.534  0.4449  4.4289  0.2069
  148SAPE   C2816314   5.285   3.288   7.411  0.0753 -0.4953 -0.2703
  148SAPE   H8R16315   5.248   3.277   7.308  0.2443  0.2557 -0.4186
  148SAPE   C2916316   5.213   3.269   7.521 -0.0996  1.0469  0.4005
  148SAPE   H9R16317   5.104   3.263   7.504  0.3390  0.4818 -2.6552
  148SAPE  C21016318   5.261   3.257   7.666  0.4049  0.3532  0.1728
  148SAPE  H10R16319   5.168   3.255   7.726  0.0290 -1.3717 -0.4158
  148SAPE  H10S16320   5.328   3.341   7.693 -0.2737  0.7431  0.6502
  148SAPE  C21116321   5.337   3.131   7.716  0.5926 -0.2665 -0.1188
  148SAPE  H11R16322   5.333   3.049   7.642 -2.4539  0.0291 -0.4172
  148SAPE  C21216323   5.388   3.113   7.839  0.4304 -0.6685  0.4892
  148SAPE  H12R16324   5.435   3.016   7.862  2.4890 -0.1695 -1.2698
  148SAPE  C21316325   5.393   3.214   7.957  0.2568  0.0908  0.8634
  148SAPE  H13R16326   5.313   3.289   7.940  0.5251  0.0120 -0.9807
  148SAPE  H13S16327   5.489   3.270   7.958 -0.0688  0.7831 -1.2919
  148SAPE  C21416328   5.374   3.143   8.086 -0.4095  0.6514  0.2241
  148SAPE  H14R16329   5.279   3.088   8.094  0.2883 -1.5321 -3.6741
  148SAPE  C21516330   5.468   3.134   8.181  0.2857 -0.1713  0.0037
  148SAPE  H15R16331   5.442   3.088   8.278  0.9306 -1.2448 -0.3145
  148SAPE  C21616332   5.600   3.208   8.182 -0.3366 -0.0350  0.1747
  148SAPE  H16R16333   5.587   3.318   8.180  0.5158  0.0808  0.3768
  148SAPE  H16S16334   5.666   3.175   8.098 -0.2891 -0.7850  0.5024
  148SAPE  C21716335   5.686   3.193   8.313  0.2276 -0.5760  0.9593
  148SAPE  H17R16336   5.628   3.211   8.407  1.4419 -0.2053  1.6578
  148SAPE  H17S16337   5.771   3.265   8.317 -1.1499  1.0750  2.4087
  148SAPE  C21816338   5.742   3.049   8.318 -0.0469  0.9667 -0.3917
  148SAPE  H18R16339   5.787   3.008   8.225  0.7210  1.5193 -0.2737
  148SAPE  H18S16340   5.651   2.987   8.335  0.0317  0.9774  0.0874
  148SAPE  C21916341   5.831   3.029   8.437 -0.4465 -0.2753 -0.1473
  148SAPE  H19R16342   5.879   3.127   8.458  2.3207 -1.3872 -0.8975
  148SAPE  H19S16343   5.913   2.955   8.428 -3.1106 -3.4214 -0.4147
  148SAPE  C22016344   5.751   3.002   8.569 -0.0483  0.3744 -0.0222
  148SAPE  H20R16345   5.733   2.892   8.570  2.6111 -0.1588 -1.2406
  148SAPE  H20S16346   5.659   3.064   8.565 -1.1771 -1.2939 -1.7576
  148SAPE  H20T16347   5.822   3.039   8.646 -0.2686 -1.9504  1.3701
  148SAPE   C3316348   4.841   2.870   6.961 -0.3194 -0.4295  0.4627
  148SAPE   H3X16349   4.781   2.792   6.910 -0.0217  1.1272 -2.4963
  148SAPE   H3Y16350   4.832   2.956   6.890 -0.3706  0.5837  1.6638
  148SAPE   C3416351   4.763   2.864   7.086  0.2911  0.2346  0.1000
  148SAPE   H4X16352   4.772   2.776   7.153  2.1092 -0.0559 -0.4935
  148SAPE   H4Y16353   4.655   2.867   7.060  0.8222  0.1784 -2.3080
  148SAPE   C3516354   4.796   2.986   7.174 -0.2486  0.0983 -0.0700
  148SAPE   H5X16355   4.832   3.067   7.108  2.2001  0.6468  1.8308
  148SAPE   H5Y16356   4.879   2.947   7.236  0.3935 -2.1667 -2.2208
  148SAPE   C3616357   4.679   3.031   7.258  0.8701  0.3850  0.3187
  148SAPE   H6X16358   4.658   2.941   7.321  1.8515  1.0504  1.6418
  148SAPE   H6Y16359   4.590   3.073   7.206  0.1691  0.1451  1.2768
  148SAPE   C3716360   4.700   3.130   7.373  0.1218 -0.3702  1.0327
  148SAPE   H7X16361   4.615   3.120   7.444  0.1752 -0.2697  1.1114
  148SAPE   H7Y16362   4.697   3.233   7.333 -0.8685 -1.6142 -2.4251
  148SAPE   C3816363   4.824   3.093   7.451  0.0376  0.8498  0.1047
  148SAPE   H8X16364   4.918   3.121   7.399  0.8014  1.5134  1.7754
  148SAPE   H8Y16365   4.822   2.982   7.459  1.7460  0.7412 -0.5118
  148SAPE   C3916366   4.825   3.153   7.586  0.6646  0.2810 -0.5446
  148SAPE   H9X16367   4.724   3.138   7.631  0.4175  0.0017 -1.1771
  148SAPE   H9Y16368   4.855   3.260   7.586 -0.9902  0.7708 -0.8108
  148SAPE  C31016369   4.929   3.077   7.674 -0.1891 -0.6174 -0.2474
  148SAPE  H10X16370   5.036   3.094   7.648 -0.1668 -1.1216 -0.4999
  148SAPE  H10Y16371   4.931   2.967   7.657  1.2346 -0.2552 -3.1327
  148SAPE  C31116372   4.904   3.118   7.821  0.3618 -0.2900  0.6620
  148SAPE  H11X16373   4.796   3.100   7.836 -0.1748  1.4311 -0.7455
  148SAPE  H11Y16374   4.922   3.227   7.827  2.3524 -0.2551 -2.8013
  148SAPE  C31216375   4.990   3.050   7.918  0.1234 -0.1294 -0.0046
  148SAPE  H12X16376   5.093   3.089   7.899  0.6045  0.4007  3.0299
  148SAPE  H12Y16377   4.974   2.941   7.903  1.6972 -0.6213  1.5109
  148SAPE  C31316378   4.951   3.093   8.063 -0.5554 -0.5413 -0.4924
  148SAPE  H13X16379   4.958   3.202   8.079 -2.8459 -0.3489 -0.3491
  148SAPE  H13Y16380   5.026   3.042   8.126 -0.8598 -1.3213 -0.7392
  148SAPE  C31416381   4.812   3.039   8.107  0.5002 -0.0770 -0.1427
  148SAPE  H14X16382   4.797   2.930   8.094 -1.1467  0.3872 -2.7946
  148SAPE  H14Y16383   4.731   3.087   8.049  0.4908  0.1080  0.0208
  148SAPE  C31516384   4.777   3.056   8.254  0.4531 -0.2090 -0.5035
  148SAPE  H15X16385   4.671   3.027   8.271 -0.5698  2.5849 -1.5978
  148SAPE  H15Y16386   4.786   3.165   8.272 -1.8469  0.1135 -1.0089
  148SAPE  C31616387   4.868   2.987   8.359  0.0330 -0.0857 -0.0468
  148SAPE  H16X16388   4.971   3.026   8.363 -0.0666  0.0834  1.1186
  148SAPE  H16Y16389   4.869   2.879   8.332 -1.8324 -0.0846 -0.3111
  148SAPE  C31716390   4.823   3.001   8.505  0.2559 -0.1732 -0.8788
  148SAPE  H17X16391   4.899   2.946   8.563  0.5793  0.5625 -0.5980
  148SAPE  H17Y16392   4.727   2.948   8.526 -0.0447  0.9478  0.7441
  148SAPE  C31816393   4.811   3.141   8.559 -0.1918 -0.3063  0.2185
  148SAPE  H18X16394   4.790   3.136   8.668  0.2312  1.6185  0.4149
  148SAPE  H18Y16395   4.726   3.196   8.514 -1.4523 -2.3201  0.0102
  148SAPE  H18Z16396   4.909   3.192   8.545  0.5042 -2.1594 -2.4797
  149SAPE     N16397   2.015   3.857   6.246 -0.4804 -0.0849  0.2157
  149SAPE   HN116398   1.950   3.928   6.206  0.3021  0.2567 -0.4659
  149SAPE   HN216399   2.013   3.863   6.350  0.2319  1.7315  0.1635
  149SAPE   HN316400   2.115   3.872   6.225 -0.0821 -3.3314 -0.7215
  149SAPE   C1216401   1.987   3.711   6.198  0.0726  0.4723 -0.2449
  149SAPE  H12A16402   2.023   3.705   6.093  1.5086 -0.5569  0.2865
  149SAPE  H12B16403   1.876   3.703   6.195  0.1249 -0.4511  0.2367
  149SAPE   C1116404   2.047   3.599   6.284 -0.1761  0.3474 -0.2153
  149SAPE  H11A16405   2.051   3.501   6.231  2.5858  0.8080 -1.0534
  149SAPE  H11B16406   1.984   3.579   6.373  1.8925 -2.9263  0.6919
  149SAPE     P16407   2.310   3.553   6.309  0.1789  0.1370 -0.1070
  149SAPE   O1316408   2.282   3.404   6.304  0.1066 -0.0980 -0.2472
  149SAPE   O1416409   2.407   3.623   6.213 -0.0638  0.2479 -0.1700
  149SAPE   O1216410   2.174   3.641   6.332  0.0037  0.0208  0.2123
  149SAPE   O1116411   2.378   3.559   6.454 -0.2533  0.2974  0.3251
  149SAPE    C116412   2.379   3.675   6.537  0.6567 -0.0756  0.0521
  149SAPE    HA16413   2.485   3.706   6.540  0.5481  0.2496  0.7111
  149SAPE    HB16414   2.334   3.768   6.496 -1.4848  0.0959  2.5209
  149SAPE    C216415   2.308   3.654   6.681 -0.4836 -0.6498  0.5728
  149SAPE    HS16416   2.321   3.753   6.730 -1.5274  0.0945 -0.5830
  149SAPE   O2116417   2.368   3.546   6.762 -0.2010 -0.1966 -0.3909
  149SAPE   C2116418   2.488   3.570   6.794 -1.0941  0.1377  0.1304
  149SAPE   O2216419   2.553   3.674   6.778  0.0870 -0.0179 -0.1809
  149SAPE   C2216420   2.556   3.452   6.872  0.7206 -0.4864  0.8638
  149SAPE   H2R16421   2.649   3.431   6.815 -1.1062 -0.5280 -2.2900
  149SAPE   H2S16422   2.569   3.474   6.980 -0.4016  1.3394  0.6709
  149SAPE    C316423   2.156   3.647   6.666 -0.3669 -0.0355  0.0496
  149SAPE    HX16424   2.129   3.558   6.606  0.3028  0.7894 -1.5337
  149SAPE    HY16425   2.110   3.733   6.612 -3.2168 -1.9112 -0.7201
  149SAPE   O3116426   2.103   3.652   6.795  0.4258  0.2012 -0.2167
  149SAPE   C3116427   2.057   3.534   6.849 -0.2153 -0.2384  0.6750
  149SAPE   O3216428   2.026   3.429   6.793 -0.5637  0.5320  0.2731
  149SAPE   C3216429   2.040   3.548   6.999 -0.3721 -0.0283  0.1552
  149SAPE   H2X16430   2.006   3.651   7.025  0.7337  0.0682  1.2872
  149SAPE   H2Y16431   2.134   3.520   7.050  0.1990 -1.9223 -1.8090
  149SAPE   C2316432   2.473   3.315   6.864  0.0592 -0.3236  1.1456
  149SAPE   H3R16433   2.446   3.291   6.759  2.7694  2.7026 -0.3993
  149SAPE   H3S16434   2.383   3.332   6.927 -1.6922 -0.0237 -1.2826
  149SAPE   C2416435   2.558   3.196   6.911  0.4481 -0.1676 -0.0944
  149SAPE   H4R16436   2.591   3.211   7.016 -2.3358  0.4438  0.7890
  149SAPE   H4S16437   2.650   3.181   6.851 -0.1313 -2.8160 -0.4631
  149SAPE   C2516438   2.474   3.068   6.885 -0.1392 -0.6058 -0.6161
  149SAPE   H5R16439   2.496   3.025   6.786  0.5220 -1.1845 -0.2279
  149SAPE   C2616440   2.382   3.009   6.960  0.2933 -0.1745  0.0752
  149SAPE   H6R16441   2.330   2.923   6.917 -0.2365  0.5077 -0.6773
  149SAPE   C2716442   2.336   3.066   7.090  0.0424 -0.4266 -0.4637
  149SAPE   H7R16443   2.399   3.147   7.133  1.5222 -1.0553 -1.3813
  149SAPE   H7S16444   2.334   2.977   7.156 -1.9751 -2.5598 -3.1537
  149SAPE   C2816445   2.198   3.123   7.089  0.5701 -0.1267 -0.4876
  149SAPE   H8R16446   2.170   3.167   6.992 -2.1282 -0.8561 -0.1183
  149SAPE   C2916447   2.109   3.129   7.193 -0.0594 -0.0705  0.9796
  149SAPE   H9R16448   2.007   3.168   7.179  0.0506  0.1322  0.7421
  149SAPE  C21016449   2.133   3.074   7.333  0.0887 -0.0784  0.1210
  149SAPE  H10R16450   2.182   2.974   7.324  2.6362  1.0533  0.4358
  149SAPE  H10S16451   2.038   3.043   7.381 -2.2156  0.8672 -3.4088
  149SAPE  C21116452   2.221   3.165   7.416 -0.4773 -0.3941  0.6569
  149SAPE  H11R16453   2.300   3.215   7.358 -1.0167  0.6340  0.7946
  149SAPE  C21216454   2.205   3.210   7.542  0.2761  0.2372  0.3443
  149SAPE  H12R16455   2.288   3.261   7.593  0.5430  0.8294 -0.6432
  149SAPE  C21316456   2.092   3.159   7.631  0.1123 -0.1875  0.4562
  149SAPE  H13R16457   2.053   3.064   7.590 -2.2668  0.0403  1.9917
  149SAPE  H13S16458   2.018   3.242   7.632  0.0680 -0.2230  0.2200
  149SAPE  C21416459   2.137   3.129   7.768 -0.5377 -0.4208 -0.9926
  149SAPE  H14R16460   2.164   3.023   7.779 -2.7757 -0.7999  2.1879
  149SAPE  C21516461   2.150   3.218   7.869 -0.1850 -0.0035  0.0389
  149SAPE  H15R16462   2.202   3.177   7.956  0.3421 -4.9101 -2.2185
  149SAPE  C21616463   2.099   3.356   7.871  0.1647  0.3816  0.3017
  149SAPE  H16R16464   1.999   3.364   7.920 -0.2761 -0.9145 -0.3490
  149SAPE  H16S16465   2.096   3.397   7.768  1.8865 -0.0994  0.0341
  149SAPE  C21716466   2.197   3.447   7.945 -0.1637  0.5348  1.2561
  149SAPE  H17R16467   2.297   3.446   7.897 -0.6521  0.5621  0.1957
  149SAPE  H17S16468   2.209   3.406   8.047  1.7101 -1.6777  0.2422
  149SAPE  C21816469   2.150   3.589   7.946  0.3205 -0.5668 -0.1785
  149SAPE  H18R16470   2.236   3.636   7.997  1.9770 -2.0835 -1.4039
  149SAPE  H18S16471   2.059   3.585   8.009  0.6529  0.2609  0.3630
  149SAPE  C21916472   2.102   3.672   7.819 -0.0228  0.5858 -0.7677
  149SAPE  H19R16473   2.077   3.773   7.859 -0.2482  0.7988 -1.4224
  149SAPE  H19S16474   2.010   3.622   7.782  0.8683 -2.4466  0.8277
  149SAPE  C22016475   2.198   3.690   7.699  0.3775 -1.0472  0.1781
  149SAPE  H20R16476   2.147   3.764   7.634  0.9561  0.8941  1.8311
  149SAPE  H20S16477   2.210   3.594   7.644  1.1535 -1.3105  0.7837
  149SAPE  H20T16478   2.294   3.736   7.731  0.9330 -0.8089 -1.7401
  149SAPE   C3316479   1.941   3.441   7.053  0.1091  0.2922 -0.3514
  149SAPE   H3X16480   1.977   3.337   7.036 -0.7250 -0.3380  1.5049
  149SAPE   H3Y16481   1.852   3.453   6.988  0.3323  0.9709 -0.5348
  149SAPE   C3416482   1.926   3.460   7.195  0.0048 -0.1988  0.1057
  149SAPE   H4X16483   1.910   3.563   7.233 -1.3355  0.4450 -2.0087
  149SAPE   H4Y16484   2.027   3.433   7.233 -0.4092 -0.9662  0.6971
  149SAPE   C3516485   1.821   3.358   7.258 -0.1663 -0.2225  0.2359
  149SAPE   H5X16486   1.846   3.259   7.215 -0.2820  0.4232 -1.4269
  149SAPE   H5Y16487   1.717   3.384   7.227 -0.5221 -1.8203 -0.0069
  149SAPE   C3616488   1.823   3.339   7.411 -0.4591 -0.0034 -0.0545
  149SAPE   H6X16489   1.924   3.300   7.435  1.0155  2.3413 -1.9618
  149SAPE   H6Y16490   1.744   3.271   7.448 -2.1259  2.2315  0.7081
  149SAPE   C3716491   1.829   3.486   7.478  0.1026 -0.5568 -0.4745
  149SAPE   H7X16492   1.766   3.550   7.413  0.9151  1.6236  0.7996
  149SAPE   H7Y16493   1.931   3.529   7.464 -0.2073  0.8478  1.2301
  149SAPE   C3816494   1.789   3.498   7.624  0.8009  0.1157  0.1817
  149SAPE   H8X16495   1.745   3.599   7.641  0.5824 -0.2373  1.9388
  149SAPE   H8Y16496   1.880   3.495   7.687  0.5613  0.7115  0.5641
  149SAPE   C3916497   1.703   3.386   7.678 -0.0122  0.0554 -0.1686
  149SAPE   H9X16498   1.764   3.294   7.689 -1.2571 -0.6061  1.5629
  149SAPE   H9Y16499   1.623   3.368   7.602 -0.7379 -2.2039  1.0438
  149SAPE  C31016500   1.636   3.408   7.808  0.4850 -0.1202 -0.1613
  149SAPE  H10X16501   1.546   3.343   7.808  1.8111 -2.0350 -0.9604
  149SAPE  H10Y16502   1.600   3.512   7.824 -0.9691 -0.8323  1.6161
  149SAPE  C31116503   1.720   3.385   7.931  0.3601 -0.4299  0.3031
  149SAPE  H11X16504   1.795   3.467   7.930 -0.9794  0.8908  1.5071
  149SAPE  H11Y16505   1.761   3.282   7.927  2.5632  0.3035  1.8122
  149SAPE  C31216506   1.640   3.399   8.058  0.9760  0.0256 -0.0979
  149SAPE  H12X16507   1.538   3.355   8.056 -0.5705  3.3137  0.6622
  149SAPE  H12Y16508   1.620   3.506   8.079 -0.8859 -0.3967  0.4795
  149SAPE  C31316509   1.706   3.353   8.190 -0.6334 -0.2580  0.3971
  149SAPE  H13X16510   1.732   3.245   8.190 -0.0311 -0.1174  0.7373
  149SAPE  H13Y16511   1.639   3.370   8.277 -0.1507  1.1983  0.5195
  149SAPE  C31416512   1.833   3.436   8.231 -0.0334  0.0240 -0.3073
  149SAPE  H14X16513   1.799   3.540   8.251 -2.4529 -0.2414 -2.5543
  149SAPE  H14Y16514   1.897   3.444   8.141 -0.3946  1.1093 -0.4905
  149SAPE  C31516515   1.908   3.371   8.350  0.1794 -0.2612 -0.1086
  149SAPE  H15X16516   1.864   3.269   8.356  1.1148 -0.6180  0.9267
  149SAPE  H15Y16517   1.887   3.435   8.438  0.6440  0.2759 -0.3830
  149SAPE  C31616518   2.063   3.379   8.334  0.8825  0.2988 -0.2129
  149SAPE  H16X16519   2.098   3.484   8.325  2.0558 -0.2014 -2.0287
  149SAPE  H16Y16520   2.090   3.320   8.243  1.8123  0.2821  0.0610
  149SAPE  C31716521   2.144   3.306   8.441 -0.9046  0.1910 -0.5499
  149SAPE  H17X16522   2.245   3.294   8.397 -0.5566  0.8089  0.0541
  149SAPE  H17Y16523   2.106   3.203   8.459 -1.4353  0.4807  0.0362
  149SAPE  C31816524   2.142   3.388   8.575 -0.0926  0.0515 -0.1556
  149SAPE  H18X16525   2.203   3.351   8.660  0.4925  0.9564 -0.1629
  149SAPE  H18Y16526   2.039   3.389   8.616  0.6883  0.5282  1.9631
  149SAPE  H18Z16527   2.175   3.494   8.560  2.4446 -0.8395 -1.4976
  150SAPE     N16528   3.116   4.743   5.851 -0.4450  0.3081 -0.0554
  150SAPE   HN116529   3.018   4.763   5.879 -0.2664  0.3331  0.5659
  150SAPE   HN216530   3.176   4.809   5.904  0.6963 -2.0211  1.7722
  150SAPE   HN316531   3.129   4.750   5.748  1.5635  0.0929  0.1396
  150SAPE   C1216532   3.165   4.615   5.909  0.3774 -0.2832 -0.3718
  150SAPE  H12A16533   3.276   4.609   5.910  0.3471 -1.0190 -0.1169
  150SAPE  H12B16534   3.130   4.528   5.850  1.2948  0.1380 -1.5612
  150SAPE   C1116535   3.101   4.586   6.056 -0.2869 -0.1732 -0.0722
  150SAPE  H11A16536   3.146   4.658   6.127  0.7373 -1.0467  0.1905
  150SAPE  H11B16537   3.143   4.488   6.087 -0.8235 -0.3645  0.0665
  150SAPE     P16538   2.868   4.707   6.102 -0.4416 -0.0031 -0.1906
  150SAPE   O1316539   2.922   4.825   6.022  0.2963 -0.6025 -0.4836
  150SAPE   O1416540   2.732   4.666   6.080  0.9033 -0.1094 -0.3432
  150SAPE   O1216541   2.958   4.582   6.059 -0.4256 -0.0266 -0.8218
  150SAPE   O1116542   2.888   4.729   6.253  0.3841  0.9170  0.2998
  150SAPE    C116543   2.820   4.673   6.365  0.2017 -0.4202  0.1961
  150SAPE    HA16544   2.857   4.719   6.459  1.0879  1.3171 -0.9507
  150SAPE    HB16545   2.711   4.693   6.365  0.4807  1.2301  0.5023
  150SAPE    C216546   2.840   4.524   6.372 -0.0471 -0.2620 -0.5047
  150SAPE    HS16547   2.800   4.480   6.279  1.3541 -1.3820 -0.6143
  150SAPE   O2116548   2.766   4.492   6.486  0.5567  0.4196 -0.5806
  150SAPE   C2116549   2.713   4.369   6.495 -0.5115  0.2418 -0.3491
  150SAPE   O2216550   2.704   4.286   6.403  0.5585 -0.2193 -0.1383
  150SAPE   C2216551   2.664   4.342   6.635  0.0695 -0.2240 -0.1867
  150SAPE   H2R16552   2.653   4.441   6.684 -2.7407 -0.8816  0.7015
  150SAPE   H2S16553   2.567   4.290   6.622 -0.1799 -0.4353  2.1967
  150SAPE    C316554   2.992   4.476   6.388  0.3133  1.0607  0.4513
  150SAPE    HX16555   3.034   4.536   6.471 -0.1555  1.0235  0.7194
  150SAPE    HY16556   3.050   4.502   6.297 -0.0760  0.1003 -0.0911
  150SAPE   O3116557   2.987   4.330   6.407 -0.4333  0.4526  0.1534
  150SAPE   C3116558   3.103   4.262   6.389 -0.0013  0.0864 -0.3411
  150SAPE   O3216559   3.213   4.313   6.365  0.6822 -0.3874 -0.1646
  150SAPE   C3216560   3.091   4.115   6.403  0.0170  0.3556 -0.1118
  150SAPE   H2X16561   3.166   4.076   6.331  0.3162  2.2470 -0.8883
  150SAPE   H2Y16562   2.987   4.078   6.385 -1.0662  3.3353 -0.5463
  150SAPE   C2316563   2.760   4.255   6.715 -0.0131 -0.2636 -0.2195
  150SAPE   H3R16564   2.853   4.308   6.745 -0.2181 -0.8411  1.6009
  150SAPE   H3S16565   2.781   4.164   6.655  0.2672 -0.7127  0.5468
  150SAPE   C2416566   2.694   4.215   6.841  0.3301 -0.5187  0.5822
  150SAPE   H4R16567   2.591   4.184   6.813  0.5527  1.0750 -2.4493
  150SAPE   H4S16568   2.689   4.305   6.905 -2.1751 -0.6362  0.6563
  150SAPE   C2516569   2.773   4.104   6.916  0.9360  0.0813 -0.1124
  150SAPE   H5R16570   2.808   4.022   6.851 -1.2145 -2.4646  1.6817
  150SAPE   C2616571   2.792   4.101   7.054  0.7530 -0.6143 -0.4713
  150SAPE   H6R16572   2.865   4.026   7.088  0.3894 -0.9982 -0.5269
  150SAPE   C2716573   2.741   4.199   7.152 -0.0502  0.5728 -1.0142
  150SAPE   H7R16574   2.639   4.177   7.191  1.5203 -0.8133  2.6754
  150SAPE   H7S16575   2.732   4.302   7.109 -0.6342  1.8444  1.9044
  150SAPE   C2816576   2.844   4.212   7.266  0.2753  0.0663  0.4992
  150SAPE   H8R16577   2.922   4.290   7.261 -0.9716  1.3484  0.4116
  150SAPE   C2916578   2.844   4.125   7.372  1.3707 -0.5834 -0.0330
  150SAPE   H9R16579   2.909   4.147   7.458  0.7182  1.8643 -0.0934
  150SAPE  C21016580   2.757   4.002   7.397  0.2445 -0.3410  0.0295
  150SAPE  H10R16581   2.810   3.910   7.429  0.3459 -0.0210  0.8142
  150SAPE  H10S16582   2.698   3.973   7.307 -0.7415  2.0420 -0.1874
  150SAPE  C21116583   2.644   4.039   7.492  0.1990  0.1148  0.1247
  150SAPE  H11R16584   2.583   4.127   7.469 -0.6696 -0.4685  0.1730
  150SAPE  C21216585   2.621   3.986   7.613 -0.4784  0.1383 -0.2007
  150SAPE  H12R16586   2.540   4.028   7.676  1.4912  1.8222  1.3446
  150SAPE  C21316587   2.697   3.868   7.676  0.1182 -0.4465  0.2251
  150SAPE  H13R16588   2.753   3.897   7.768 -1.2252 -0.1492  0.9741
  150SAPE  H13S16589   2.772   3.818   7.611 -2.5170 -2.3121 -1.5907
  150SAPE  C21416590   2.595   3.769   7.726 -0.1616  0.6585  0.1345
  150SAPE  H14R16591   2.537   3.706   7.656 -0.6413  0.7960  0.4040
  150SAPE  C21516592   2.555   3.759   7.854 -0.4159 -0.1440  0.3341
  150SAPE  H15R16593   2.474   3.691   7.881 -1.1291  0.8275  0.7069
  150SAPE  C21616594   2.601   3.851   7.966  0.3831  0.8155  0.2353
  150SAPE  H16R16595   2.595   3.956   7.931 -4.1357  0.3762 -0.8855
  150SAPE  H16S16596   2.708   3.824   7.978  0.8262  1.5204 -1.7031
  150SAPE  C21716597   2.529   3.824   8.097  0.2001 -0.2755 -0.2951
  150SAPE  H17R16598   2.424   3.862   8.100 -0.0994 -0.5632 -3.4794
  150SAPE  H17S16599   2.587   3.884   8.171 -0.7719  0.9955 -0.5212
  150SAPE  C21816600   2.549   3.676   8.139 -0.6524  0.1605 -0.3267
  150SAPE  H18R16601   2.655   3.643   8.140 -0.6813  0.0725  0.4577
  150SAPE  H18S16602   2.518   3.600   8.064 -0.7322 -2.3956  2.1723
  150SAPE  C21916603   2.492   3.642   8.286  0.1055 -0.2225  0.9613
  150SAPE  H19R16604   2.384   3.666   8.298 -0.1559 -0.5120 -0.6349
  150SAPE  H19S16605   2.548   3.700   8.363 -0.7556  0.6729  0.9336
  150SAPE  C22016606   2.516   3.494   8.322  0.1430 -0.0960  0.1883
  150SAPE  H20R16607   2.458   3.421   8.263 -0.9610 -0.2728  1.4376
  150SAPE  H20S16608   2.483   3.491   8.428 -2.7576  3.7712 -0.4172
  150SAPE  H20T16609   2.624   3.473   8.308  0.1032 -1.9680  2.0915
  150SAPE   C3316610   3.145   4.080   6.547 -0.2318  0.1638 -0.8006
  150SAPE   H3X16611   3.071   4.095   6.628 -0.8997 -3.3353 -0.6197
  150SAPE   H3Y16612   3.238   4.139   6.566  0.2125 -0.1862 -1.8278
  150SAPE   C3416613   3.175   3.928   6.571 -0.2260 -0.3280 -0.2295
  150SAPE   H4X16614   3.222   3.886   6.479 -0.9024  0.6651 -1.0579
  150SAPE   H4Y16615   3.090   3.862   6.599  0.6753 -0.9334  1.1612
  150SAPE   C3516616   3.269   3.904   6.696 -0.3116 -0.8481  0.2689
  150SAPE   H5X16617   3.370   3.942   6.669 -0.4943 -0.3163  0.3257
  150SAPE   H5Y16618   3.287   3.798   6.722 -1.6066 -0.5884  2.4002
  150SAPE   C3616619   3.216   3.967   6.821  0.1126 -0.2356 -0.0347
  150SAPE   H6X16620   3.108   3.947   6.841  0.3546 -0.3578  1.2178
  150SAPE   H6Y16621   3.228   4.077   6.821 -1.8512  0.0107 -0.1698
  150SAPE   C3716622   3.295   3.933   6.948  0.5964 -0.9070 -0.3043
  150SAPE   H7X16623   3.402   3.962   6.935  0.3330  0.2244 -0.0491
  150SAPE   H7Y16624   3.288   3.826   6.978  0.5278 -0.6773  0.5011
  150SAPE   C3816625   3.233   4.008   7.065 -0.2136 -0.2852 -0.0439
  150SAPE   H8X16626   3.129   3.972   7.077 -0.3530 -0.2166 -0.9510
  150SAPE   H8Y16627   3.215   4.117   7.052 -0.5993 -0.3266  0.1343
  150SAPE   C3916628   3.307   3.987   7.196  0.9822  0.2918 -0.3590
  150SAPE   H9X16629   3.404   4.038   7.179  0.8204  0.1643 -1.8320
  150SAPE   H9Y16630   3.332   3.888   7.240  0.3587  0.4516  0.3648
  150SAPE  C31016631   3.224   4.044   7.314  0.1731  0.0369  0.7092
  150SAPE  H10X16632   3.148   3.964   7.333  1.0652 -0.7802  0.9112
  150SAPE  H10Y16633   3.173   4.137   7.281  0.3209  1.0688  3.1844
  150SAPE  C31116634   3.296   4.072   7.447 -0.2956  0.0075 -0.3012
  150SAPE  H11X16635   3.375   4.147   7.423 -0.5965  0.0046 -1.3760
  150SAPE  H11Y16636   3.355   3.988   7.489 -2.0964 -1.1062  0.1147
  150SAPE  C31216637   3.200   4.139   7.555  0.3272 -0.3121  0.0962
  150SAPE  H12X16638   3.131   4.060   7.590 -0.2645 -0.7144 -1.8400
  150SAPE  H12Y16639   3.138   4.211   7.498  1.3242  0.2127 -0.3516
  150SAPE  C31316640   3.279   4.205   7.676  0.2707  0.5054  0.0498
  150SAPE  H13X16641   3.349   4.281   7.635  0.2035 -0.5946 -2.2682
  150SAPE  H13Y16642   3.332   4.115   7.714  0.3094  0.1209 -0.8831
  150SAPE  C31416643   3.194   4.255   7.790  0.1945  1.0685  0.2761
  150SAPE  H14X16644   3.139   4.166   7.829  0.1973  1.7594  1.9351
  150SAPE  H14Y16645   3.118   4.325   7.749 -1.0941  0.1537  1.0067
  150SAPE  C31516646   3.284   4.309   7.904  0.1045 -0.4131  0.0960
  150SAPE  H15X16647   3.364   4.381   7.877 -0.4750  0.0824 -0.3156
  150SAPE  H15Y16648   3.339   4.220   7.942 -1.2074 -1.4339 -0.3297
  150SAPE  C31616649   3.213   4.370   8.024 -0.9360  0.4581 -0.5067
  150SAPE  H16X16650   3.161   4.293   8.084  1.3572  0.2628  1.3657
  150SAPE  H16Y16651   3.147   4.455   7.995 -1.8552  0.8871  2.4854
  150SAPE  C31716652   3.322   4.435   8.119  0.0105 -0.3175  0.1004
  150SAPE  H17X16653   3.342   4.537   8.078 -0.8390  0.5500  1.7452
  150SAPE  H17Y16654   3.410   4.368   8.110  0.9513  0.7455  0.9724
  150SAPE  C31816655   3.283   4.439   8.263  0.3217 -0.2396  0.0844
  150SAPE  H18X16656   3.363   4.496   8.317  0.5970  1.2935 -1.8358
  150SAPE  H18Y16657   3.273   4.334   8.299  1.6424 -0.6359 -0.6284
  150SAPE  H18Z16658   3.190   4.496   8.282  0.2048  0.2605 -1.8039
  151SAPE     N16659   3.605   1.841   6.467  0.3072  0.2672 -0.5443
  151SAPE   HN116660   3.682   1.774   6.486 -0.8729 -0.4608  2.1883
  151SAPE   HN216661   3.657   1.927   6.442 -0.6593  0.9598 -0.2254
  151SAPE   HN316662   3.557   1.860   6.557  0.7829  2.1329 -0.6367
  151SAPE   C1216663   3.512   1.790   6.362 -0.2027 -0.4489  0.1927
  151SAPE  H12A16664   3.431   1.866   6.351  0.1767  0.0173  0.5841
  151SAPE  H12B16665   3.464   1.698   6.400 -1.0873  0.3295  1.0236
  151SAPE   C1116666   3.585   1.770   6.231 -0.2724  0.2470  0.1262
  151SAPE  H11A16667   3.654   1.855   6.212  1.5579 -1.2163 -0.0868
  151SAPE  H11B16668   3.529   1.774   6.136 -0.4886 -0.0958  0.2368
  151SAPE     P16669   3.623   1.511   6.182  0.0901  0.4656 -0.1746
  151SAPE   O1316670   3.479   1.490   6.209  0.6738  0.5020  0.5006
  151SAPE   O1416671   3.680   1.507   6.041  0.0875 -0.1711 -0.1112
  151SAPE   O1216672   3.670   1.650   6.242 -0.4309 -0.1714  0.6182
  151SAPE   O1116673   3.705   1.408   6.258  0.6444  0.2221 -0.0592
  151SAPE    C116674   3.839   1.422   6.313  0.2748  0.1936  0.1160
  151SAPE    HA16675   3.893   1.498   6.253  0.3321  0.3122  0.3186
  151SAPE    HB16676   3.830   1.465   6.416  2.9395 -1.2441  1.0523
  151SAPE    C216677   3.913   1.294   6.305 -0.1528  0.6662 -0.5826
  151SAPE    HS16678   3.916   1.249   6.204 -0.8201  0.2259 -0.4119
  151SAPE   O2116679   3.851   1.202   6.407  0.8280  0.0766  0.7681
  151SAPE   C2116680   3.900   1.076   6.387  0.6503  0.1087 -0.6716
  151SAPE   O2216681   3.964   1.041   6.291 -0.3704 -0.4578  0.0355
  151SAPE   C2216682   3.858   0.976   6.498  0.4514 -0.4762  0.1320
  151SAPE   H2R16683   3.789   0.902   6.452  2.0940 -1.3823 -0.9766
  151SAPE   H2S16684   3.951   0.919   6.521 -0.0064 -1.3132 -0.0586
  151SAPE    C316685   4.059   1.324   6.356  1.0322  0.2761  0.9806
  151SAPE    HX16686   4.088   1.404   6.284 -0.6390 -1.2653 -1.5464
  151SAPE    HY16687   4.124   1.239   6.326 -0.2528 -0.6245  0.6637
  151SAPE   O3116688   4.066   1.367   6.495 -0.0452 -0.1382  1.0209
  151SAPE   C3116689   4.175   1.425   6.521 -0.6770 -0.0380  0.2240
  151SAPE   O3216690   4.277   1.429   6.448 -0.0463 -0.1594  0.0757
  151SAPE   C3216691   4.173   1.486   6.660  0.6190 -0.7844  0.0873
  151SAPE   H2X16692   4.110   1.423   6.727  2.7770 -1.2100  1.8291
  151SAPE   H2Y16693   4.126   1.586   6.648 -1.4115 -1.5419  1.1571
  151SAPE   C2316694   3.807   1.046   6.629 -0.1605  0.7456 -0.5205
  151SAPE   H3R16695   3.708   1.088   6.600 -1.0522  0.0899  1.3691
  151SAPE   H3S16696   3.866   1.135   6.662  2.6963 -2.0090  2.5896
  151SAPE   C2416697   3.782   0.962   6.760  0.2056 -0.2123  0.7233
  151SAPE   H4R16698   3.711   0.878   6.747  0.8414 -0.9810  1.9997
  151SAPE   H4S16699   3.730   1.029   6.831 -1.1303 -0.4738  0.0272
  151SAPE   C2516700   3.923   0.926   6.806  0.0185  0.3185 -0.2011
  151SAPE   H5R16701   4.006   0.959   6.741  0.3372  1.3074  0.6874
  151SAPE   C2616702   3.950   0.877   6.932 -0.0332 -0.5051 -0.0092
  151SAPE   H6R16703   4.050   0.869   6.976  0.1926  0.7649 -0.2415
  151SAPE   C2716704   3.852   0.849   7.039 -0.4240 -0.1734  0.1393
  151SAPE   H7R16705   3.753   0.899   7.026 -0.5519 -0.4134  0.1827
  151SAPE   H7S16706   3.885   0.903   7.130 -1.5359 -0.7887  0.9368
  151SAPE   C2816707   3.833   0.701   7.065  0.5292 -0.3412 -0.7227
  151SAPE   H8R16708   3.861   0.626   6.990 -1.0416 -1.5740 -0.1214
  151SAPE   C2916709   3.786   0.639   7.176 -0.0966 -0.5183  0.4151
  151SAPE   H9R16710   3.783   0.529   7.177 -3.1538 -0.5234  1.6187
  151SAPE  C21016711   3.737   0.703   7.304  0.2400 -0.0505  0.9260
  151SAPE  H10R16712   3.632   0.671   7.322 -0.8671  2.6150 -0.3759
  151SAPE  H10S16713   3.730   0.813   7.295  1.5749  0.1958  2.4146
  151SAPE  C21116714   3.828   0.650   7.409  0.1949 -0.0947 -0.8850
  151SAPE  H11R16715   3.927   0.695   7.397 -0.7496  1.6764 -2.7342
  151SAPE  C21216716   3.803   0.568   7.511  0.8279 -0.1110 -0.1067
  151SAPE  H12R16717   3.880   0.540   7.585 -0.1870  0.7854  1.3356
  151SAPE  C21316718   3.654   0.517   7.546 -0.4261  0.1257  0.0768
  151SAPE  H13R16719   3.588   0.514   7.456 -0.4106  2.0439 -0.0359
  151SAPE  H13S16720   3.607   0.593   7.610  0.1101  0.1667  0.4294
  151SAPE  C21416721   3.656   0.375   7.599  0.4293 -0.3598  0.2748
  151SAPE  H14R16722   3.638   0.296   7.524  1.8209  0.5701 -1.1166
  151SAPE  C21516723   3.668   0.344   7.726  0.1181  0.0348  0.4590
  151SAPE  H15R16724   3.658   0.240   7.760 -0.5910 -0.2172 -0.4911
  151SAPE  C21616725   3.692   0.437   7.839  0.7752 -0.4725  0.1008
  151SAPE  H16R16726   3.628   0.412   7.926 -0.1373 -2.5351 -1.0789
  151SAPE  H16S16727   3.663   0.539   7.806 -2.7775 -1.1340  0.7295
  151SAPE  C21716728   3.840   0.431   7.874 -0.5280  0.1338 -0.0040
  151SAPE  H17R16729   3.894   0.500   7.805  1.6254  0.7690  2.1587
  151SAPE  H17S16730   3.879   0.327   7.871  2.8169  1.2780 -0.0710
  151SAPE  C21816731   3.864   0.476   8.026 -0.7529 -0.3336 -0.8057
  151SAPE  H18R16732   3.800   0.415   8.093  0.6001 -0.9771 -0.0613
  151SAPE  H18S16733   3.840   0.585   8.029  0.8809  0.2440 -4.1980
  151SAPE  C21916734   4.016   0.478   8.060  0.7564  0.1314  0.0902
  151SAPE  H19R16735   4.068   0.524   7.974  2.9236 -1.2524  0.5699
  151SAPE  H19S16736   4.061   0.377   8.070  1.9091  0.6150 -0.1391
  151SAPE  C22016737   4.054   0.553   8.190 -0.4502 -0.1109 -0.1453
  151SAPE  H20R16738   4.164   0.554   8.204 -0.6596  1.1209  1.6807
  151SAPE  H20S16739   4.018   0.658   8.184  1.1442  0.4926  0.2721
  151SAPE  H20T16740   4.007   0.505   8.279  0.9577  1.7432  1.6876
  151SAPE   C3316741   4.311   1.509   6.735 -0.0989 -0.0481  0.1938
  151SAPE   H3X16742   4.368   1.589   6.684  1.5253  1.0703  3.4749
  151SAPE   H3Y16743   4.374   1.419   6.721 -1.0361 -0.8782  1.1410
  151SAPE   C3416744   4.297   1.549   6.882  0.6619  0.3574  0.0960
  151SAPE   H4X16745   4.205   1.610   6.886 -2.1886 -3.5275 -0.0603
  151SAPE   H4Y16746   4.383   1.613   6.910 -0.3010  1.2710  1.0550
  151SAPE   C3516747   4.291   1.442   6.991 -0.3315  0.3043  0.1511
  151SAPE   H5X16748   4.376   1.371   6.982 -1.8736 -1.5140 -0.9178
  151SAPE   H5Y16749   4.202   1.377   6.977  1.2791 -2.2185  0.9549
  151SAPE   C3616750   4.275   1.497   7.129  0.0360 -0.2724  0.9031
  151SAPE   H6X16751   4.199   1.578   7.119 -0.2872 -0.8606 -2.2176
  151SAPE   H6Y16752   4.368   1.552   7.154 -0.9377  1.0603  1.7832
  151SAPE   C3716753   4.241   1.391   7.236 -0.4613  0.0865  0.5361
  151SAPE   H7X16754   4.327   1.322   7.247  1.2537  1.9639 -0.3133
  151SAPE   H7Y16755   4.148   1.343   7.201 -0.2087  1.6094 -2.5921
  151SAPE   C3816756   4.213   1.455   7.378  0.2005 -0.5296  0.6649
  151SAPE   H8X16757   4.117   1.510   7.389 -0.3413  0.4296 -5.3129
  151SAPE   H8Y16758   4.301   1.520   7.396 -1.2879  1.9056 -0.3924
  151SAPE   C3916759   4.213   1.354   7.493  0.3163  0.0504 -0.7282
  151SAPE   H9X16760   4.302   1.288   7.491  2.6628  2.9952 -0.3134
  151SAPE   H9Y16761   4.122   1.290   7.487  1.1746 -1.5401  1.5274
  151SAPE  C31016762   4.225   1.438   7.625  0.1062  0.4903 -0.6167
  151SAPE  H10X16763   4.146   1.513   7.648  0.7728  0.8676  0.4693
  151SAPE  H10Y16764   4.325   1.486   7.628  0.1735  0.2999  0.5735
  151SAPE  C31116765   4.232   1.352   7.755  0.0615 -0.0050  0.5795
  151SAPE  H11X16766   4.309   1.272   7.745  0.2100  0.3858 -1.8950
  151SAPE  H11Y16767   4.141   1.290   7.767  0.0877 -0.0544  0.5178
  151SAPE  C31216768   4.225   1.433   7.885  0.7062  0.2052  0.3409
  151SAPE  H12X16769   4.125   1.482   7.891  0.1446 -0.7535 -0.9421
  151SAPE  H12Y16770   4.298   1.518   7.880 -0.0869  0.9273  0.7388
  151SAPE  C31316771   4.237   1.349   8.011  0.3683 -0.5699  0.6134
  151SAPE  H13X16772   4.318   1.273   7.997  0.8662 -0.2582  1.7054
  151SAPE  H13Y16773   4.144   1.290   8.022  0.2944 -0.6525 -0.3094
  151SAPE  C31416774   4.245   1.442   8.135 -0.0319 -0.3488  0.2093
  151SAPE  H14X16775   4.140   1.474   8.148  0.1503  1.1286 -1.5119
  151SAPE  H14Y16776   4.301   1.537   8.119  1.3729 -0.9162  1.5018
  151SAPE  C31516777   4.291   1.360   8.256  0.1890  0.0963  0.4035
  151SAPE  H15X16778   4.394   1.323   8.239  0.5546  1.1643  0.2328
  151SAPE  H15Y16779   4.215   1.279   8.260  0.5466 -0.3043 -0.5761
  151SAPE  C31616780   4.293   1.433   8.387 -0.0996 -0.7530  0.3991
  151SAPE  H16X16781   4.362   1.518   8.374 -0.8167  0.1109  1.9228
  151SAPE  H16Y16782   4.338   1.369   8.467  0.8856 -0.9049 -0.2622
  151SAPE  C31716783   4.150   1.467   8.443  0.0556  0.2695  0.5318
  151SAPE  H17X16784   4.080   1.382   8.458 -0.7414  0.6226 -0.9627
  151SAPE  H17Y16785   4.113   1.531   8.360  2.0711 -1.4488 -1.8513
  151SAPE  C31816786   4.163   1.547   8.574  0.5751  0.3799  0.0367
  151SAPE  H18X16787   4.199   1.483   8.657  0.2066 -0.0190 -0.1027
  151SAPE  H18Y16788   4.063   1.593   8.589 -0.0343 -0.0251 -2.3906
  151SAPE  H18Z16789   4.225   1.639   8.563 -0.5744  1.4307  1.8009
  152SAPE     N16790   2.299   6.134   6.015 -0.1153 -0.1271 -0.4967
  152SAPE   HN116791   2.397   6.153   6.041 -0.4651 -0.7939  1.5067
  152SAPE   HN216792   2.285   6.031   6.024 -0.4712 -0.0314  0.1517
  152SAPE   HN316793   2.297   6.152   5.913  1.2441  0.1679 -0.4850
  152SAPE   C1216794   2.195   6.215   6.102 -0.7980 -0.1016 -0.5255
  152SAPE  H12A16795   2.121   6.142   6.142 -0.0626 -0.5986 -0.0336
  152SAPE  H12B16796   2.143   6.285   6.034 -1.7488  1.2679  1.5241
  152SAPE   C1116797   2.275   6.281   6.223  0.1939  0.5652 -0.6369
  152SAPE  H11A16798   2.288   6.199   6.297  0.6973  0.9701 -0.2619
  152SAPE  H11B16799   2.203   6.348   6.274 -3.1447 -2.2857 -1.2691
  152SAPE     P16800   2.544   6.274   6.209 -0.2481 -0.2190  0.1325
  152SAPE   O1316801   2.556   6.175   6.102  0.0673 -0.1524  0.2436
  152SAPE   O1416802   2.638   6.387   6.211 -0.3100  0.1247  0.0566
  152SAPE   O1216803   2.403   6.341   6.192  0.1849 -0.0794 -0.0356
  152SAPE   O1116804   2.538   6.203   6.351  0.3421  0.4130  0.2454
  152SAPE    C116805   2.505   6.274   6.472 -0.2494 -0.0434  0.5220
  152SAPE    HA16806   2.590   6.340   6.499  0.6385 -1.0937  0.3742
  152SAPE    HB16807   2.421   6.344   6.457 -0.4537 -0.3903  0.0047
  152SAPE    C216808   2.473   6.184   6.593  1.0824  0.2191 -0.3131
  152SAPE    HS16809   2.561   6.116   6.597  2.4001  1.7116 -2.0233
  152SAPE   O2116810   2.356   6.114   6.553 -0.3842 -0.0603  0.1421
  152SAPE   C2116811   2.353   5.990   6.587 -0.3610  0.3079  0.1553
  152SAPE   O2216812   2.442   5.931   6.638  0.3902 -0.5194  0.3667
  152SAPE   C2216813   2.214   5.932   6.554  0.3389  0.2736 -0.0749
  152SAPE   H2R16814   2.135   5.988   6.610 -0.8709 -1.7041  0.3213
  152SAPE   H2S16815   2.199   5.949   6.446  0.1998  1.7955  0.1604
  152SAPE    C316816   2.446   6.257   6.723 -0.4472  0.0234  0.6695
  152SAPE    HX16817   2.379   6.346   6.715 -3.4332 -2.0450  0.9714
  152SAPE    HY16818   2.539   6.313   6.746 -1.8830  2.6048  0.6297
  152SAPE   O3116819   2.411   6.172   6.835 -0.2607 -0.2092 -0.1382
  152SAPE   C3116820   2.310   6.211   6.921 -0.1202 -0.4006 -0.1780
  152SAPE   O3216821   2.249   6.317   6.905  0.1646  0.3635 -0.6213
  152SAPE   C3216822   2.294   6.099   7.026  0.0795 -0.8499 -0.4847
  152SAPE   H2X16823   2.393   6.068   7.066 -1.1533 -2.7604  1.3077
  152SAPE   H2Y16824   2.255   6.013   6.966  1.3436  0.1670 -2.9100
  152SAPE   C2316825   2.206   5.785   6.587 -0.0762  1.0146 -0.7832
  152SAPE   H3R16826   2.219   5.757   6.694  0.1061  2.5558 -0.3794
  152SAPE   H3S16827   2.293   5.733   6.539 -1.2956 -1.1675 -0.7795
  152SAPE   C2416828   2.081   5.715   6.534  0.4705 -0.6905 -0.0989
  152SAPE   H4R16829   2.081   5.611   6.573 -0.2816 -0.6917 -0.0951
  152SAPE   H4S16830   2.073   5.693   6.426 -0.3947 -0.1689 -0.1459
  152SAPE   C2516831   1.952   5.789   6.579 -0.1164 -0.0805  0.2449
  152SAPE   H5R16832   1.928   5.881   6.525  2.3442  1.6445  1.8408
  152SAPE   C2616833   1.884   5.753   6.688 -0.1451  0.4993 -0.0131
  152SAPE   H6R16834   1.789   5.799   6.716 -0.5240  0.9126 -1.8595
  152SAPE   C2716835   1.913   5.638   6.784  0.2476  0.9607  0.1940
  152SAPE   H7R16836   1.912   5.661   6.893  0.9040 -1.2583  0.7064
  152SAPE   H7S16837   2.021   5.614   6.777 -0.1222 -0.9547  0.5863
  152SAPE   C2816838   1.828   5.515   6.762 -0.1436  0.2156 -0.4621
  152SAPE   H8R16839   1.752   5.512   6.682 -2.7262 -0.3947  1.8578
  152SAPE   C2916840   1.838   5.395   6.827 -0.0296 -0.1827  0.8962
  152SAPE   H9R16841   1.754   5.324   6.815  0.1139  0.0152 -2.2426
  152SAPE  C21016842   1.925   5.360   6.939  0.3729 -0.0385 -0.3697
  152SAPE  H10R16843   1.997   5.444   6.938  2.1544 -1.4127 -3.2986
  152SAPE  H10S16844   1.994   5.274   6.920  1.2520  0.9174 -1.7006
  152SAPE  C21116845   1.841   5.344   7.066 -0.3589 -0.0978  0.0279
  152SAPE  H11R16846   1.818   5.238   7.087  0.3951 -0.2005  0.3648
  152SAPE  C21216847   1.806   5.430   7.157 -0.1367  0.1171  0.5982
  152SAPE  H12R16848   1.762   5.380   7.245  0.9572 -3.6541 -0.7889
  152SAPE  C21316849   1.856   5.566   7.173  0.1821  0.2336  0.9381
  152SAPE  H13R16850   1.836   5.610   7.074 -2.0861 -0.2552  1.1242
  152SAPE  H13S16851   1.966   5.567   7.193  0.0883  0.0265  1.4890
  152SAPE  C21416852   1.791   5.643   7.285 -0.0201  0.0220  0.8237
  152SAPE  H14R16853   1.693   5.684   7.258 -0.2319 -1.3705 -0.6254
  152SAPE  C21516854   1.817   5.635   7.421  0.5486 -0.1041  0.0754
  152SAPE  H15R16855   1.759   5.704   7.484 -1.5210  0.3265 -2.1466
  152SAPE  C21616856   1.920   5.549   7.480 -0.6672 -0.5485 -0.1258
  152SAPE  H16R16857   1.984   5.613   7.544 -1.8401  1.0755 -0.5143
  152SAPE  H16S16858   1.989   5.500   7.409 -0.2660  1.4026 -1.1543
  152SAPE  C21716859   1.861   5.447   7.588 -0.3864 -0.0879  0.4887
  152SAPE  H17R16860   1.814   5.509   7.668 -1.8443 -0.9701  0.3634
  152SAPE  H17S16861   1.940   5.387   7.639 -0.9548  0.0525  1.5713
  152SAPE  C21816862   1.754   5.363   7.525  0.0919  0.7466  0.8090
  152SAPE  H18R16863   1.809   5.321   7.438  1.0683  2.5506  0.5102
  152SAPE  H18S16864   1.660   5.409   7.487  0.4634 -0.0269 -1.1738
  152SAPE  C21916865   1.718   5.242   7.615 -0.2666 -0.3429 -0.1384
  152SAPE  H19R16866   1.678   5.276   7.712  1.4139  0.2805  0.3646
  152SAPE  H19S16867   1.813   5.194   7.646 -0.6021 -0.4745  0.7067
  152SAPE  C22016868   1.615   5.143   7.555 -0.6337 -1.2971  0.2707
  152SAPE  H20R16869   1.650   5.114   7.454  1.1886  0.5957  0.3133
  152SAPE  H20S16870   1.516   5.194   7.549 -0.0029 -0.0250  0.4651
  152SAPE  H20T16871   1.605   5.054   7.621 -0.6637 -1.4741  0.0297
  152SAPE   C3316872   2.195   6.139   7.141 -0.3444 -0.3636  0.4759
  152SAPE   H3X16873   2.093   6.145   7.099 -0.1620  1.7492  0.2760
  152SAPE   H3Y16874   2.223   6.234   7.190 -0.6553  0.1525 -0.3374
  152SAPE   C3416875   2.185   6.026   7.246  0.2649 -0.3041 -0.1531
  152SAPE   H4X16876   2.284   5.992   7.282  0.5316  1.1791  0.6016
  152SAPE   H4Y16877   2.139   5.944   7.187 -0.3768  1.2771 -1.9602
  152SAPE   C3516878   2.095   6.058   7.368 -0.2820 -0.3730  0.7644
  152SAPE   H5X16879   1.996   6.098   7.337  1.3588  2.4024 -1.3789
  152SAPE   H5Y16880   2.145   6.139   7.425 -0.4040  0.3875 -0.1752
  152SAPE   C3616881   2.085   5.944   7.469  0.5290  1.0318  0.6127
  152SAPE   H6X16882   2.188   5.918   7.501  0.8715 -0.4714 -1.4702
  152SAPE   H6Y16883   2.023   5.856   7.441  1.0103  0.1709  2.1352
  152SAPE   C3716884   2.020   6.003   7.600  0.2015 -0.0978  0.5443
  152SAPE   H7X16885   1.910   6.013   7.588 -0.2054 -3.4066  0.5586
  152SAPE   H7Y16886   2.053   6.108   7.616  0.2561  0.1990 -1.2798
  152SAPE   C3816887   2.045   5.932   7.731  0.4106  0.3891 -0.0143
  152SAPE   H8X16888   2.152   5.925   7.758  0.2761 -1.7183  0.1211
  152SAPE   H8Y16889   2.015   5.826   7.717 -1.0365  0.9551 -1.6121
  152SAPE   C3916890   1.962   5.990   7.850  0.5915 -0.1588  0.4862
  152SAPE   H9X16891   1.858   6.014   7.821  0.7662  0.5198  0.3988
  152SAPE   H9Y16892   1.998   6.088   7.889 -2.2007  2.0050 -1.9296
  152SAPE  C31016893   1.947   5.899   7.968 -0.2457  0.3468 -0.4360
  152SAPE  H10X16894   2.045   5.894   8.020 -0.2964 -0.9987 -0.4239
  152SAPE  H10Y16895   1.918   5.799   7.929  0.2434  0.1339 -0.2572
  152SAPE  C31116896   1.849   5.949   8.077 -0.3874 -0.3625  1.2232
  152SAPE  H11X16897   1.754   5.987   8.033  1.1003  0.8165 -1.1542
  152SAPE  H11Y16898   1.909   6.027   8.129  1.1807  2.0775 -3.5917
  152SAPE  C31216899   1.798   5.836   8.167  0.5128  0.9643 -0.2233
  152SAPE  H12X16900   1.881   5.769   8.197 -1.2043 -1.6549 -0.9944
  152SAPE  H12Y16901   1.743   5.762   8.106  1.1233  0.2805  0.0315
  152SAPE  C31316902   1.710   5.884   8.289 -0.4943  0.6011 -0.1054
  152SAPE  H13X16903   1.638   5.964   8.260 -0.7601  1.4767  2.6537
  152SAPE  H13Y16904   1.777   5.936   8.361 -1.3287  0.6570  0.6486
  152SAPE  C31416905   1.641   5.776   8.373 -0.3352 -0.3286  0.6158
  152SAPE  H14X16906   1.563   5.735   8.305 -0.9414  0.6741  0.6904
  152SAPE  H14Y16907   1.580   5.812   8.458 -1.5892  5.3503 -2.2044
  152SAPE  C31516908   1.736   5.664   8.421 -0.1857  0.2227  0.6117
  152SAPE  H15X16909   1.816   5.702   8.489  0.7085 -0.4212 -0.0459
  152SAPE  H15Y16910   1.786   5.627   8.329  0.9287 -0.2657  1.3866
  152SAPE  C31616911   1.647   5.550   8.476 -0.0729 -0.0254  0.8416
  152SAPE  H16X16912   1.596   5.498   8.393  0.7900 -0.6587  0.6833
  152SAPE  H16Y16913   1.566   5.581   8.545 -0.9881 -2.3015  0.8833
  152SAPE  C31716914   1.733   5.439   8.542  0.1289 -0.2973  0.7309
  152SAPE  H17X16915   1.663   5.353   8.552 -2.8300  1.9567  0.8183
  152SAPE  H17Y16916   1.775   5.469   8.640 -0.2625  1.8929  0.2958
  152SAPE  C31816917   1.844   5.399   8.443 -0.3064  0.6889  0.2855
  152SAPE  H18X16918   1.806   5.404   8.339  0.5938  0.5131 -0.0598
  152SAPE  H18Y16919   1.893   5.306   8.477  1.2492  2.1667  2.3322
  152SAPE  H18Z16920   1.922   5.478   8.449 -0.2526  0.5179  2.5152
  153SAPE     N16921   3.819   5.529   5.962 -0.1332  0.7333  0.3487
  153SAPE   HN116922   3.773   5.532   5.869 -0.9343  3.0411  0.7354
  153SAPE   HN216923   3.837   5.628   5.992 -0.0035  0.9139 -0.3031
  153SAPE   HN316924   3.910   5.478   5.963 -1.5477 -1.9965 -1.2447
  153SAPE   C1216925   3.728   5.454   6.058  0.4808 -0.0726 -0.7937
  153SAPE  H12A16926   3.726   5.350   6.019 -3.1489 -0.4723  0.0824
  153SAPE  H12B16927   3.627   5.500   6.047  0.6822  0.8010  0.7320
  153SAPE   C1116928   3.773   5.452   6.211 -0.4225  0.2778 -0.0677
  153SAPE  H11A16929   3.704   5.380   6.261  0.4819 -0.8338 -0.3864
  153SAPE  H11B16930   3.765   5.558   6.243  1.4632  1.7531 -3.8774
  153SAPE     P16931   3.931   5.239   6.234 -0.6338 -0.1258  0.2407
  153SAPE   O1316932   3.818   5.171   6.172 -0.1746 -0.1374  0.2563
  153SAPE   O1416933   4.068   5.211   6.186 -0.3081  0.2032  0.0577
  153SAPE   O1216934   3.908   5.403   6.221 -0.2185 -0.1927 -0.6869
  153SAPE   O1116935   3.909   5.222   6.386 -0.8002  0.0709 -1.3019
  153SAPE    C116936   3.993   5.288   6.484 -0.2332  0.3008  0.2724
  153SAPE    HA16937   4.021   5.393   6.463  1.3514 -0.1351  0.0935
  153SAPE    HB16938   3.928   5.280   6.574  0.3592 -2.5626  0.5319
  153SAPE    C216939   4.124   5.209   6.513 -0.5028 -0.0925  0.3773
  153SAPE    HS16940   4.144   5.232   6.620  0.2481  0.7226  0.0765
  153SAPE   O2116941   4.232   5.265   6.438 -0.3917  0.2745  0.0178
  153SAPE   C2116942   4.273   5.378   6.483 -0.2035 -0.8342 -0.0780
  153SAPE   O2216943   4.237   5.435   6.586 -0.4075 -0.3636 -0.1389
  153SAPE   C2216944   4.386   5.426   6.393  0.0343  0.0573  0.4739
  153SAPE   H2R16945   4.451   5.342   6.360  1.0000  1.1737 -0.5277
  153SAPE   H2S16946   4.336   5.478   6.309 -1.8274  0.6874  1.8936
  153SAPE    C316947   4.111   5.054   6.491  0.9980  0.3484  0.1112
  153SAPE    HX16948   4.088   5.027   6.386  0.5518  0.0424  0.2891
  153SAPE    HY16949   4.024   5.024   6.553  1.1203 -0.6604 -0.1986
  153SAPE   O3116950   4.234   4.989   6.524  0.1559 -0.1573  0.0940
  153SAPE   C3116951   4.242   4.959   6.655 -1.0479 -0.0611 -0.6198
  153SAPE   O3216952   4.163   4.991   6.744  0.7925  0.5250  0.1157
  153SAPE   C3216953   4.355   4.859   6.665 -0.5957  0.0501  0.9897
  153SAPE   H2X16954   4.322   4.756   6.641  0.4303 -0.3210  1.0783
  153SAPE   H2Y16955   4.376   4.854   6.774 -0.1371  1.0999  0.9623
  153SAPE   C2316956   4.482   5.524   6.477 -0.1206  0.0494  0.6938
  153SAPE   H3R16957   4.417   5.589   6.540  1.3500 -0.5553  2.9436
  153SAPE   H3S16958   4.532   5.598   6.411 -1.5420 -0.0418 -0.5426
  153SAPE   C2416959   4.583   5.452   6.563  0.2193  0.0615  0.3495
  153SAPE   H4R16960   4.641   5.392   6.489 -1.0617  0.9837 -1.4740
  153SAPE   H4S16961   4.535   5.383   6.635 -1.6134  0.3561 -0.5267
  153SAPE   C2516962   4.669   5.558   6.627 -0.1997  0.7924 -0.1836
  153SAPE   H5R16963   4.758   5.585   6.569  0.4953  0.0447  0.5105
  153SAPE   C2616964   4.641   5.611   6.747  0.0248 -0.2896 -0.2877
  153SAPE   H6R16965   4.704   5.693   6.785 -0.2488  0.1099 -0.6847
  153SAPE   C2716966   4.526   5.572   6.831 -0.4368 -0.4413  0.1173
  153SAPE   H7R16967   4.440   5.567   6.761 -1.5936  2.0566  1.2305
  153SAPE   H7S16968   4.485   5.663   6.880 -1.4122 -0.6489 -0.2908
  153SAPE   C2816969   4.536   5.451   6.916  0.0784  0.1492  0.6766
  153SAPE   H8R16970   4.635   5.407   6.935  0.0584 -0.2454 -0.0940
  153SAPE   C2916971   4.433   5.399   6.982 -0.2937  0.7338  0.1009
  153SAPE   H9R16972   4.442   5.313   7.051 -0.2724  0.0775 -0.7090
  153SAPE  C21016973   4.286   5.443   6.986  0.4197 -0.1691  0.1135
  153SAPE  H10R16974   4.233   5.387   6.906  1.2652 -0.0403 -0.5493
  153SAPE  H10S16975   4.274   5.552   6.970  1.1534  0.1517  1.5705
  153SAPE  C21116976   4.200   5.422   7.107  0.2992  0.4198 -0.1654
  153SAPE  H11R16977   4.110   5.361   7.092 -1.1086  2.7083 -1.6139
  153SAPE  C21216978   4.218   5.486   7.223  0.4229  0.0201 -0.4234
  153SAPE  H12R16979   4.158   5.445   7.306  0.1156 -0.4902 -0.8863
  153SAPE  C21316980   4.328   5.588   7.249 -0.4930  0.0454  0.3104
  153SAPE  H13R16981   4.387   5.626   7.164  2.1947 -0.3314  1.8956
  153SAPE  H13S16982   4.407   5.552   7.318 -0.0645  1.1477  0.4030
  153SAPE  C21416983   4.258   5.703   7.313 -0.0442  0.3156  0.1548
  153SAPE  H14R16984   4.185   5.761   7.255 -2.9750 -2.9087  0.2364
  153SAPE  C21516985   4.274   5.736   7.444  0.5403 -1.2385  0.1266
  153SAPE  H15R16986   4.227   5.831   7.474  0.1749 -1.2209 -0.4955
  153SAPE  C21616987   4.357   5.670   7.555  0.4358  0.0703  0.0834
  153SAPE  H16R16988   4.467   5.663   7.542  0.9759  0.2363  3.5480
  153SAPE  H16S16989   4.335   5.561   7.568  2.7300 -0.3121  1.1572
  153SAPE  C21716990   4.311   5.733   7.686 -1.1284  0.1636  0.3404
  153SAPE  H17R16991   4.209   5.694   7.706 -1.5928  0.7069 -0.8746
  153SAPE  H17S16992   4.304   5.844   7.684 -1.5924  0.1208 -1.3604
  153SAPE  C21816993   4.403   5.692   7.802  0.2472 -0.3042  0.4774
  153SAPE  H18R16994   4.507   5.728   7.785 -0.5667  1.6484 -0.6997
  153SAPE  H18S16995   4.407   5.581   7.805  1.2902 -0.4875 -3.1082
  153SAPE  C21916996   4.352   5.755   7.934  0.4743  0.2276 -0.3036
  153SAPE  H19R16997   4.252   5.723   7.968  0.0436  1.3300 -0.4859
  153SAPE  H19S16998   4.343   5.865   7.922 -1.6715  0.0458 -0.7613
  153SAPE  C22016999   4.443   5.723   8.048 -0.3268 -0.4216  0.1631
  153SAPE  H20R17000   4.407   5.788   8.130 -1.1786 -0.5753 -0.0812
  153SAPE  H20S17001   4.548   5.751   8.025 -0.8795  1.8903  0.2930
  153SAPE  H20T17002   4.437   5.619   8.088  0.2163 -0.3588  0.4236
  153SAPE   C3317003   4.483   4.879   6.581 -0.5596 -0.1766 -0.4483
  153SAPE   H3X17004   4.460   4.878   6.472 -0.6383 -2.6278 -0.4651
  153SAPE   H3Y17005   4.556   4.798   6.603 -0.0325  0.5120  0.3858
  153SAPE   C3417006   4.554   5.006   6.621  0.9919  0.1558 -0.5043
  153SAPE   H4X17007   4.491   5.093   6.648  0.1077 -0.4546 -0.5672
  153SAPE   H4Y17008   4.609   5.027   6.526 -1.2856  0.0254 -1.9307
  153SAPE   C3517009   4.658   4.988   6.736  0.5244  0.5973 -0.3507
  153SAPE   H5X17010   4.742   4.923   6.702  2.0963  1.1112  2.2748
  153SAPE   H5Y17011   4.601   4.936   6.816  1.1043  2.8134  1.6111
  153SAPE   C3617012   4.726   5.114   6.790 -0.5095  0.8209  0.2400
  153SAPE   H6X17013   4.774   5.075   6.883  0.0680  0.0312 -0.3741
  153SAPE   H6Y17014   4.661   5.193   6.835  0.4789  1.0624  1.2962
  153SAPE   C3717015   4.834   5.159   6.687  1.0493  0.6074  0.1718
  153SAPE   H7X17016   4.774   5.197   6.601 -0.7830  1.1936  1.6476
  153SAPE   H7Y17017   4.898   5.074   6.655 -0.4517 -0.3286 -0.4784
  153SAPE   C3817018   4.927   5.266   6.739  0.3392  0.2407 -0.6772
  153SAPE   H8X17019   4.871   5.361   6.755 -3.5144 -2.0446  0.5684
  153SAPE   H8Y17020   5.002   5.285   6.659  2.2577  0.9519  1.1815
  153SAPE   C3917021   5.001   5.232   6.873  1.0371 -0.3766 -1.0226
  153SAPE   H9X17022   4.933   5.227   6.961  2.0085 -0.6599 -0.2770
  153SAPE   H9Y17023   5.068   5.317   6.901  0.3380 -0.2877  0.4590
  153SAPE  C31017024   5.100   5.114   6.870  0.7600 -0.5914 -0.3411
  153SAPE  H10X17025   5.175   5.123   6.789  0.6680 -0.4982 -0.4154
  153SAPE  H10Y17026   5.049   5.015   6.863 -0.6727  0.1267 -0.4437
  153SAPE  C31117027   5.182   5.110   7.005 -0.2399 -0.2005  0.2367
  153SAPE  H11X17028   5.224   5.211   7.025  0.4872 -0.6782  1.2135
  153SAPE  H11Y17029   5.270   5.042   7.006  0.5321  0.4880 -3.6516
  153SAPE  C31217030   5.098   5.058   7.122 -0.2683 -0.0272  0.0800
  153SAPE  H12X17031   5.087   4.949   7.103  1.2258 -0.6223  2.1856
  153SAPE  H12Y17032   4.993   5.094   7.114 -0.5800 -0.9531 -0.0686
  153SAPE  C31317033   5.159   5.100   7.261 -0.3802 -0.1358 -0.0039
  153SAPE  H13X17034   5.161   5.211   7.256 -1.0493 -0.1826 -1.6748
  153SAPE  H13Y17035   5.265   5.064   7.265 -0.5763 -0.8179 -0.7486
  153SAPE  C31417036   5.076   5.070   7.385  0.1738 -0.5009  0.1063
  153SAPE  H14X17037   4.978   5.115   7.359  0.8518  1.1454  0.2856
  153SAPE  H14Y17038   5.130   5.126   7.464 -0.8979  1.3008 -0.3925
  153SAPE  C31517039   5.065   4.918   7.413  0.0633 -0.8211 -0.1116
  153SAPE  H15X17040   5.066   4.872   7.312  1.6384 -2.4376  0.5820
  153SAPE  H15Y17041   4.971   4.890   7.465 -0.2618  1.3718  0.5975
  153SAPE  C31617042   5.187   4.866   7.492  0.3978 -0.6565 -0.1763
  153SAPE  H16X17043   5.280   4.864   7.431  3.0231 -0.9213  3.5054
  153SAPE  H16Y17044   5.161   4.759   7.498 -0.3745 -0.4148  1.1024
  153SAPE  C31717045   5.220   4.943   7.619  0.1398  0.0996  0.1219
  153SAPE  H17X17046   5.259   5.042   7.585  0.9033 -0.9499 -2.2753
  153SAPE  H17Y17047   5.301   4.892   7.675 -0.3068 -0.8204 -0.0591
  153SAPE  C31817048   5.104   4.956   7.713  0.9664  0.3481 -0.3769
  153SAPE  H18X17049   5.016   5.004   7.666  0.4098  0.4602  0.7586
  153SAPE  H18Y17050   5.143   5.009   7.802  1.0242 -3.1062  1.8118
  153SAPE  H18Z17051   5.075   4.855   7.747  2.9812  0.0779  0.6718
  154SAPE     N17052   3.169   5.315   6.277  0.0751 -0.5783  0.3051
  154SAPE   HN117053   3.089   5.381   6.286  0.0061 -0.4207 -1.1467
  154SAPE   HN217054   3.128   5.219   6.280  1.8178 -1.4256 -1.2078
  154SAPE   HN317055   3.239   5.329   6.352 -0.0209  1.1309  0.1004
  154SAPE   C1217056   3.256   5.326   6.156 -0.5553 -0.0372 -0.5283
  154SAPE  H12A17057   3.293   5.430   6.146 -1.9059  0.5085 -0.1722
  154SAPE  H12B17058   3.198   5.294   6.066 -0.4990 -3.3532  0.4913
  154SAPE   C1117059   3.364   5.217   6.168  0.0802 -0.3278 -0.0619
  154SAPE  H11A17060   3.426   5.222   6.259 -1.5931  0.8149  1.0755
  154SAPE  H11B17061   3.438   5.232   6.087  0.8621  1.7471  0.9731
  154SAPE     P17062   3.362   4.971   6.080  0.2419  0.1458 -0.2600
  154SAPE   O1317063   3.272   4.933   5.970 -0.0371  0.1928  0.2843
  154SAPE   O1417064   3.504   5.005   6.052  0.4852  0.0885 -0.0975
  154SAPE   O1217065   3.302   5.089   6.165 -0.6246 -0.1774 -0.2884
  154SAPE   O1117066   3.376   4.849   6.182  0.3821 -0.1972  0.3919
  154SAPE    C117067   3.431   4.877   6.311  0.0259  0.6297 -0.1112
  154SAPE    HA17068   3.474   4.782   6.349 -0.1211 -0.3777 -2.3164
  154SAPE    HB17069   3.513   4.952   6.316  0.5292  0.0352  0.9691
  154SAPE    C217070   3.327   4.927   6.411 -0.0128  1.0948 -0.5310
  154SAPE    HS17071   3.308   5.035   6.393  1.8044  1.5935  0.3196
  154SAPE   O2117072   3.376   4.920   6.550 -0.4912  0.0681  0.0196
  154SAPE   C2117073   3.467   5.016   6.578 -0.3100 -0.0011  0.2843
  154SAPE   O2217074   3.511   5.099   6.498 -0.2137  0.4831 -0.2817
  154SAPE   C2217075   3.503   5.011   6.733 -0.4207 -0.4275  0.1771
  154SAPE   H2R17076   3.505   4.910   6.780  0.6832  0.7254  2.8740
  154SAPE   H2S17077   3.603   5.058   6.744 -1.5966  2.2039  0.4084
  154SAPE    C317078   3.189   4.856   6.413 -0.2785  0.6203  0.2647
  154SAPE    HX17079   3.204   4.746   6.419 -1.7164  0.3880  0.0445
  154SAPE    HY17080   3.129   4.866   6.319 -1.5427 -0.6170  0.9068
  154SAPE   O3117081   3.095   4.885   6.518 -0.5161  0.1785 -0.3082
  154SAPE   C3117082   3.036   5.002   6.503  0.9137 -0.0185  1.0485
  154SAPE   O3217083   3.031   5.073   6.403 -0.8006  0.5056  0.4671
  154SAPE   C3217084   2.969   5.034   6.635 -0.4627  0.3928  0.4355
  154SAPE   H2X17085   2.925   5.134   6.615 -0.3615  0.3100 -0.2132
  154SAPE   H2Y17086   3.042   5.047   6.717 -0.9855  0.2295  0.9354
  154SAPE   C2317087   3.423   5.124   6.811  0.4738  0.4190 -0.2938
  154SAPE   H3R17088   3.425   5.216   6.748  1.3152 -1.6455 -3.5568
  154SAPE   H3S17089   3.485   5.157   6.897 -2.1535  0.9471  1.4951
  154SAPE   C2417090   3.287   5.086   6.883  0.1106  0.2812  0.0036
  154SAPE   H4R17091   3.210   5.092   6.804  2.7853  1.1388 -2.7605
  154SAPE   H4S17092   3.255   5.164   6.955  1.2949 -0.4038  1.3442
  154SAPE   C2517093   3.290   4.949   6.949 -0.2075 -0.2832 -0.1977
  154SAPE   H5R17094   3.253   4.867   6.886 -0.3723 -1.5616  1.4949
  154SAPE   C2617095   3.322   4.926   7.080  0.2175 -0.0873  0.4176
  154SAPE   H6R17096   3.309   4.822   7.113 -1.9053  0.0935  0.2913
  154SAPE   C2717097   3.375   5.018   7.186  0.2555 -0.2531 -0.0297
  154SAPE   H7R17098   3.296   5.014   7.264  0.1191  0.8900 -0.1016
  154SAPE   H7S17099   3.385   5.121   7.147  1.2660  0.5894  2.2478
  154SAPE   C2817100   3.512   4.977   7.241  0.4676  0.6587 -0.2360
  154SAPE   H8R17101   3.597   4.947   7.178 -0.6518 -1.1904 -0.9672
  154SAPE   C2917102   3.545   4.974   7.375  0.0587 -0.1423  0.6293
  154SAPE   H9R17103   3.651   4.949   7.388  1.3071  2.7219 -2.5257
  154SAPE  C21017104   3.459   5.015   7.497  0.1008  0.4609 -0.2908
  154SAPE  H10R17105   3.422   4.926   7.552 -1.2702  0.7246 -0.7631
  154SAPE  H10S17106   3.375   5.084   7.474 -1.2319 -0.3130  1.9287
  154SAPE  C21117107   3.562   5.089   7.576 -0.0692  1.6398  0.1017
  154SAPE  H11R17108   3.615   5.172   7.527 -0.8176  1.6548 -0.6867
  154SAPE  C21217109   3.617   5.049   7.698  0.2215 -0.3241 -0.0137
  154SAPE  H12R17110   3.698   5.113   7.736  0.4940 -0.2711 -0.6801
  154SAPE  C21317111   3.582   4.940   7.793 -0.4095  0.1859 -0.0968
  154SAPE  H13R17112   3.566   4.851   7.729  0.6769  0.5786 -0.9494
  154SAPE  H13S17113   3.484   4.945   7.845 -0.3677 -3.3215  0.5149
  154SAPE  C21417114   3.679   4.905   7.897 -0.6134 -0.9174  1.3106
  154SAPE  H14R17115   3.714   4.801   7.888 -2.7892 -1.6819  1.1401
  154SAPE  C21517116   3.684   4.971   8.015 -0.3908 -0.0712  0.3954
  154SAPE  H15R17117   3.767   4.944   8.083 -0.9696 -0.6655  0.8834
  154SAPE  C21617118   3.615   5.091   8.049  0.3055 -0.2413 -1.0525
  154SAPE  H16R17119   3.519   5.104   7.996 -0.8380  1.8800  1.2869
  154SAPE  H16S17120   3.668   5.186   8.022 -0.6979  0.0603 -2.0270
  154SAPE  C21717121   3.579   5.112   8.197  0.0211  0.5424  0.6443
  154SAPE  H17R17122   3.570   5.221   8.217  3.2318  1.1881 -0.7589
  154SAPE  H17S17123   3.665   5.075   8.258  0.3155  0.4167  0.1582
  154SAPE  C21817124   3.459   5.031   8.251 -0.0644  0.0277 -0.4107
  154SAPE  H18R17125   3.461   5.032   8.362 -0.4278  0.2430 -0.4045
  154SAPE  H18S17126   3.474   4.931   8.207 -1.4296  0.0504 -0.9530
  154SAPE  C21917127   3.320   5.078   8.198  0.8066 -0.3964 -0.6439
  154SAPE  H19R17128   3.244   5.002   8.224  1.7155 -0.5981  1.7132
  154SAPE  H19S17129   3.319   5.086   8.087 -0.8833  0.2356 -0.6185
  154SAPE  C22017130   3.269   5.216   8.255  0.4398  0.1267 -0.0893
  154SAPE  H20R17131   3.311   5.297   8.192 -0.4281  1.3142  0.8102
  154SAPE  H20S17132   3.306   5.219   8.359 -0.5374 -0.1435  0.2743
  154SAPE  H20T17133   3.159   5.228   8.263  0.6155  3.4503 -1.3356
  154SAPE   C3317134   2.872   4.924   6.676 -0.2650  0.5176 -0.3803
  154SAPE   H3X17135   2.798   4.890   6.602 -0.4877  0.8809 -0.3296
  154SAPE   H3Y17136   2.813   4.982   6.750  0.4461 -0.5372  1.0697
  154SAPE   C3417137   2.935   4.815   6.766 -0.1739  1.3454 -0.0538
  154SAPE   H4X17138   2.933   4.866   6.864 -2.2652  2.0274 -0.4006
  154SAPE   H4Y17139   3.038   4.783   6.736 -0.1962  1.7127 -0.5398
  154SAPE   C3517140   2.841   4.690   6.784 -0.0058  0.5612 -0.2025
  154SAPE   H5X17141   2.889   4.613   6.848 -0.5959 -1.4015 -2.0154
  154SAPE   H5Y17142   2.835   4.644   6.683 -0.3943 -0.5213  0.2920
  154SAPE   C3617143   2.699   4.729   6.833 -0.2717  0.6084  0.0030
  154SAPE   H6X17144   2.632   4.640   6.825  2.0791 -1.5332  2.1646
  154SAPE   H6Y17145   2.654   4.801   6.763 -0.9578  1.3571  1.1854
  154SAPE   C3717146   2.686   4.775   6.979  0.1646 -0.3139 -0.5324
  154SAPE   H7X17147   2.577   4.758   6.994  0.7359 -2.1339  2.3445
  154SAPE   H7Y17148   2.706   4.884   6.985 -1.2683 -0.1095  3.5654
  154SAPE   C3817149   2.764   4.703   7.085 -0.0043 -0.0798 -0.7676
  154SAPE   H8X17150   2.872   4.726   7.085  0.1265 -0.6442 -1.4544
  154SAPE   H8Y17151   2.752   4.593   7.069  1.3861 -0.2473 -0.7730
  154SAPE   C3917152   2.695   4.741   7.226 -0.4969 -0.3277 -0.6547
  154SAPE   H9X17153   2.584   4.747   7.217 -0.4484  0.1840 -0.9733
  154SAPE   H9Y17154   2.729   4.844   7.250 -0.1908  0.1211 -2.7605
  154SAPE  C31017155   2.728   4.639   7.338 -0.7189  0.5784  0.2164
  154SAPE  H10X17156   2.838   4.625   7.341 -0.4718  1.8666 -1.5077
  154SAPE  H10Y17157   2.687   4.536   7.330  1.2142 -0.2145 -0.0004
  154SAPE  C31117158   2.678   4.686   7.478  0.4405  0.2542  0.3968
  154SAPE  H11X17159   2.575   4.726   7.470 -0.6606 -2.2614  0.9143
  154SAPE  H11Y17160   2.731   4.780   7.504  0.6039  0.8920 -2.0396
  154SAPE  C31217161   2.673   4.591   7.591  0.9641  0.8384 -0.1744
  154SAPE  H12X17162   2.602   4.507   7.583  0.9012  0.9830 -1.2589
  154SAPE  H12Y17163   2.639   4.650   7.679 -0.9108 -2.1489  1.2524
  154SAPE  C31317164   2.803   4.527   7.623  0.1209 -0.2220 -0.5884
  154SAPE  H13X17165   2.874   4.603   7.662  0.4684 -0.8168 -0.0338
  154SAPE  H13Y17166   2.844   4.496   7.524 -3.3620 -2.1401 -1.5954
  154SAPE  C31417167   2.809   4.393   7.688 -0.4434  0.8036 -0.0215
  154SAPE  H14X17168   2.902   4.334   7.671 -0.0613  0.4478  2.8893
  154SAPE  H14Y17169   2.730   4.331   7.642 -1.6811  0.8023  1.9932
  154SAPE  C31517170   2.785   4.377   7.834  0.2442 -0.3362  0.3999
  154SAPE  H15X17171   2.692   4.437   7.849 -1.3611 -2.1934 -1.4596
  154SAPE  H15Y17172   2.864   4.432   7.889 -0.3641  0.9120  0.0738
  154SAPE  C31617173   2.768   4.238   7.875  0.2239  0.5302  0.5405
  154SAPE  H16X17174   2.864   4.186   7.857 -0.6656 -0.7899 -0.6878
  154SAPE  H16Y17175   2.688   4.186   7.817  1.9442  0.3273 -1.8108
  154SAPE  C31717176   2.731   4.232   8.020 -0.4989 -0.0989 -0.3334
  154SAPE  H17X17177   2.794   4.303   8.078 -0.1411 -1.6675  1.2845
  154SAPE  H17Y17178   2.763   4.138   8.070  1.0498  2.0130  3.0386
  154SAPE  C31817179   2.585   4.247   8.054  0.1634  0.1175 -0.1202
  154SAPE  H18X17180   2.529   4.166   8.004 -1.6980  1.1131  0.2679
  154SAPE  H18Y17181   2.549   4.342   8.007  1.7850  0.3682 -0.9524
  154SAPE  H18Z17182   2.554   4.258   8.159 -0.7836  2.5043 -0.5757
  155SAPE     N17183   2.881   6.400   6.305 -0.2618  0.7163  0.1109
  155SAPE   HN117184   2.785   6.383   6.268 -0.0733  0.0993 -0.1142
  155SAPE   HN217185   2.860   6.474   6.375 -1.5356  1.0939 -0.6420
  155SAPE   HN317186   2.939   6.427   6.223 -1.4217  1.0012 -0.6379
  155SAPE   C1217187   2.947   6.271   6.357 -0.0754 -0.1139 -0.2527
  155SAPE  H12A17188   2.961   6.196   6.276 -0.1946 -0.8232  0.3765
  155SAPE  H12B17189   2.883   6.218   6.430 -0.1321  0.9885  0.5312
  155SAPE   C1117190   3.075   6.320   6.433  0.1376 -0.1626 -0.1600
  155SAPE  H11A17191   3.117   6.237   6.494  1.0731  0.4894  0.1125
  155SAPE  H11B17192   3.053   6.396   6.511 -1.1312  0.0310 -0.6888
  155SAPE     P17193   3.272   6.274   6.255 -0.3580 -0.0009  0.1993
  155SAPE   O1317194   3.194   6.203   6.152  0.1510 -0.1773 -0.1807
  155SAPE   O1417195   3.388   6.352   6.208 -0.1135  0.3426 -0.0158
  155SAPE   O1217196   3.175   6.368   6.338 -0.0898  0.4138 -0.1745
  155SAPE   O1117197   3.315   6.173   6.363 -0.2791  0.0996  0.3820
  155SAPE    C117198   3.390   6.210   6.474 -0.4136  0.1188  1.2643
  155SAPE    HA17199   3.386   6.320   6.488 -5.7123  0.2726  0.7139
  155SAPE    HB17200   3.341   6.156   6.558  0.6408 -2.6671  0.2147
  155SAPE    C217201   3.541   6.163   6.474 -0.0344 -0.0759  0.0953
  155SAPE    HS17202   3.592   6.204   6.384  0.8542 -2.3766 -0.5276
  155SAPE   O2117203   3.549   6.016   6.481 -0.5943  0.2164  0.0433
  155SAPE   C2117204   3.673   5.967   6.463  0.4235  0.6194  0.2945
  155SAPE   O2217205   3.766   6.026   6.414 -0.1098 -0.6133 -0.4201
  155SAPE   C2217206   3.679   5.823   6.505  0.7295 -0.3888  0.0496
  155SAPE   H2R17207   3.598   5.808   6.579  0.9704 -1.8330  0.0422
  155SAPE   H2S17208   3.660   5.763   6.413 -0.3339  0.5609 -0.3761
  155SAPE    C317209   3.615   6.223   6.598  0.3794 -0.0872  0.5445
  155SAPE    HX17210   3.593   6.331   6.580 -0.6920 -0.3279  0.3548
  155SAPE    HY17211   3.723   6.207   6.577  0.3278 -0.5728  0.6453
  155SAPE   O3117212   3.578   6.181   6.731  0.1437  0.0584 -0.0643
  155SAPE   C3117213   3.500   6.265   6.800  0.2142  0.5026  0.1048
  155SAPE   O3217214   3.445   6.363   6.756  0.3759  0.2946 -0.2216
  155SAPE   C3217215   3.492   6.214   6.939  0.2008  0.2167 -0.5667
  155SAPE   H2X17216   3.393   6.255   6.967  0.3561  1.9065 -2.2499
  155SAPE   H2Y17217   3.565   6.273   6.999 -0.3415  1.3554 -0.9913
  155SAPE   C2317218   3.818   5.775   6.555  0.4104 -0.0720 -0.1750
  155SAPE   H3R17219   3.858   5.870   6.595  0.2475  0.7896 -1.9306
  155SAPE   H3S17220   3.880   5.748   6.466 -0.1846  0.6191 -0.8100
  155SAPE   C2417221   3.817   5.658   6.655 -0.0730 -0.0776 -0.6625
  155SAPE   H4R17222   3.766   5.569   6.612  0.6646 -0.1566 -1.4165
  155SAPE   H4S17223   3.757   5.689   6.743  0.4400 -2.8586  0.7865
  155SAPE   C2517224   3.957   5.627   6.692  0.0514  0.0995 -0.2599
  155SAPE   H5R17225   3.999   5.569   6.608  0.9133  1.9527 -1.1497
  155SAPE   C2617226   4.032   5.651   6.803 -0.0244 -0.6485  0.5141
  155SAPE   H6R17227   4.137   5.618   6.803 -0.2231 -1.4291 -1.4776
  155SAPE   C2717228   3.989   5.722   6.928  0.4461  0.0249  0.4370
  155SAPE   H7R17229   3.954   5.820   6.889  0.8858  0.3077  0.7334
  155SAPE   H7S17230   4.077   5.743   6.993  1.2594  1.3628 -1.0358
  155SAPE   C2817231   3.881   5.642   7.009 -0.1198  0.1729  0.4582
  155SAPE   H8R17232   3.864   5.544   6.962  0.9010  0.3459 -0.2963
  155SAPE   C2917233   3.839   5.656   7.134  0.1467 -0.4961 -0.3878
  155SAPE   H9R17234   3.754   5.599   7.176  0.0840  0.0557  0.2522
  155SAPE  C21017235   3.877   5.761   7.230 -0.3380  0.4671 -0.2490
  155SAPE  H10R17236   3.840   5.855   7.184 -1.9909 -0.9110 -1.9258
  155SAPE  H10S17237   3.986   5.778   7.223 -0.6466  2.0739 -1.7525
  155SAPE  C21117238   3.838   5.757   7.378 -0.4928 -0.1079  1.0043
  155SAPE  H11R17239   3.906   5.709   7.449  3.7732  1.9937 -1.2673
  155SAPE  C21217240   3.724   5.808   7.428 -0.2865 -0.1843  0.5203
  155SAPE  H12R17241   3.714   5.818   7.537 -0.7915  1.8766  0.3249
  155SAPE  C21317242   3.617   5.880   7.349  0.1663  0.4010 -0.0087
  155SAPE  H13R17243   3.620   5.847   7.243 -1.5238 -0.2344  0.1056
  155SAPE  H13S17244   3.655   5.984   7.357 -0.3053  0.4879  1.5214
  155SAPE  C21417245   3.474   5.890   7.387  0.1148 -0.4850 -0.1650
  155SAPE  H14R17246   3.424   5.792   7.384  1.6755 -1.4444  1.9254
  155SAPE  C21517247   3.401   5.998   7.418  0.1526  0.5949  0.2421
  155SAPE  H15R17248   3.297   5.971   7.439  0.5938  0.0576  1.8916
  155SAPE  C21617249   3.443   6.139   7.426 -0.6885  0.3554  0.1108
  155SAPE  H16R17250   3.380   6.211   7.370  0.1030  0.0247 -1.2465
  155SAPE  H16S17251   3.545   6.154   7.384 -1.0666  1.6696 -0.3948
  155SAPE  C21717252   3.431   6.185   7.569 -0.3977 -1.0181  0.4447
  155SAPE  H17R17253   3.495   6.120   7.633 -0.6459  2.1968  4.3754
  155SAPE  H17S17254   3.328   6.174   7.609 -0.2637  0.2771  1.2345
  155SAPE  C21817255   3.486   6.330   7.597  0.3273  0.2862 -0.3737
  155SAPE  H18R17256   3.435   6.410   7.540  2.6737  1.2688 -1.2120
  155SAPE  H18S17257   3.588   6.326   7.553  0.4421 -1.7408 -0.0473
  155SAPE  C21917258   3.502   6.371   7.749 -0.5892  0.0558  1.1371
  155SAPE  H19R17259   3.397   6.374   7.786 -1.0766 -0.1362 -0.1873
  155SAPE  H19S17260   3.550   6.472   7.751 -0.1043 -0.1454  0.2089
  155SAPE  C22017261   3.588   6.277   7.833  0.0456 -0.3815  0.0563
  155SAPE  H20R17262   3.572   6.304   7.940  0.6912  2.6093 -0.4953
  155SAPE  H20S17263   3.697   6.289   7.816  0.6223  1.2302  3.8704
  155SAPE  H20T17264   3.560   6.170   7.823  0.2275 -0.6838  2.3577
  155SAPE   C3317265   3.501   6.067   6.960  0.2872  0.2518  0.5101
  155SAPE   H3X17266   3.512   6.054   7.070  0.4333  2.3282  0.7696
  155SAPE   H3Y17267   3.601   6.038   6.921 -0.1514 -1.2477  0.4263
  155SAPE   C3417268   3.381   5.986   6.893  0.2164 -0.1357 -0.4538
  155SAPE   H4X17269   3.389   5.997   6.783  1.8118  1.6530 -0.2165
  155SAPE   H4Y17270   3.289   6.037   6.929  1.6074  1.2446  1.3553
  155SAPE   C3517271   3.380   5.846   6.945 -1.2203 -0.0079 -0.0731
  155SAPE   H5X17272   3.294   5.799   6.892  0.3671 -2.7087 -0.4435
  155SAPE   H5Y17273   3.366   5.847   7.056 -2.1109 -1.6560 -0.1361
  155SAPE   C3617274   3.496   5.750   6.903 -0.3320 -0.0132 -0.6787
  155SAPE   H6X17275   3.591   5.786   6.949  1.3764 -3.1421 -1.4547
  155SAPE   H6Y17276   3.504   5.752   6.792 -0.7729  1.4330 -0.7091
  155SAPE   C3717277   3.484   5.608   6.940  0.2374  0.1441 -0.3749
  155SAPE   H7X17278   3.575   5.550   6.916 -0.5646 -1.5269  0.4144
  155SAPE   H7Y17279   3.402   5.553   6.889  1.5382 -0.3884 -1.9499
  155SAPE   C3817280   3.461   5.586   7.087 -0.2912 -0.0567 -0.2208
  155SAPE   H8X17281   3.354   5.615   7.102 -0.2053  0.7023 -0.9907
  155SAPE   H8Y17282   3.512   5.655   7.157 -0.6669 -1.3050  1.3282
  155SAPE   C3917283   3.484   5.446   7.141 -0.6902 -0.1654  0.2390
  155SAPE   H9X17284   3.592   5.425   7.151 -0.5822  1.3019  3.0774
  155SAPE   H9Y17285   3.439   5.365   7.079  0.8706  0.6249 -2.0527
  155SAPE  C31017286   3.441   5.427   7.289  0.0844 -0.1882  0.0006
  155SAPE  H10X17287   3.432   5.316   7.293 -0.0402 -0.1891 -0.2334
  155SAPE  H10Y17288   3.340   5.473   7.291 -0.5911 -1.5638 -0.6625
  155SAPE  C31117289   3.550   5.478   7.388  0.3377  0.1356 -0.1111
  155SAPE  H11X17290   3.591   5.580   7.372 -1.7219  0.8499 -1.2279
  155SAPE  H11Y17291   3.638   5.412   7.370 -1.7368 -2.9483  0.3472
  155SAPE  C31217292   3.497   5.463   7.532 -0.8707  0.4820  0.2957
  155SAPE  H12X17293   3.454   5.362   7.554  0.8596 -0.3142  0.1647
  155SAPE  H12Y17294   3.415   5.537   7.544 -1.2989  0.0355  0.1911
  155SAPE  C31317295   3.605   5.501   7.630  0.2780  0.2567 -0.0707
  155SAPE  H13X17296   3.623   5.609   7.615 -1.9785  0.8096  0.8212
  155SAPE  H13Y17297   3.699   5.443   7.617  0.9817  1.1982  0.6611
  155SAPE  C31417298   3.555   5.468   7.771 -0.4989  0.1222 -0.2849
  155SAPE  H14X17299   3.523   5.361   7.778 -0.7039  0.2882  2.8768
  155SAPE  H14Y17300   3.467   5.533   7.788  1.1791  2.1113  1.3749
  155SAPE  C31517301   3.673   5.485   7.872 -0.8968 -0.8588 -0.6377
  155SAPE  H15X17302   3.714   5.585   7.848 -0.2415 -0.8659  0.3829
  155SAPE  H15Y17303   3.756   5.413   7.850 -0.8703 -1.4567  1.2766
  155SAPE  C31617304   3.617   5.475   8.017  0.0722  0.5296 -0.1592
  155SAPE  H16X17305   3.570   5.375   8.025  3.1129 -1.2176 -1.9929
  155SAPE  H16Y17306   3.540   5.554   8.024 -1.6363 -1.1703  1.3162
  155SAPE  C31717307   3.721   5.492   8.130  0.3206 -0.1328  0.1737
  155SAPE  H17X17308   3.791   5.574   8.103 -0.7783  1.1527  1.1120
  155SAPE  H17Y17309   3.784   5.400   8.136  0.0425 -0.2576  1.6175
  155SAPE  C31817310   3.653   5.522   8.259 -0.1871 -0.1845 -0.1568
  155SAPE  H18X17311   3.573   5.448   8.282 -0.8660  0.7575  0.5794
  155SAPE  H18Y17312   3.600   5.619   8.268  0.0928 -0.1068  0.8490
  155SAPE  H18Z17313   3.726   5.518   8.343  0.2648  1.8063 -0.4077
  156SAPE     N17314   6.657   1.096   6.377  0.5833  0.5545  0.2692
  156SAPE   HN117315   6.633   1.191   6.343  1.1094  0.6437  0.1389
  156SAPE   HN217316   6.569   1.046   6.402  0.5369  0.4546 -0.0843
  156SAPE   HN317317   6.693   1.104   6.474 -1.5603  0.6556  1.1243
  156SAPE   C1217318   6.729   1.009   6.284 -0.3318 -0.9273 -0.2208
  156SAPE  H12A17319   6.671   0.997   6.189  0.8535  0.3275 -1.1322
  156SAPE  H12B17320   6.742   0.905   6.321  1.1227  0.2632  2.8608
  156SAPE   C1117321   6.864   1.083   6.252 -0.1994 -0.7620  0.5001
  156SAPE  H11A17322   6.830   1.186   6.226  0.5144  0.2425  3.2660
  156SAPE  H11B17323   6.919   1.034   6.168  1.4131 -0.8639  1.5605
  156SAPE     P17324   7.025   0.973   6.433  0.0936  0.6064 -0.3027
  156SAPE   O1317325   7.025   0.848   6.350 -0.2164  0.1505  0.1671
  156SAPE   O1417326   7.158   1.028   6.454  0.5161 -0.1658 -0.3492
  156SAPE   O1217327   6.940   1.090   6.367 -0.1051  0.2969  0.2248
  156SAPE   O1117328   6.943   0.954   6.565 -0.1086  0.4385  0.1363
  156SAPE    C117329   7.001   0.916   6.689  0.9625 -0.2627  0.0519
  156SAPE    HA17330   6.924   0.876   6.758  1.7231 -1.0018  0.4912
  156SAPE    HB17331   7.081   0.841   6.669  1.0928  0.1241 -0.9242
  156SAPE    C217332   7.066   1.040   6.756 -0.0807 -0.4914 -0.0516
  156SAPE    HS17333   7.139   1.077   6.682 -1.5367  0.6944 -0.9661
  156SAPE   O2117334   7.125   0.977   6.874  0.1808 -0.3968 -0.1801
  156SAPE   C2117335   7.200   1.070   6.944 -0.7335  0.5718  0.0749
  156SAPE   O2217336   7.242   1.167   6.891 -0.1158 -0.5584 -0.3335
  156SAPE   C2217337   7.236   1.030   7.089 -0.3423 -0.7868  0.0063
  156SAPE   H2R17338   7.260   0.922   7.091  0.1479 -0.6724  1.1326
  156SAPE   H2S17339   7.324   1.089   7.123 -1.8888  0.6556  1.7354
  156SAPE    C317340   6.954   1.150   6.790  0.4516  0.4297  0.2024
  156SAPE    HX17341   6.935   1.222   6.707  2.0806 -1.3209 -1.8383
  156SAPE    HY17342   6.995   1.205   6.877 -0.3096  1.7294 -0.2366
  156SAPE   O3117343   6.831   1.087   6.833 -0.8314  0.0184 -0.6125
  156SAPE   C3117344   6.725   1.086   6.756  0.0022  0.2363  0.2873
  156SAPE   O3217345   6.727   1.102   6.633 -0.2209  0.2709 -0.2375
  156SAPE   C3217346   6.595   1.079   6.831  0.1082  0.1914 -0.1936
  156SAPE   H2X17347   6.574   0.972   6.849  0.6554  0.0748 -0.2280
  156SAPE   H2Y17348   6.514   1.108   6.760 -3.6198  1.3276  4.0090
  156SAPE   C2317349   7.129   1.082   7.192  0.0220  0.4440  0.2063
  156SAPE   H3R17350   7.145   1.026   7.286  1.4118 -0.8021 -0.7219
  156SAPE   H3S17351   7.032   1.049   7.148  0.6268 -1.6691  0.3324
  156SAPE   C2417352   7.125   1.235   7.194  0.1938  0.2765 -0.3483
  156SAPE   H4R17353   7.022   1.266   7.224  0.5479  1.7622 -0.5855
  156SAPE   H4S17354   7.145   1.286   7.097 -1.9478  1.7587 -0.1035
  156SAPE   C2517355   7.222   1.287   7.294  0.2608  0.9109 -0.8287
  156SAPE   H5R17356   7.300   1.345   7.243 -1.9032  1.4971 -3.7485
  156SAPE   C2617357   7.220   1.269   7.423  0.4459 -0.5733 -1.2055
  156SAPE   H6R17358   7.305   1.314   7.478 -1.3332  0.8076  0.5566
  156SAPE   C2717359   7.126   1.186   7.503 -0.3332  0.1971  0.1205
  156SAPE   H7R17360   7.174   1.086   7.514 -5.4862 -2.6743  0.0773
  156SAPE   H7S17361   7.039   1.164   7.437  0.4892 -0.4344 -0.7946
  156SAPE   C2817362   7.068   1.245   7.628  1.0385  0.3689 -0.0113
  156SAPE   H8R17363   6.989   1.320   7.610 -1.3784 -2.2177 -0.9122
  156SAPE   C2917364   7.085   1.219   7.760 -0.1302  0.0812 -0.5327
  156SAPE   H9R17365   7.038   1.278   7.840  0.1481 -2.5221  1.7010
  156SAPE  C21017366   7.167   1.109   7.810 -0.1988  0.2165 -0.7836
  156SAPE  H10R17367   7.226   1.056   7.732  3.3252  1.4520  0.8161
  156SAPE  H10S17368   7.084   1.040   7.836 -0.8794  0.4208 -2.3235
  156SAPE  C21117369   7.264   1.149   7.926  0.7796 -0.4063  0.4562
  156SAPE  H11R17370   7.349   1.215   7.904  0.0399  0.9153  1.3991
  156SAPE  C21217371   7.245   1.123   8.059  0.9339  0.2358 -0.2166
  156SAPE  H12R17372   7.310   1.163   8.138  0.6085 -0.0116  0.1756
  156SAPE  C21317373   7.125   1.038   8.113  0.0229  0.3066 -0.1977
  156SAPE  H13R17374   7.129   0.936   8.071  2.1267  0.6990 -1.1082
  156SAPE  H13S17375   7.035   1.090   8.072  0.8751  1.0998 -1.1301
  156SAPE  C21417376   7.109   1.048   8.261  1.0656  0.7112 -1.0232
  156SAPE  H14R17377   7.028   1.116   8.290  1.6150  1.6309 -1.5722
  156SAPE  C21517378   7.163   0.962   8.350 -0.4659  0.2095  0.0170
  156SAPE  H15R17379   7.143   0.964   8.458  0.6002 -1.4721  0.2857
  156SAPE  C21617380   7.265   0.854   8.311 -0.1826  0.1593  0.0995
  156SAPE  H16R17381   7.368   0.860   8.351  0.5492 -0.7698 -1.5186
  156SAPE  H16S17382   7.287   0.855   8.202  1.0103 -0.0505  0.3209
  156SAPE  C21717383   7.214   0.715   8.353  0.9712  0.1650 -0.6185
  156SAPE  H17R17384   7.105   0.713   8.330  0.3016 -2.3933  2.2544
  156SAPE  H17S17385   7.219   0.698   8.462 -0.1145 -3.2560 -0.9978
  156SAPE  C21817386   7.290   0.602   8.293  0.3245  0.1758 -0.3293
  156SAPE  H18R17387   7.377   0.580   8.359  0.8208 -0.4127 -1.1540
  156SAPE  H18S17388   7.337   0.628   8.195  1.9342 -0.7575  0.1562
  156SAPE  C21917389   7.213   0.469   8.283  0.0436  0.2338 -0.0715
  156SAPE  H19R17390   7.178   0.441   8.385 -3.9971  0.4818 -1.2012
  156SAPE  H19S17391   7.274   0.384   8.245 -1.2968 -0.1142 -1.5756
  156SAPE  C22017392   7.093   0.474   8.187 -0.0058  0.8919  0.7448
  156SAPE  H20R17393   7.027   0.387   8.209 -1.6014  2.2549  1.6758
  156SAPE  H20S17394   7.137   0.479   8.086  1.7621  2.8755  1.5224
  156SAPE  H20T17395   7.038   0.571   8.198  0.7992  1.2588  1.6719
  156SAPE   C3317396   6.579   1.165   6.955  0.1273  0.2804 -0.7655
  156SAPE   H3X17397   6.620   1.267   6.946  0.5996  0.1417 -0.2953
  156SAPE   H3Y17398   6.637   1.109   7.032 -2.3613  0.0622  1.0690
  156SAPE   C3417399   6.436   1.172   7.003  0.6993  0.1368 -0.2234
  156SAPE   H4X17400   6.373   1.161   6.912 -1.5380  2.1335  0.9587
  156SAPE   H4Y17401   6.424   1.275   7.044  2.0887 -0.0783  0.8021
  156SAPE   C3517402   6.402   1.064   7.106 -0.4985  0.1118  0.6074
  156SAPE   H5X17403   6.464   0.972   7.097 -1.7625 -0.6781 -0.3750
  156SAPE   H5Y17404   6.296   1.032   7.101 -0.3830 -0.1776 -0.1052
  156SAPE   C3617405   6.426   1.108   7.250  0.3393 -0.5298 -0.5674
  156SAPE   H6X17406   6.358   1.194   7.267 -1.3187 -1.7112 -1.0060
  156SAPE   H6Y17407   6.536   1.124   7.255  0.5459 -2.1747  1.8391
  156SAPE   C3717408   6.407   0.993   7.352  0.1447  0.4392 -0.4111
  156SAPE   H7X17409   6.471   0.905   7.330 -0.5352 -0.0886 -0.3220
  156SAPE   H7Y17410   6.299   0.967   7.353  0.0088  0.9833 -0.6754
  156SAPE   C3817411   6.451   1.025   7.497 -0.2458  0.6737 -0.8435
  156SAPE   H8X17412   6.561   1.033   7.508 -0.2296 -0.6776  0.4131
  156SAPE   H8Y17413   6.422   0.934   7.554 -0.4323 -0.8640 -3.2321
  156SAPE   C3917414   6.395   1.162   7.539 -0.1174 -0.1812 -0.4249
  156SAPE   H9X17415   6.292   1.159   7.498  0.0287 -1.5664 -0.7409
  156SAPE   H9Y17416   6.446   1.246   7.488 -0.6762  0.0975 -0.5296
  156SAPE  C31017417   6.399   1.187   7.694  0.8611  0.2108 -0.1618
  156SAPE  H10X17418   6.339   1.274   7.728 -1.1582 -1.3988  0.6540
  156SAPE  H10Y17419   6.505   1.215   7.707  1.2059 -0.2578 -1.6625
  156SAPE  C31117420   6.354   1.073   7.782  0.3453  0.2185 -0.1996
  156SAPE  H11X17421   6.433   0.995   7.780 -0.3751 -0.5356  0.4386
  156SAPE  H11Y17422   6.257   1.028   7.754 -0.5108  2.2357 -0.6852
  156SAPE  C31217423   6.336   1.111   7.931 -0.2699  0.1636 -0.2583
  156SAPE  H12X17424   6.338   1.022   7.997 -2.5081  0.3230  0.1148
  156SAPE  H12Y17425   6.244   1.171   7.948 -0.4058 -0.5977  1.8924
  156SAPE  C31317426   6.455   1.180   7.995 -0.0498 -0.9871 -0.3615
  156SAPE  H13X17427   6.470   1.279   7.945  0.8657 -1.2297 -0.5824
  156SAPE  H13Y17428   6.546   1.123   7.971 -0.0463 -1.3783  0.5528
  156SAPE  C31417429   6.441   1.206   8.144 -0.5867  0.0099 -0.0923
  156SAPE  H14X17430   6.386   1.116   8.179 -1.5584  0.2016 -1.0637
  156SAPE  H14Y17431   6.372   1.289   8.172  1.7057  1.7486  0.6335
  156SAPE  C31517432   6.576   1.237   8.219 -0.1823  0.0805  0.3633
  156SAPE  H15X17433   6.627   1.312   8.155  1.7695 -1.5212 -0.0589
  156SAPE  H15Y17434   6.631   1.141   8.212  0.1359  0.3458 -1.1117
  156SAPE  C31617435   6.550   1.278   8.366  0.5460 -0.5057 -0.2851
  156SAPE  H16X17436   6.452   1.230   8.389  0.5575  0.3645  1.6951
  156SAPE  H16Y17437   6.554   1.388   8.376 -1.2504 -0.5900  2.6004
  156SAPE  C31717438   6.641   1.210   8.468 -0.6134 -0.1864  0.9810
  156SAPE  H17X17439   6.645   1.101   8.448  0.3819 -0.1097  0.7354
  156SAPE  H17Y17440   6.603   1.224   8.572 -1.1858  1.0381  0.6254
  156SAPE  C31817441   6.788   1.259   8.470 -0.0657 -0.3627  0.5321
  156SAPE  H18X17442   6.843   1.208   8.552  1.5233  2.0160  1.0388
  156SAPE  H18Y17443   6.788   1.369   8.487 -1.6283 -0.1777 -0.4057
  156SAPE  H18Z17444   6.839   1.233   8.375 -0.4878  1.5540 -0.2696
  157SAPE     N17445   5.129   2.007   6.423  0.2994 -0.5085  0.4748
  157SAPE   HN117446   5.112   2.102   6.461  0.0352 -0.0706 -0.6973
  157SAPE   HN217447   5.159   1.942   6.499  2.1816 -0.2720 -0.0273
  157SAPE   HN317448   5.208   2.018   6.356  1.5346  0.3363  2.0201
  157SAPE   C1217449   5.003   1.966   6.352  0.8240 -0.8816 -0.3247
  157SAPE  H12A17450   4.915   1.968   6.419  1.2350 -0.6665  0.2190
  157SAPE  H12B17451   5.018   1.863   6.314 -1.4834  0.3500 -5.5539
  157SAPE   C1117452   4.981   2.045   6.223  0.0648 -0.5857  0.3632
  157SAPE  H11A17453   4.958   2.153   6.237 -1.5641 -0.8731  0.1039
  157SAPE  H11B17454   4.890   2.003   6.176 -1.5580 -1.3766  3.8687
  157SAPE     P17455   5.152   1.914   6.077 -0.3216  0.1864 -0.1949
  157SAPE   O1317456   5.038   1.841   6.012  0.3608 -0.6110 -0.1015
  157SAPE   O1417457   5.269   1.946   5.993  0.0898  0.6510  0.3172
  157SAPE   O1217458   5.094   2.044   6.146 -0.1483  0.3389 -0.3008
  157SAPE   O1117459   5.207   1.825   6.197  0.1829 -1.1061  0.5142
  157SAPE    C117460   5.225   1.689   6.178  0.0915  0.1251  0.3282
  157SAPE    HA17461   5.129   1.634   6.174  0.8329 -1.1556 -0.2368
  157SAPE    HB17462   5.283   1.669   6.085  0.0832  1.3600  0.0363
  157SAPE    C217463   5.296   1.619   6.297 -0.2770  0.0154 -0.6965
  157SAPE    HS17464   5.216   1.629   6.374  1.8368 -0.7018  1.7461
  157SAPE   O2117465   5.416   1.694   6.332  0.2657  0.0028  0.7730
  157SAPE   C2117466   5.411   1.774   6.436 -0.1188 -0.8367 -0.4460
  157SAPE   O2217467   5.304   1.804   6.490  0.3347 -0.8209 -0.2819
  157SAPE   C2217468   5.550   1.820   6.488  0.7378  0.1320 -0.2459
  157SAPE   H2R17469   5.612   1.828   6.396  1.1255  0.5363  0.0483
  157SAPE   H2S17470   5.523   1.922   6.523  1.7911 -0.1137  1.4002
  157SAPE    C317471   5.325   1.467   6.271  0.4841  0.1558 -0.3795
  157SAPE    HX17472   5.388   1.460   6.180 -1.2871 -4.0690 -1.4949
  157SAPE    HY17473   5.236   1.404   6.248  1.3425 -0.5709 -1.8481
  157SAPE   O3117474   5.404   1.401   6.381 -0.1118 -0.8942  0.6996
  157SAPE   C3117475   5.325   1.372   6.485 -0.0137 -0.7212 -0.0742
  157SAPE   O3217476   5.203   1.394   6.492 -0.3407 -0.5934  0.0308
  157SAPE   C3217477   5.414   1.326   6.592 -0.1608  0.7572 -0.7034
  157SAPE   H2X17478   5.490   1.404   6.613  0.6593 -0.0789 -0.5148
  157SAPE   H2Y17479   5.468   1.235   6.559  0.8199 -0.0853  2.8206
  157SAPE   C2317480   5.613   1.727   6.596 -0.0508  0.3912  0.7773
  157SAPE   H3R17481   5.713   1.768   6.621  0.5280  0.0737 -0.8743
  157SAPE   H3S17482   5.627   1.620   6.569  1.0550  0.8155 -0.4334
  157SAPE   C2417483   5.524   1.737   6.719  0.0384  0.3235 -0.3657
  157SAPE   H4R17484   5.448   1.660   6.695  0.7754 -0.7838  0.7014
  157SAPE   H4S17485   5.471   1.834   6.709 -2.9254 -1.2135 -0.4907
  157SAPE   C2517486   5.596   1.723   6.851  0.1311  0.0115 -0.5261
  157SAPE   H5R17487   5.706   1.718   6.840  0.0693  1.7961 -2.7757
  157SAPE   C2617488   5.538   1.711   6.971  0.2578 -0.5714  0.0851
  157SAPE   H6R17489   5.607   1.710   7.057  1.6239  0.6088 -0.9368
  157SAPE   C2717490   5.395   1.720   7.018  0.2248 -0.2917 -0.6607
  157SAPE   H7R17491   5.372   1.627   7.074 -1.3299  0.9414  0.8566
  157SAPE   H7S17492   5.329   1.710   6.929  1.4418 -0.9920 -1.5224
  157SAPE   C2817493   5.364   1.842   7.110  0.1712  0.1479 -0.2584
  157SAPE   H8R17494   5.303   1.922   7.066  0.4089  0.1291 -0.6235
  157SAPE   C2917495   5.370   1.837   7.244 -0.0463  0.2467  0.2697
  157SAPE   H9R17496   5.338   1.932   7.288  0.3156  0.4467  0.1006
  157SAPE  C21017497   5.416   1.720   7.332  0.3597 -0.2880  0.4556
  157SAPE  H10R17498   5.520   1.750   7.360  1.1530 -0.4925 -2.0295
  157SAPE  H10S17499   5.424   1.624   7.277 -0.1570 -1.7300  2.7288
  157SAPE  C21117500   5.323   1.697   7.449 -0.1446 -0.1175 -0.8801
  157SAPE  H11R17501   5.215   1.678   7.440 -0.2787 -0.6990  1.2925
  157SAPE  C21217502   5.352   1.710   7.582 -1.7993  0.4212  0.6894
  157SAPE  H12R17503   5.270   1.691   7.653 -2.5679 -0.0054 -0.2985
  157SAPE  C21317504   5.488   1.741   7.643  0.0486  0.3408  0.3648
  157SAPE  H13R17505   5.475   1.844   7.681 -1.6797 -0.0608  0.9486
  157SAPE  H13S17506   5.572   1.735   7.570  0.0746 -3.3466  0.4993
  157SAPE  C21417507   5.511   1.657   7.767  0.6622 -0.4882  0.4230
  157SAPE  H14R17508   5.559   1.560   7.750  1.1364  0.0056 -1.2906
  157SAPE  C21517509   5.485   1.690   7.894 -0.4987  0.1876  0.2153
  157SAPE  H15R17510   5.505   1.618   7.975  0.1406  0.1621  0.0410
  157SAPE  C21617511   5.428   1.820   7.943 -0.5307  0.5612  0.5278
  157SAPE  H16R17512   5.341   1.784   8.002 -0.2498 -2.1389 -0.6039
  157SAPE  H16S17513   5.385   1.884   7.864  0.7643  0.9498  0.1098
  157SAPE  C21717514   5.522   1.915   8.017 -0.2134  0.3312 -0.0562
  157SAPE  H17R17515   5.469   2.012   8.025  2.4263  1.7378  2.2905
  157SAPE  H17S17516   5.605   1.944   7.949 -0.7567  1.0993 -0.4129
  157SAPE  C21817517   5.581   1.872   8.149 -0.3286  0.1086 -0.4456
  157SAPE  H18R17518   5.644   1.953   8.191  1.2250 -0.5126 -1.5113
  157SAPE  H18S17519   5.644   1.783   8.127 -1.7039 -0.8081 -0.8671
  157SAPE  C21917520   5.470   1.827   8.246 -0.2110 -0.0509  0.5800
  157SAPE  H19R17521   5.502   1.812   8.351  1.3460 -0.3019  0.0928
  157SAPE  H19S17522   5.434   1.728   8.211  0.0094 -0.0998  0.4906
  157SAPE  C22017523   5.337   1.920   8.263  0.2837 -0.2344 -0.4985
  157SAPE  H20R17524   5.372   2.015   8.307 -2.5724 -0.0030  1.5734
  157SAPE  H20S17525   5.269   1.880   8.341 -1.0315  0.3944 -1.2899
  157SAPE  H20T17526   5.281   1.935   8.167 -0.8537  1.4552  0.3807
  157SAPE   C3317527   5.344   1.296   6.725 -0.2507  0.5399  0.5971
  157SAPE   H3X17528   5.283   1.206   6.702  1.4612 -0.0357 -2.2369
  157SAPE   H3Y17529   5.274   1.376   6.759 -0.9414  0.9686 -1.6017
  157SAPE   C3417530   5.454   1.275   6.835  0.4246  0.5585  0.3370
  157SAPE   H4X17531   5.515   1.368   6.840  1.1340  0.3312 -2.2648
  157SAPE   H4Y17532   5.525   1.198   6.799 -0.9679 -0.5680 -0.0810
  157SAPE   C3517533   5.400   1.219   6.968  0.2918  0.4377 -0.0667
  157SAPE   H5X17534   5.476   1.165   7.028  0.6022 -1.0250 -1.6573
  157SAPE   H5Y17535   5.313   1.151   6.953 -0.9412  1.6611  1.2415
  157SAPE   C3617536   5.342   1.335   7.056 -0.4887  0.6742 -0.0776
  157SAPE   H6X17537   5.258   1.378   6.997  0.1772 -0.3042 -1.7863
  157SAPE   H6Y17538   5.421   1.409   7.080  0.9660 -1.2549  1.3644
  157SAPE   C3717539   5.279   1.268   7.177  0.3866 -0.3117 -0.5778
  157SAPE   H7X17540   5.351   1.188   7.205  1.0497  0.0341 -1.2356
  157SAPE   H7Y17541   5.186   1.214   7.150  0.6488 -0.8398 -0.4288
  157SAPE   C3817542   5.256   1.361   7.292  0.6287 -0.0515  0.0303
  157SAPE   H8X17543   5.171   1.428   7.266 -0.5895 -2.3168 -2.2356
  157SAPE   H8Y17544   5.347   1.422   7.310  1.8497 -2.2216  1.6131
  157SAPE   C3917545   5.224   1.282   7.414  0.5499 -0.3001  0.6354
  157SAPE   H9X17546   5.311   1.215   7.432  0.5164 -0.5729 -0.1753
  157SAPE   H9Y17547   5.138   1.215   7.399 -1.1641  1.9389 -0.1077
  157SAPE  C31017548   5.190   1.377   7.534  0.2977  0.0832 -0.2020
  157SAPE  H10X17549   5.123   1.458   7.499  0.1560  0.0732  0.0438
  157SAPE  H10Y17550   5.285   1.425   7.566  0.7812 -0.2733 -1.0678
  157SAPE  C31117551   5.125   1.312   7.656  0.8598 -0.2640  0.5306
  157SAPE  H11X17552   5.057   1.229   7.626 -0.7820  0.8369  1.0567
  157SAPE  H11Y17553   5.063   1.388   7.708  0.9557  1.8601 -2.1907
  157SAPE  C31217554   5.218   1.240   7.763  0.2482  0.1139 -0.1143
  157SAPE  H12X17555   5.303   1.199   7.704  0.2074  1.1110 -0.8989
  157SAPE  H12Y17556   5.164   1.159   7.816  1.8622 -0.3631  0.8779
  157SAPE  C31317557   5.283   1.331   7.864  0.3671 -0.5238 -0.0623
  157SAPE  H13X17558   5.322   1.414   7.800  1.6210 -2.0136 -1.3140
  157SAPE  H13Y17559   5.368   1.275   7.908 -1.6510 -1.3572  3.0742
  157SAPE  C31417560   5.187   1.367   7.977 -0.0882 -0.5931  0.2936
  157SAPE  H14X17561   5.154   1.272   8.025 -0.8141 -0.6095 -0.2202
  157SAPE  H14Y17562   5.103   1.421   7.928  2.4155  1.4918 -2.0143
  157SAPE  C31517563   5.258   1.454   8.085  0.4086 -0.2005  0.4023
  157SAPE  H15X17564   5.322   1.525   8.028 -0.8215  1.3747  0.9272
  157SAPE  H15Y17565   5.335   1.400   8.144  1.8021  0.2295 -0.9574
  157SAPE  C31617566   5.168   1.535   8.182  0.5773 -0.9636 -0.9461
  157SAPE  H16X17567   5.076   1.575   8.134  0.1612  1.0312  1.3309
  157SAPE  H16Y17568   5.213   1.634   8.203 -0.4819  0.0305 -3.0216
  157SAPE  C31717569   5.121   1.468   8.312  0.6488  0.6695  0.3673
  157SAPE  H17X17570   5.212   1.416   8.348  0.2877 -1.2331 -1.2822
  157SAPE  H17Y17571   5.051   1.385   8.287  0.8086  0.6904 -0.1667
  157SAPE  C31817572   5.057   1.565   8.399 -0.0119 -0.0720 -0.4713
  157SAPE  H18X17573   4.962   1.603   8.355  1.5281  1.9772 -2.2793
  157SAPE  H18Y17574   5.119   1.657   8.402 -2.1651  1.4496  0.2509
  157SAPE  H18Z17575   5.045   1.527   8.502 -0.5935  0.0254 -0.4990
  158SAPE     N17576   1.384   0.345   6.306 -0.0072 -0.0610  0.0509
  158SAPE   HN117577   1.375   0.243   6.325  0.1950  0.1751  1.5998
  158SAPE   HN217578   1.296   0.384   6.269  1.6296  3.0913 -0.8933
  158SAPE   HN317579   1.448   0.360   6.226  2.6028 -0.8846  1.8373
  158SAPE   C1217580   1.447   0.415   6.426  0.3085 -0.0927  0.1624
  158SAPE  H12A17581   1.538   0.358   6.455  1.0667  0.0328 -1.7861
  158SAPE  H12B17582   1.387   0.408   6.518  2.8230  1.3126  2.0472
  158SAPE   C1117583   1.489   0.568   6.405 -0.0506 -0.2585  0.3228
  158SAPE  H11A17584   1.471   0.634   6.493  0.9381  1.0398 -0.4144
  158SAPE  H11B17585   1.418   0.602   6.326  1.0588 -0.6277 -0.8504
  158SAPE     P17586   1.698   0.706   6.302  0.0628 -0.7873 -0.4902
  158SAPE   O1317587   1.834   0.658   6.278 -0.1929 -0.6659 -0.2140
  158SAPE   O1417588   1.612   0.774   6.197 -0.2899  0.1445 -0.2488
  158SAPE   O1217589   1.617   0.583   6.354  0.6769 -0.2706 -0.2103
  158SAPE   O1117590   1.683   0.796   6.435 -0.5779 -1.0356  0.2332
  158SAPE    C117591   1.783   0.794   6.541  0.5789  0.2863 -0.6572
  158SAPE    HA17592   1.884   0.769   6.501  0.8504 -1.0689  0.7686
  158SAPE    HB17593   1.790   0.893   6.590 -0.0572 -0.1856  0.4250
  158SAPE    C217594   1.754   0.685   6.652  0.1774  0.0319 -0.6974
  158SAPE    HS17595   1.753   0.590   6.596  3.1419  0.6854 -2.0937
  158SAPE   O2117596   1.633   0.722   6.730  0.1918  0.4734  0.4573
  158SAPE   C2117597   1.559   0.615   6.769  0.4984 -0.5198  0.1836
  158SAPE   O2217598   1.571   0.507   6.720  0.3898 -0.1597  0.5068
  158SAPE   C2217599   1.468   0.664   6.883 -0.1756  0.3493 -0.3377
  158SAPE   H2R17600   1.442   0.575   6.945  0.8621 -0.4765 -1.0391
  158SAPE   H2S17601   1.520   0.732   6.954  0.1341 -0.6342  0.4124
  158SAPE    C317602   1.876   0.682   6.748  0.2427 -0.2696 -0.0010
  158SAPE    HX17603   1.891   0.787   6.780 -0.6648  0.4301 -1.7293
  158SAPE    HY17604   1.967   0.645   6.696 -0.2004 -0.3132 -0.7639
  158SAPE   O3117605   1.849   0.603   6.867 -0.7217 -0.8493 -0.6202
  158SAPE   C3117606   1.868   0.477   6.853  0.0003  0.1239 -0.3649
  158SAPE   O3217607   1.908   0.423   6.754  0.2467 -0.3205  0.1096
  158SAPE   C3217608   1.805   0.389   6.963 -0.5492 -0.7457  0.0335
  158SAPE   H2X17609   1.804   0.283   6.931 -1.6599  0.0653 -3.0287
  158SAPE   H2Y17610   1.700   0.423   6.971 -0.4890 -0.4234 -0.4303
  158SAPE   C2317611   1.334   0.731   6.829 -0.9743  0.6419 -0.0360
  158SAPE   H3R17612   1.286   0.647   6.775  0.1667 -1.0055  1.4098
  158SAPE   H3S17613   1.360   0.820   6.767  0.0395 -0.1199 -0.7399
  158SAPE   C2417614   1.235   0.773   6.941  0.9193  0.4269  0.2470
  158SAPE   H4R17615   1.227   0.687   7.011  1.5851 -1.8850 -2.3529
  158SAPE   H4S17616   1.137   0.805   6.901  1.2412 -0.0415 -0.9635
  158SAPE   C2517617   1.290   0.908   7.001  1.4905 -0.4507  0.3290
  158SAPE   H5R17618   1.299   0.986   6.924 -1.7247 -0.5237 -0.2433
  158SAPE   C2617619   1.311   0.932   7.132 -0.1959 -0.2482 -0.4132
  158SAPE   H6R17620   1.333   1.039   7.150  0.1669 -0.4851  0.5914
  158SAPE   C2717621   1.302   0.847   7.258  0.1767 -0.0718  0.7908
  158SAPE   H7R17622   1.347   0.903   7.344  0.4534  0.0466  0.5718
  158SAPE   H7S17623   1.359   0.752   7.250  0.1966  0.0849 -1.6408
  158SAPE   C2817624   1.166   0.788   7.280  0.8557  1.5230 -0.5266
  158SAPE   H8R17625   1.114   0.756   7.189  1.1437 -1.1897  0.1669
  158SAPE   C2917626   1.111   0.745   7.398  0.2633  0.7117 -0.2803
  158SAPE   H9R17627   1.011   0.699   7.389  0.0728  0.6927  1.5966
  158SAPE  C21017628   1.180   0.769   7.532  0.0147  0.4584  0.0189
  158SAPE  H10R17629   1.289   0.752   7.519  0.4248 -0.2493  3.4326
  158SAPE  H10S17630   1.132   0.690   7.594 -1.0713  1.8120  0.9490
  158SAPE  C21117631   1.146   0.906   7.581  0.5842 -0.0024  0.0049
  158SAPE  H11R17632   1.150   0.984   7.504  0.2538 -1.7848 -1.8971
  158SAPE  C21217633   1.115   0.947   7.705  0.2726  0.1740  0.1526
  158SAPE  H12R17634   1.108   1.054   7.732  1.4289  0.0292  1.1184
  158SAPE  C21317635   1.104   0.855   7.829 -0.3664 -0.2122 -0.0669
  158SAPE  H13R17636   1.070   0.753   7.802  1.9067 -1.6000  1.9715
  158SAPE  H13S17637   1.021   0.893   7.891 -1.0565 -2.7473  0.6658
  158SAPE  C21417638   1.237   0.855   7.896  0.3495  0.6483 -0.1485
  158SAPE  H14R17639   1.317   0.810   7.836 -0.5799  0.0556 -0.9809
  158SAPE  C21517640   1.273   0.886   8.019 -0.5777  1.0120 -0.1136
  158SAPE  H15R17641   1.379   0.874   8.047 -0.4396  1.6664 -0.3386
  158SAPE  C21617642   1.194   0.930   8.135 -0.2794  0.3093 -0.1869
  158SAPE  H16R17643   1.246   0.896   8.227  0.2811 -0.4249 -0.7583
  158SAPE  H16S17644   1.096   0.878   8.143  0.6609 -1.6429 -0.6311
  158SAPE  C21717645   1.185   1.082   8.136 -0.4384  0.0514  0.0028
  158SAPE  H17R17646   1.137   1.117   8.042 -0.7355 -1.4636 -0.4326
  158SAPE  H17S17647   1.283   1.130   8.157 -0.7247  0.5129  0.3056
  158SAPE  C21817648   1.092   1.129   8.255  0.0445 -0.6497 -1.2566
  158SAPE  H18R17649   0.993   1.078   8.250  0.0442 -0.7470 -0.4234
  158SAPE  H18S17650   1.076   1.238   8.247 -1.3433 -0.8260 -1.2108
  158SAPE  C21917651   1.141   1.094   8.390  0.2708  0.1049  0.7085
  158SAPE  H19R17652   1.235   1.147   8.416  0.7082 -1.0906  1.6799
  158SAPE  H19S17653   1.158   0.984   8.396 -0.0158  0.0019 -0.2106
  158SAPE  C22017654   1.036   1.123   8.495 -0.2274  0.2351  0.3624
  158SAPE  H20R17655   0.999   1.228   8.486  1.1089  0.8333  1.4948
  158SAPE  H20S17656   1.087   1.120   8.594 -1.3783  2.3587  1.0724
  158SAPE  H20T17657   0.951   1.052   8.492 -0.6861  0.7912 -0.1902
  158SAPE   C3317658   1.878   0.407   7.093 -0.1143 -0.3189 -0.5492
  158SAPE   H3X17659   1.881   0.512   7.129 -1.5382 -0.2645 -0.5537
  158SAPE   H3Y17660   1.978   0.363   7.074 -0.3640 -1.0473 -0.2358
  158SAPE   C3417661   1.800   0.327   7.198 -0.3613 -0.3057 -0.4903
  158SAPE   H4X17662   1.766   0.226   7.165 -0.1788  0.0660 -1.8855
  158SAPE   H4Y17663   1.709   0.390   7.209  1.0127  1.4200  2.0686
  158SAPE   C3517664   1.861   0.326   7.337 -0.2936 -0.1479 -0.0783
  158SAPE   H5X17665   1.867   0.436   7.358  0.6574  0.6596 -3.8809
  158SAPE   H5Y17666   1.965   0.288   7.333  0.2967  1.0838  1.8436
  158SAPE   C3617667   1.769   0.269   7.443  0.3796 -0.2193  0.0366
  158SAPE   H6X17668   1.776   0.158   7.440  1.0076 -0.1777 -0.2011
  158SAPE   H6Y17669   1.664   0.288   7.412  1.0640  0.6248 -1.9295
  158SAPE   C3717670   1.789   0.316   7.581 -0.1341  0.0017  0.9892
  158SAPE   H7X17671   1.894   0.296   7.612  0.4640  0.3150 -0.7373
  158SAPE   H7Y17672   1.777   0.426   7.587 -2.4627  0.1162 -2.7460
  158SAPE   C3817673   1.706   0.243   7.681  0.0197  0.3061  0.1107
  158SAPE   H8X17674   1.717   0.133   7.663 -0.2828  0.6422 -2.5561
  158SAPE   H8Y17675   1.597   0.258   7.666  0.0845 -0.9162 -2.0362
  158SAPE   C3917676   1.736   0.286   7.827  1.0533 -0.1721  0.0066
  158SAPE   H9X17677   1.722   0.396   7.825 -0.5116 -0.3571 -0.3569
  158SAPE   H9Y17678   1.842   0.264   7.854  1.1063 -0.2429 -0.2531
  158SAPE  C31017679   1.646   0.208   7.929 -0.1662  0.2284  0.0041
  158SAPE  H10X17680   1.655   0.101   7.900  2.1923  0.3591  0.0244
  158SAPE  H10Y17681   1.539   0.236   7.917 -0.1855 -0.0441 -0.5160
  158SAPE  C31117682   1.706   0.226   8.064  0.8209  0.0046 -0.8155
  158SAPE  H11X17683   1.695   0.333   8.092  4.8156 -0.0801  2.0538
  158SAPE  H11Y17684   1.812   0.198   8.085  0.6104  0.2958  0.7500
  158SAPE  C31217685   1.616   0.134   8.165 -0.1066  0.3493 -0.5195
  158SAPE  H12X17686   1.655   0.030   8.157 -0.0456  0.0987  2.2187
  158SAPE  H12Y17687   1.509   0.137   8.138 -0.8631 -1.8682  1.8387
  158SAPE  C31317688   1.641   0.176   8.315 -0.7407 -0.2804  0.7591
  158SAPE  H13X17689   1.562   0.131   8.379 -0.6243 -2.0003 -0.2506
  158SAPE  H13Y17690   1.629   0.286   8.325 -0.9958 -0.3130  0.8101
  158SAPE  C31417691   1.785   0.145   8.365  0.9515 -0.5224  0.4378
  158SAPE  H14X17692   1.801   0.203   8.458 -1.5049 -1.5874  1.6085
  158SAPE  H14Y17693   1.859   0.174   8.287 -0.0764 -1.5799 -0.9812
  158SAPE  C31517694   1.802  -0.004   8.395 -1.1318 -0.3349  0.0408
  158SAPE  H15X17695   1.752  -0.067   8.318 -2.6263  1.1890 -0.3142
  158SAPE  H15Y17696   1.758  -0.033   8.493  1.2384 -2.0986  0.6723
  158SAPE  C31617697   1.953  -0.039   8.409  0.2695 -0.5626  0.3762
  158SAPE  H16X17698   2.012   0.002   8.324 -0.6772  0.2905  0.1176
  158SAPE  H16Y17699   1.983  -0.146   8.407  1.9297 -0.1232 -0.3626
  158SAPE  C31717700   2.032   0.032   8.530 -0.2918  0.6289 -0.9679
  158SAPE  H17X17701   1.995  -0.019   8.622 -0.3770  0.2218 -1.2233
  158SAPE  H17Y17702   2.012   0.141   8.545 -1.6110  0.4627 -1.3516
  158SAPE  C31817703   2.178   0.011   8.520 -0.3835  0.1953 -0.1878
  158SAPE  H18X17704   2.217   0.026   8.417  1.0713  1.7837  0.5473
  158SAPE  H18Y17705   2.212  -0.081   8.571 -1.1133  0.6058  1.0735
  158SAPE  H18Z17706   2.230   0.087   8.581 -0.4449  0.2720 -0.2303
  159SAPE     N17707   6.734   3.586   5.983 -0.2999 -0.1048 -0.0392
  159SAPE   HN117708   6.708   3.626   5.891  0.7524  2.0818  0.5489
  159SAPE   HN217709   6.711   3.485   5.972  0.0344 -0.0778 -1.0511
  159SAPE   HN317710   6.660   3.614   6.051 -0.4938 -1.5061  0.3690
  159SAPE   C1217711   6.876   3.620   6.036  0.3907  0.3759  0.2600
  159SAPE  H12A17712   6.873   3.590   6.143 -0.6376 -1.9829 -0.3530
  159SAPE  H12B17713   6.891   3.729   6.030 -2.5083  0.8240 -0.4097
  159SAPE   C1117714   6.989   3.542   5.966 -0.5859 -0.0529 -0.6904
  159SAPE  H11A17715   7.087   3.574   6.007 -1.0425  1.7896 -0.9231
  159SAPE  H11B17716   6.990   3.572   5.859  1.5271 -2.6535 -1.5011
  159SAPE     P17717   7.096   3.310   6.006 -0.4826 -0.0644  0.5920
  159SAPE   O1317718   7.056   3.167   6.001 -0.1748  0.8873 -0.0486
  159SAPE   O1417719   7.212   3.350   5.916  0.2207  0.1438 -0.4661
  159SAPE   O1217720   6.966   3.396   5.967  0.2245 -0.0483 -0.8702
  159SAPE   O1117721   7.128   3.359   6.152 -0.0605 -1.0299  0.4827
  159SAPE    C117722   7.035   3.380   6.257 -0.1374  0.0689  0.0750
  159SAPE    HA17723   7.056   3.484   6.290 -0.4145 -0.1914  1.1135
  159SAPE    HB17724   6.930   3.383   6.221 -0.4867  0.0788  1.0474
  159SAPE    C217725   7.049   3.293   6.383 -0.1093  0.0154  0.4232
  159SAPE    HS17726   6.976   3.331   6.458  0.0194  0.8510  0.1374
  159SAPE   O2117727   7.189   3.294   6.420  0.3095 -0.4092 -0.2528
  159SAPE   C2117728   7.211   3.382   6.513 -0.8437  0.3986  0.4788
  159SAPE   O2217729   7.136   3.453   6.572 -0.2216 -0.7117  0.1707
  159SAPE   C2217730   7.362   3.354   6.547  0.3750  0.7766  0.0990
  159SAPE   H2R17731   7.368   3.254   6.595 -0.6947  1.2313  1.2345
  159SAPE   H2S17732   7.428   3.347   6.458 -2.1764 -2.1926 -1.7590
  159SAPE    C317733   7.002   3.147   6.355  0.2092  0.8278  0.1802
  159SAPE    HX17734   7.073   3.093   6.289 -2.8908 -0.4847 -2.3683
  159SAPE    HY17735   6.902   3.147   6.306 -0.4523  2.5526  1.4045
  159SAPE   O3117736   6.996   3.070   6.479  0.0694 -0.1062  0.2262
  159SAPE   C3117737   6.886   3.047   6.538  0.8928 -0.3968  0.4593
  159SAPE   O3217738   6.777   3.098   6.518  0.2193  0.6896  0.2492
  159SAPE   C3217739   6.899   2.922   6.630  0.2348 -0.0838 -0.0081
  159SAPE   H2X17740   6.978   2.854   6.590  1.5763  0.1562  2.0913
  159SAPE   H2Y17741   6.805   2.862   6.624  0.8393 -1.1191  0.4575
  159SAPE   C2317742   7.403   3.455   6.658  0.4123  0.4859  0.4067
  159SAPE   H3R17743   7.351   3.553   6.666 -0.4962 -0.1437  3.1310
  159SAPE   H3S17744   7.506   3.482   6.625  0.2378  0.4513 -0.1742
  159SAPE   C2417745   7.414   3.385   6.796 -0.9207  0.4096  0.1111
  159SAPE   H4R17746   7.466   3.455   6.864  0.1489  0.1488 -0.4240
  159SAPE   H4S17747   7.478   3.295   6.789  0.4068  1.0847  2.4421
  159SAPE   C2517748   7.280   3.350   6.836  0.4819  0.3154 -0.5844
  159SAPE   H5R17749   7.208   3.426   6.804 -0.4398 -0.6734 -0.9469
  159SAPE   C2617750   7.244   3.245   6.905 -0.0214 -0.0577 -0.3797
  159SAPE   H6R17751   7.137   3.239   6.930  0.2930 -2.2776  0.7831
  159SAPE   C2717752   7.331   3.141   6.957 -0.4032  0.4837 -0.1978
  159SAPE   H7R17753   7.303   3.115   7.062 -0.5993  0.2068 -0.3152
  159SAPE   H7S17754   7.437   3.174   6.951 -0.7707  1.6100 -0.7966
  159SAPE   C2817755   7.312   3.013   6.876  0.5318  1.0119 -0.6896
  159SAPE   H8R17756   7.315   3.026   6.767  0.3906 -0.8902 -0.9522
  159SAPE   C2917757   7.291   2.892   6.928 -0.4353  0.1739 -0.0540
  159SAPE   H9R17758   7.274   2.809   6.857  0.5184  1.0124 -1.3078
  159SAPE  C21017759   7.296   2.854   7.079  0.3361  0.0400 -0.6278
  159SAPE  H10R17760   7.379   2.900   7.136 -0.2147 -0.9723  1.0894
  159SAPE  H10S17761   7.322   2.747   7.093 -0.1196  0.3171  3.8438
  159SAPE  C21117762   7.166   2.885   7.154 -0.3450 -0.2722 -0.0776
  159SAPE  H11R17763   7.070   2.866   7.104 -1.1003  1.9757  0.3929
  159SAPE  C21217764   7.162   2.941   7.277 -0.0047 -0.0708 -0.6874
  159SAPE  H12R17765   7.063   2.969   7.316  0.9927 -1.2503  3.1712
  159SAPE  C21317766   7.277   2.979   7.371 -0.0238  0.2849  0.5442
  159SAPE  H13R17767   7.369   2.978   7.310  0.0589  1.2599  0.6416
  159SAPE  H13S17768   7.284   2.913   7.460 -2.8322 -0.2322  0.4767
  159SAPE  C21417769   7.259   3.117   7.410  0.3979  0.1172 -0.2983
  159SAPE  H14R17770   7.275   3.182   7.323 -1.3450 -0.6233 -1.2275
  159SAPE  C21517771   7.236   3.178   7.532  0.7656  1.2553 -1.1212
  159SAPE  H15R17772   7.218   3.286   7.544 -3.8407  0.7815 -1.8930
  159SAPE  C21617773   7.227   3.095   7.660 -1.1914 -0.3740  0.2073
  159SAPE  H16R17774   7.282   3.135   7.748 -1.6301  1.4044 -0.2966
  159SAPE  H16S17775   7.269   2.994   7.641  1.1420  0.9621 -2.3306
  159SAPE  C21717776   7.082   3.076   7.724 -0.2771 -0.1055  0.3618
  159SAPE  H17R17777   7.014   3.040   7.644 -2.2488  0.4322  1.7140
  159SAPE  H17S17778   7.054   3.170   7.776  0.7629  0.6821 -0.4383
  159SAPE  C21817779   7.080   2.963   7.820  0.0657  0.5213  0.3418
  159SAPE  H18R17780   7.125   2.876   7.768 -0.1903  0.4305  0.2718
  159SAPE  H18S17781   6.976   2.948   7.855 -0.0573  0.5852  0.0120
  159SAPE  C21917782   7.157   2.981   7.945  0.6677  0.2475  0.2607
  159SAPE  H19R17783   7.127   3.071   8.003 -0.3285  0.8005 -1.0669
  159SAPE  H19S17784   7.265   2.983   7.918  1.0211  1.5284  1.6504
  159SAPE  C22017785   7.127   2.867   8.047 -0.4433  0.4726  0.8708
  159SAPE  H20R17786   7.181   2.780   8.004 -0.0476  0.7231  0.8560
  159SAPE  H20S17787   7.018   2.854   8.062 -0.4903  1.1597  1.1575
  159SAPE  H20T17788   7.178   2.885   8.145 -2.0595 -0.7213  1.9854
  159SAPE   C3317789   6.915   2.972   6.773  0.9849 -0.1974 -0.1077
  159SAPE   H3X17790   6.828   3.034   6.805  0.5173  0.2672 -2.1349
  159SAPE   H3Y17791   7.006   3.035   6.762  0.0651  1.2434  0.2855
  159SAPE   C3417792   6.926   2.861   6.874 -0.4586  0.2025  0.2929
  159SAPE   H4X17793   6.938   2.903   6.976  0.6277 -3.4704  1.8408
  159SAPE   H4Y17794   7.021   2.811   6.844  0.7520  2.3061  0.4799
  159SAPE   C3517795   6.816   2.756   6.877 -0.0495  0.4872  0.2472
  159SAPE   H5X17796   6.801   2.712   6.776 -1.0032 -2.0486  1.4217
  159SAPE   H5Y17797   6.718   2.804   6.897 -0.0853 -0.2363  1.9431
  159SAPE   C3617798   6.832   2.646   6.978  0.3367 -0.7238 -0.3023
  159SAPE   H6X17799   6.936   2.607   6.988  0.8668  1.1831  3.2507
  159SAPE   H6Y17800   6.759   2.569   6.943 -0.8180  0.7672 -1.2793
  159SAPE   C3717801   6.775   2.685   7.122  0.6018  0.4949 -0.0563
  159SAPE   H7X17802   6.673   2.729   7.120  0.2150 -0.3412 -2.7324
  159SAPE   H7Y17803   6.843   2.761   7.166  0.6113  1.4888 -1.7040
  159SAPE   C3817804   6.760   2.561   7.209  0.2410 -0.2268  0.4091
  159SAPE   H8X17805   6.695   2.485   7.161 -0.3993  1.4943 -1.5702
  159SAPE   H8Y17806   6.711   2.604   7.299 -1.6090 -0.4557 -0.4431
  159SAPE   C3917807   6.880   2.480   7.256 -0.6548 -0.2967 -0.0662
  159SAPE   H9X17808   6.967   2.549   7.259 -0.2961 -0.7477  0.0559
  159SAPE   H9Y17809   6.900   2.405   7.176 -0.1434 -0.2292 -0.0100
  159SAPE  C31017810   6.862   2.402   7.389  0.1255 -0.1155 -0.3482
  159SAPE  H10X17811   6.940   2.323   7.402  0.9770  0.7624 -0.0543
  159SAPE  H10Y17812   6.757   2.365   7.395  0.2599 -0.5923 -0.8229
  159SAPE  C31117813   6.880   2.503   7.506 -1.0237  0.2847  0.3413
  159SAPE  H11X17814   6.834   2.603   7.493  1.9567  1.8897  1.1403
  159SAPE  H11Y17815   6.989   2.527   7.502 -0.3442 -2.1376  2.0406
  159SAPE  C31217816   6.855   2.435   7.641  0.1561 -0.0156  0.2863
  159SAPE  H12X17817   6.923   2.348   7.656  1.9095  1.2764  0.2072
  159SAPE  H12Y17818   6.754   2.390   7.637  0.0240  0.3641 -2.4681
  159SAPE  C31317819   6.860   2.539   7.756  0.2112  0.0775 -0.3289
  159SAPE  H13X17820   6.807   2.633   7.729 -1.4949 -0.4512  0.9931
  159SAPE  H13Y17821   6.966   2.563   7.781 -0.7155  3.3249  1.0937
  159SAPE  C31417822   6.811   2.487   7.894  0.5615  0.9201  0.0802
  159SAPE  H14X17823   6.887   2.417   7.934 -0.6264 -0.4331  0.0875
  159SAPE  H14Y17824   6.723   2.421   7.875  2.0960 -0.7451 -1.6107
  159SAPE  C31517825   6.787   2.601   7.991  0.1773  0.2706 -0.5233
  159SAPE  H15X17826   6.712   2.671   7.949 -0.4187  1.0653  1.7696
  159SAPE  H15Y17827   6.883   2.657   7.991 -0.5228  1.4916 -0.7641
  159SAPE  C31617828   6.751   2.560   8.132  0.2426  0.2234  0.2938
  159SAPE  H16X17829   6.782   2.649   8.192 -1.1694  0.7390  0.3099
  159SAPE  H16Y17830   6.811   2.471   8.162  0.3204  0.6289  1.4104
  159SAPE  C31717831   6.602   2.529   8.147 -0.3047 -0.4382  0.0942
  159SAPE  H17X17832   6.553   2.476   8.062 -3.0143  0.5687  0.9146
  159SAPE  H17Y17833   6.548   2.626   8.143  1.6842  0.7225  0.1816
  159SAPE  C31817834   6.567   2.467   8.282 -0.1373  0.4890  0.8443
  159SAPE  H18X17835   6.625   2.528   8.355  1.2745 -0.2066  0.3463
  159SAPE  H18Y17836   6.605   2.363   8.284  1.4658  1.0150 -0.2124
  159SAPE  H18Z17837   6.459   2.473   8.305 -0.1655  1.8236  0.4741
  160SAPE     N17838   0.494   1.927   6.027 -0.2281 -0.1792 -0.1838
  160SAPE   HN117839   0.567   1.939   5.954  0.0408 -1.4135 -0.1436
  160SAPE   HN217840   0.497   1.829   6.062  2.9090  0.3625  1.3850
  160SAPE   HN317841   0.407   1.935   5.971 -0.5175  0.4487  0.3528
  160SAPE   C1217842   0.496   2.020   6.138 -0.0335 -0.3117 -0.2527
  160SAPE  H12A17843   0.460   2.120   6.105  2.7057  0.8940  0.1075
  160SAPE  H12B17844   0.604   2.036   6.158  0.3746 -0.1179 -2.3364
  160SAPE   C1117845   0.433   1.959   6.267  0.0674 -0.1911  0.3714
  160SAPE  H11A17846   0.429   2.045   6.338  0.7271 -1.2514  1.7227
  160SAPE  H11B17847   0.497   1.885   6.318  1.5255  1.2722  0.7590
  160SAPE     P17848   0.170   2.005   6.231 -0.5596 -0.1259 -0.1020
  160SAPE   O1317849   0.197   2.126   6.152  0.4136 -0.0882 -0.0873
  160SAPE   O1417850   0.051   1.923   6.197  0.2731  0.1920 -0.2812
  160SAPE   O1217851   0.300   1.914   6.237  0.0960  0.1526 -0.2734
  160SAPE   O1117852   0.150   2.039   6.385 -0.6712 -0.0644  0.1904
  160SAPE    C117853   0.163   1.930   6.478  0.2009  0.2699  0.5146
  160SAPE    HA17854   0.070   1.870   6.472 -0.2345  0.9979 -0.1888
  160SAPE    HB17855   0.250   1.863   6.460 -0.7744 -1.3211  1.5504
  160SAPE    C217856   0.176   1.972   6.624 -0.5600  0.2142  0.5636
  160SAPE    HS17857   0.172   1.879   6.685 -2.0231  1.0977  1.9011
  160SAPE   O2117858   0.065   2.056   6.661 -0.1305 -0.4641  0.7764
  160SAPE   C2117859  -0.040   2.006   6.695 -0.1884 -0.1505 -0.3948
  160SAPE   O2217860  -0.071   1.891   6.679  0.4204 -0.2823 -0.1406
  160SAPE   C2217861  -0.137   2.098   6.761 -0.8071 -0.3719  0.5859
  160SAPE   H2R17862  -0.077   2.187   6.787  0.3565 -1.5657  2.1836
  160SAPE   H2S17863  -0.208   2.127   6.680 -0.3204  0.3621  0.4189
  160SAPE    C317864   0.309   2.037   6.646 -0.0353 -0.4948 -0.3685
  160SAPE    HX17865   0.295   2.132   6.592  1.1591 -1.4159 -2.4323
  160SAPE    HY17866   0.390   1.987   6.588  0.2658  1.9282 -2.1847
  160SAPE   O3117867   0.343   2.071   6.784 -0.5449  0.6843 -0.0046
  160SAPE   C3117868   0.401   1.965   6.841  0.2337 -0.3633  0.1554
  160SAPE   O3217869   0.407   1.855   6.788  0.0759 -0.4423 -0.0712
  160SAPE   C3217870   0.468   1.987   6.978  0.1947 -0.2272 -0.3007
  160SAPE   H2X17871   0.478   2.097   6.994  2.6452 -0.5058  0.6066
  160SAPE   H2Y17872   0.567   1.936   6.985 -1.1374 -3.0425 -0.7483
  160SAPE   C2317873  -0.195   2.034   6.888  0.3121  0.3886 -0.0814
  160SAPE   H3R17874  -0.272   1.961   6.854 -0.3944  1.2111 -0.2667
  160SAPE   H3S17875  -0.251   2.112   6.944 -0.5974  0.6961 -1.3552
  160SAPE   C2417876  -0.093   1.978   6.982 -0.0084 -0.4966 -0.2453
  160SAPE   H4R17877  -0.033   1.899   6.932 -0.6644 -1.8503  1.0348
  160SAPE   H4S17878  -0.146   1.926   7.065 -1.0197 -0.2158 -0.7043
  160SAPE   C2517879  -0.002   2.078   7.042 -1.1653  0.3477 -0.2264
  160SAPE   H5R17880   0.031   2.146   6.961 -1.4102 -0.3988 -0.9597
  160SAPE   C2617881   0.021   2.100   7.169 -0.1813 -0.5806  0.3271
  160SAPE   H6R17882   0.092   2.181   7.193 -1.2997 -0.2070  2.5583
  160SAPE   C2717883  -0.046   2.049   7.294  0.1061  0.1883 -1.1320
  160SAPE   H7R17884  -0.156   2.040   7.278 -0.5169  1.4620  1.8934
  160SAPE   H7S17885  -0.053   2.130   7.370  1.4882  1.5360 -2.3620
  160SAPE   C2817886  -0.014   1.912   7.350 -0.1071 -0.1291 -0.3582
  160SAPE   H8R17887   0.059   1.848   7.297  0.8018 -0.6126  1.4054
  160SAPE   C2917888  -0.054   1.868   7.467 -0.5002 -0.3114  0.8607
  160SAPE   H9R17889  -0.030   1.767   7.502  1.3487  0.5638  2.2821
  160SAPE  C21017890  -0.152   1.930   7.564 -0.5600  0.4314 -0.0612
  160SAPE  H10R17891  -0.180   1.852   7.638 -2.6570 -0.0765 -1.3119
  160SAPE  H10S17892  -0.247   1.943   7.507  0.8468 -0.8223 -2.8445
  160SAPE  C21117893  -0.108   2.053   7.642  0.9688 -0.4120 -0.0635
  160SAPE  H11R17894  -0.081   2.146   7.589 -1.2771  2.3377  3.2424
  160SAPE  C21217895  -0.096   2.085   7.773 -0.3028  0.0058 -0.4420
  160SAPE  H12R17896  -0.054   2.182   7.802 -1.0277  0.1122  0.2637
  160SAPE  C21317897  -0.121   1.993   7.893 -0.3048  0.4074  0.6520
  160SAPE  H13R17898  -0.037   1.921   7.893  0.6128  1.4131  2.4469
  160SAPE  H13S17899  -0.220   1.942   7.888 -0.9475  1.7246 -1.4794
  160SAPE  C21417900  -0.134   2.063   8.021 -0.5133  0.2348  0.2781
  160SAPE  H14R17901  -0.183   2.161   8.015 -0.2966  0.3134 -0.2782
  160SAPE  C21517902  -0.106   2.011   8.142 -0.3616 -0.2657 -0.2409
  160SAPE  H15R17903  -0.131   2.069   8.231 -0.2209 -0.5294 -0.0269
  160SAPE  C21617904  -0.062   1.876   8.191 -0.1586 -0.1107  0.7005
  160SAPE  H16R17905  -0.012   1.823   8.107 -0.0800  1.0560 -0.0154
  160SAPE  H16S17906  -0.153   1.818   8.217 -0.1086 -0.7210 -0.4254
  160SAPE  C21717907   0.034   1.887   8.315  0.2472  0.4859  0.0190
  160SAPE  H17R17908   0.120   1.956   8.303  0.3734  0.4413  0.6111
  160SAPE  H17S17909   0.079   1.786   8.324  1.1340  0.9371  0.8200
  160SAPE  C21817910  -0.030   1.908   8.459  0.4221  0.3872  0.3385
  160SAPE  H18R17911  -0.088   2.002   8.447 -1.7469 -0.7424  1.3999
  160SAPE  H18S17912   0.052   1.922   8.534 -0.0642  0.0650  0.9440
  160SAPE  C21917913  -0.118   1.786   8.495  0.4891  0.1264 -0.4514
  160SAPE  H19R17914  -0.206   1.779   8.428  1.3763 -1.6225 -1.5085
  160SAPE  H19S17915  -0.162   1.812   8.594  1.3044 -1.0935  0.2540
  160SAPE  C22017916  -0.055   1.652   8.525 -0.3747  0.4482  0.1290
  160SAPE  H20R17917   0.036   1.661   8.589  0.3612 -0.7724 -0.7049
  160SAPE  H20S17918  -0.018   1.596   8.437  2.3453  1.3120  0.6326
  160SAPE  H20T17919  -0.117   1.583   8.587 -0.3248 -0.7077 -1.0614
  160SAPE   C3317920   0.383   1.952   7.103  0.0695  0.3739  0.0927
  160SAPE   H3X17921   0.281   1.986   7.073  0.0127 -0.2381 -0.4295
  160SAPE   H3Y17922   0.424   2.004   7.192 -1.1149 -2.5952  2.5610
  160SAPE   C3417923   0.377   1.798   7.120 -0.3405  0.3233  0.7680
  160SAPE   H4X17924   0.481   1.760   7.130  0.0152  0.6456 -1.2217
  160SAPE   H4Y17925   0.337   1.762   7.023 -0.1566 -1.0500  1.1827
  160SAPE   C3517926   0.302   1.724   7.231 -0.0059 -0.2833  0.0778
  160SAPE   H5X17927   0.306   1.614   7.214  1.6318 -0.1385 -0.5533
  160SAPE   H5Y17928   0.192   1.741   7.231 -0.3831 -2.0704  2.6832
  160SAPE   C3617929   0.341   1.751   7.384 -0.1000  0.3211  0.1320
  160SAPE   H6X17930   0.306   1.849   7.422 -0.8618 -0.6616  2.1789
  160SAPE   H6Y17931   0.451   1.747   7.394  0.0032  0.5137 -0.8768
  160SAPE   C3717932   0.281   1.653   7.494  0.1512 -0.6493  0.3042
  160SAPE   H7X17933   0.333   1.555   7.486  0.0188 -0.6652 -0.4214
  160SAPE   H7Y17934   0.175   1.626   7.471  0.5095 -2.1453  0.3229
  160SAPE   C3817935   0.302   1.704   7.638  0.8526  0.4146 -0.4798
  160SAPE   H8X17936   0.237   1.790   7.664  1.0827  0.6126 -0.5546
  160SAPE   H8Y17937   0.410   1.731   7.641  1.0392 -0.1502 -1.6785
  160SAPE   C3917938   0.279   1.595   7.747  0.0946 -0.2887 -0.3758
  160SAPE   H9X17939   0.334   1.505   7.713  0.7313  0.1464 -0.5013
  160SAPE   H9Y17940   0.174   1.557   7.741 -0.1032  0.2736 -0.5649
  160SAPE  C31017941   0.329   1.639   7.888 -0.4253  0.9810  0.1184
  160SAPE  H10X17942   0.434   1.676   7.884 -0.3439  0.6950 -0.7492
  160SAPE  H10Y17943   0.337   1.550   7.954 -1.1885 -0.0101 -1.0801
  160SAPE  C31117944   0.239   1.735   7.961  0.1469  0.4539 -0.0858
  160SAPE  H11X17945   0.160   1.668   8.001 -0.2972 -0.0800 -1.7847
  160SAPE  H11Y17946   0.187   1.811   7.899 -1.6288  0.4393  1.3165
  160SAPE  C31217947   0.307   1.814   8.074 -0.3065 -0.0935 -0.0572
  160SAPE  H12X17948   0.372   1.740   8.127  1.8613 -0.2867 -2.7782
  160SAPE  H12Y17949   0.237   1.847   8.154  0.9086  0.2170  0.9095
  160SAPE  C31317950   0.388   1.936   8.045  0.2191 -0.8722  0.1682
  160SAPE  H13X17951   0.440   1.932   7.947 -1.5432 -1.0637 -0.8043
  160SAPE  H13Y17952   0.463   1.955   8.125 -0.7649 -0.8124  1.1039
  160SAPE  C31417953   0.298   2.060   8.024 -0.3284 -0.0797  0.0870
  160SAPE  H14X17954   0.259   2.082   8.125 -1.5806 -2.4079  0.1883
  160SAPE  H14Y17955   0.214   2.031   7.957 -0.5335  1.0233 -0.1480
  160SAPE  C31517956   0.372   2.177   7.955 -0.0517 -0.2791  0.4699
  160SAPE  H15X17957   0.433   2.136   7.871 -3.0387 -1.1536 -1.4181
  160SAPE  H15Y17958   0.447   2.218   8.026  0.9960 -1.7071  0.2321
  160SAPE  C31617959   0.271   2.277   7.893 -0.5414 -0.3053 -0.5239
  160SAPE  H16X17960   0.205   2.315   7.974 -1.6158 -1.1118 -0.9950
  160SAPE  H16Y17961   0.214   2.230   7.810  1.6002 -0.7103 -1.8433
  160SAPE  C31717962   0.350   2.394   7.840 -0.1032  0.7840 -0.5229
  160SAPE  H17X17963   0.292   2.448   7.761 -1.8366  0.6273  0.5893
  160SAPE  H17Y17964   0.432   2.362   7.772 -1.7238  0.8909 -2.6772
  160SAPE  C31817965   0.391   2.510   7.934 -0.7294  0.3000 -0.4117
  160SAPE  H18X17966   0.427   2.599   7.877 -0.7299 -0.0210 -0.9200
  160SAPE  H18Y17967   0.477   2.471   7.994 -0.8757  1.9356  0.9361
  160SAPE  H18Z17968   0.314   2.526   8.013 -0.6434 -0.0877 -0.2492
  161SOPE     N17969   4.263   4.379  10.600 -0.2111 -0.3673  0.1345
  161SOPE   HN117970   4.160   4.391  10.611 -0.2843 -1.0986  0.3024
  161SOPE   HN217971   4.306   4.399  10.693 -0.8286 -0.4292  0.4410
  161SOPE   HN317972   4.295   4.461  10.545  2.5485 -1.2404  0.3192
  161SOPE   C1217973   4.310   4.254  10.534  0.2480 -0.2177 -0.6785
  161SOPE  H12A17974   4.420   4.268  10.533  0.0957  1.3875 -3.0397
  161SOPE  H12B17975   4.285   4.261  10.426  2.1632  0.0805 -1.1422
  161SOPE   C1117976   4.254   4.116  10.594 -0.7755 -0.3464  0.4899
  161SOPE  H11A17977   4.149   4.114  10.560 -0.5639  2.7957 -0.6773
  161SOPE  H11B17978   4.255   4.119  10.705 -1.1520  0.2155  0.4843
  161SOPE     P17979   4.275   3.888  10.490  0.0513 -0.0439  0.5120
  161SOPE   O1317980   4.152   3.857  10.567  0.2800  0.4937  0.2556
  161SOPE   O1417981   4.378   3.782  10.469 -0.1522  0.0240 -0.2571
  161SOPE   O1217982   4.347   4.014  10.552  0.3211  0.0576  0.2916
  161SOPE   O1117983   4.234   3.942  10.348 -0.0251  0.2387 -0.0802
  161SOPE    C117984   4.330   3.998  10.256  0.3379 -0.4338  0.3454
  161SOPE    HA17985   4.419   4.047  10.300  0.3868  0.3853 -0.6473
  161SOPE    HB17986   4.276   4.079  10.203 -0.8929 -1.5457 -0.1819
  161SOPE    C217987   4.377   3.899  10.144  0.0259  0.8543  0.2401
  161SOPE    HS17988   4.449   3.829  10.191 -1.7531 -1.4195 -0.2459
  161SOPE   O2117989   4.434   3.969  10.035  0.0090 -0.2411 -0.0690
  161SOPE   C2117990   4.536   3.909   9.976 -0.3366 -0.7450 -0.0751
  161SOPE   O2217991   4.583   3.799  10.005  0.5949  0.2319 -0.3405
  161SOPE   C2217992   4.572   3.995   9.847 -0.2123 -0.0619 -0.0576
  161SOPE   H2R17993   4.599   4.101   9.863 -0.6920  0.3196 -1.6524
  161SOPE   H2S17994   4.486   3.985   9.778 -1.4130 -2.9004  1.6438
  161SOPE    C317995   4.270   3.793  10.101  0.6597  0.4891 -0.2030
  161SOPE    HX17996   4.187   3.848  10.051 -0.1220 -0.0068  0.5224
  161SOPE    HY17997   4.228   3.756  10.197 -0.5770  2.7009  0.1785
  161SOPE   O3117998   4.323   3.694  10.009 -0.5485  0.6207  0.3818
  161SOPE   C3117999   4.356   3.578  10.061 -0.4601 -0.2803  0.4629
  161SOPE   O3218000   4.375   3.549  10.177  0.1153 -0.2067 -0.3720
  161SOPE   C3218001   4.364   3.472   9.945 -0.0658 -0.3366  0.9005
  161SOPE   H2X18002   4.261   3.437   9.921  0.2222 -1.1879  0.8843
  161SOPE   H2Y18003   4.414   3.380   9.979  2.3360  0.0161 -1.3550
  161SOPE   C2318004   4.702   3.933   9.790 -0.6530 -0.1714  1.1522
  161SOPE   H3R18005   4.778   3.916   9.869  1.1742  2.4593  0.0893
  161SOPE   H3S18006   4.751   4.007   9.724  0.3695 -2.0948 -0.3472
  161SOPE   C2418007   4.680   3.814   9.699 -0.1751  0.5326  0.5940
  161SOPE   H4R18008   4.645   3.722   9.751 -1.8794  0.7602 -0.0981
  161SOPE   H4S18009   4.601   3.838   9.625 -1.7025 -1.1408  1.5741
  161SOPE   C2518010   4.807   3.772   9.613  0.0225 -0.4163 -1.0738
  161SOPE   H5R18011   4.845   3.858   9.555 -0.1862 -0.5334 -1.3878
  161SOPE   H5S18012   4.884   3.741   9.687 -1.0614  0.0183  0.2923
  161SOPE   C2618013   4.789   3.657   9.513 -0.5713 -0.2679 -0.2372
  161SOPE   H6R18014   4.772   3.560   9.565  0.3873 -0.0165  0.5596
  161SOPE   H6S18015   4.696   3.683   9.458 -0.2518  1.6908  0.0814
  161SOPE   C2718016   4.909   3.641   9.419  0.3574  0.0048 -0.5172
  161SOPE   H7R18017   4.920   3.737   9.364 -1.4718 -1.1246 -3.0668
  161SOPE   H7S18018   5.001   3.634   9.480 -1.7764 -0.1392  2.9094
  161SOPE   C2818019   4.902   3.523   9.320  0.7798  0.5557 -0.1609
  161SOPE   H8R18020   4.800   3.512   9.275  0.2623 -1.2864  1.3521
  161SOPE   H8S18021   4.976   3.542   9.239  1.5166 -0.7191  0.1938
  161SOPE   C2918022   4.940   3.392   9.397  0.3468  0.2279  0.5659
  161SOPE   H9118023   4.866   3.370   9.475 -0.9817  0.7961 -0.4957
  161SOPE  C21018024   5.057   3.336   9.387 -1.2443  0.3599  0.2249
  161SOPE  H10118025   5.077   3.244   9.444 -0.4579 -0.6685 -1.6363
  161SOPE  C21118026   5.183   3.382   9.301  0.3511 -0.0461 -0.5605
  161SOPE  H11R18027   5.274   3.407   9.361 -0.0556 -0.0199  0.0613
  161SOPE  H11S18028   5.158   3.471   9.239  1.8495  1.1744  0.4837
  161SOPE  C21218029   5.253   3.272   9.223 -0.2927  0.5486 -0.0430
  161SOPE  H12R18030   5.330   3.312   9.153 -1.0496 -0.6129 -1.5879
  161SOPE  H12S18031   5.178   3.213   9.166 -0.7912 -0.2344  1.3673
  161SOPE  C21318032   5.331   3.173   9.317  0.5400  0.6599  0.4422
  161SOPE  H13R18033   5.267   3.142   9.402 -0.5453  0.3557 -0.4528
  161SOPE  H13S18034   5.426   3.215   9.355 -0.2621  3.4968 -0.4430
  161SOPE  C21418035   5.373   3.042   9.237  0.5091  0.4892  0.5588
  161SOPE  H14R18036   5.390   3.088   9.138  2.5314 -3.6868 -1.2625
  161SOPE  H14S18037   5.284   2.977   9.228  1.0669 -0.4475  1.5835
  161SOPE  C21518038   5.488   2.956   9.293 -0.6217  0.5382  0.1395
  161SOPE  H15R18039   5.487   2.866   9.229 -3.0029 -0.6921  1.7571
  161SOPE  H15S18040   5.458   2.937   9.398 -0.5142  1.0779  0.2717
  161SOPE  C21618041   5.626   3.037   9.281 -0.0069  0.6427  0.5751
  161SOPE  H16R18042   5.622   3.130   9.342  2.8098  1.1282  0.1632
  161SOPE  H16S18043   5.644   3.065   9.175 -1.3379 -0.6867 -0.0376
  161SOPE  C21718044   5.744   2.958   9.331  0.1266 -0.0385 -0.8199
  161SOPE  H17R18045   5.739   2.860   9.280 -0.8871  0.6026 -2.0070
  161SOPE  H17S18046   5.735   2.944   9.440 -1.1779 -1.9324 -1.1331
  161SOPE  C21818047   5.877   3.032   9.298  0.0155 -0.3750 -0.2135
  161SOPE  H18R18048   5.890   3.055   9.190  1.0808  0.6137  0.1043
  161SOPE  H18S18049   5.967   2.972   9.322  0.8750  0.6265 -0.8235
  161SOPE  H18T18050   5.879   3.122   9.364  0.3515  0.9652 -1.9848
  161SOPE   C3318051   4.437   3.507   9.810 -0.2409  0.2310 -0.1300
  161SOPE   H3X18052   4.543   3.525   9.838 -0.3807 -1.6392  1.8554
  161SOPE   H3Y18053   4.403   3.604   9.767  0.0492  0.7740  0.8463
  161SOPE   C3418054   4.409   3.408   9.700 -0.5325  0.1147  0.9070
  161SOPE   H4X18055   4.299   3.412   9.687 -0.2781  0.3998 -1.8127
  161SOPE   H4Y18056   4.436   3.308   9.741  0.7566  0.2087  0.3559
  161SOPE   C3518057   4.475   3.443   9.568 -0.4740 -0.0200  0.4216
  161SOPE   H5X18058   4.583   3.454   9.590 -0.4040  3.4551 -0.9474
  161SOPE   H5Y18059   4.443   3.546   9.540  1.6876  0.3981 -0.6814
  161SOPE   C3618060   4.449   3.355   9.448  0.1743 -0.6220  0.2675
  161SOPE   H6X18061   4.339   3.356   9.435  0.0367  2.1152  1.0662
  161SOPE   H6Y18062   4.487   3.253   9.471  0.0604 -1.0618 -1.3761
  161SOPE   C3718063   4.517   3.409   9.326 -0.1785 -1.2796 -0.2024
  161SOPE   H7X18064   4.628   3.402   9.332 -0.1132  0.0336  0.5642
  161SOPE   H7Y18065   4.492   3.513   9.298  0.3829 -0.9523  0.4831
  161SOPE   C3818066   4.481   3.328   9.199  0.0803  0.9635 -0.5959
  161SOPE   H8X18067   4.376   3.353   9.171 -0.8267 -1.2797  0.5594
  161SOPE   H8Y18068   4.490   3.221   9.228 -1.1775  1.1489  0.5902
  161SOPE   C3918069   4.567   3.359   9.078 -0.0288 -0.0883 -0.2021
  161SOPE   H9X18070   4.581   3.468   9.061 -3.2546  0.2190 -1.5338
  161SOPE   H9Y18071   4.516   3.342   8.981  0.7909  2.0492 -1.0749
  161SOPE  C31018072   4.700   3.285   9.085 -0.3740 -0.0534 -0.0769
  161SOPE  H10X18073   4.667   3.179   9.084  0.6329 -0.4578  2.2856
  161SOPE  H10Y18074   4.759   3.307   9.177  0.0918 -1.2767 -0.0679
  161SOPE  C31118075   4.794   3.320   8.970 -0.4321 -1.1254  0.5750
  161SOPE  H11X18076   4.835   3.423   8.976 -1.5404 -0.7254  1.9805
  161SOPE  H11Y18077   4.739   3.302   8.876  1.4693 -2.0329 -0.4090
  161SOPE  C31218078   4.917   3.226   8.973  0.0644  0.0791  0.7669
  161SOPE  H12X18079   4.870   3.126   8.975  0.7604 -0.2407  1.9318
  161SOPE  H12Y18080   4.961   3.224   9.075 -0.1097 -0.3759  0.8333
  161SOPE  C31318081   5.010   3.248   8.860  0.7140 -0.2471 -0.2542
  161SOPE  H13X18082   5.058   3.348   8.865 -2.8594  1.6490 -0.6776
  161SOPE  H13Y18083   4.957   3.240   8.763  0.3177 -1.2745  0.0277
  161SOPE  C31418084   5.120   3.140   8.866 -0.2104  0.0309  0.0824
  161SOPE  H14X18085   5.079   3.051   8.813  0.1543  0.9711 -1.8695
  161SOPE  H14Y18086   5.144   3.098   8.966  0.7452  1.0595  0.2991
  161SOPE  C31518087   5.244   3.190   8.795 -0.6832 -0.8096  0.0844
  161SOPE  H15X18088   5.332   3.122   8.802 -0.0331  0.1671  3.4969
  161SOPE  H15Y18089   5.273   3.282   8.849  2.1821 -1.4183 -0.2645
  161SOPE  C31618090   5.227   3.233   8.650 -0.6001 -0.3979  0.8667
  161SOPE  H16X18091   5.318   3.295   8.632 -1.3982  2.0015  4.2051
  161SOPE  H16Y18092   5.149   3.312   8.646 -0.3467 -0.1390  0.9865
  161SOPE  C31718093   5.211   3.121   8.550 -0.1990  0.1254 -0.4892
  161SOPE  H17X18094   5.114   3.074   8.575 -0.9883  1.4030 -1.0649
  161SOPE  H17Y18095   5.295   3.049   8.557 -0.7724 -0.5770 -0.7966
  161SOPE  C31818096   5.187   3.177   8.410  0.4090  0.6960  0.4750
  161SOPE  H18X18097   5.087   3.226   8.399  0.9085  1.2026 -3.2143
  161SOPE  H18Y18098   5.204   3.093   8.339 -0.0093 -0.9199  2.2230
  161SOPE  H18Z18099   5.261   3.253   8.379  1.4158  0.0967  1.3706
  162SOPE     N18100   2.844   4.510  10.985 -0.2484 -0.5920  0.3779
  162SOPE   HN118101   2.765   4.511  11.052 -0.9006 -0.0139 -0.3829
  162SOPE   HN218102   2.936   4.524  11.030 -0.2923  2.9774 -0.3390
  162SOPE   HN318103   2.838   4.599  10.931 -1.4963 -1.7734 -1.5726
  162SOPE   C1218104   2.837   4.388  10.888 -0.3009 -0.4597 -0.5557
  162SOPE  H12A18105   2.830   4.296  10.949  0.7187 -0.4516 -0.4149
  162SOPE  H12B18106   2.938   4.387  10.842 -0.9127 -1.5296 -1.9267
  162SOPE   C1118107   2.720   4.402  10.797  0.3298  0.4531  0.5841
  162SOPE  H11A18108   2.734   4.329  10.714  0.5024 -0.5942  1.5116
  162SOPE  H11B18109   2.721   4.505  10.755 -0.6392 -0.7115 -2.5378
  162SOPE     P18110   2.542   4.229  10.886  0.2515  0.0027 -0.0661
  162SOPE   O1318111   2.399   4.249  10.932 -0.9556 -0.4784 -0.0108
  162SOPE   O1418112   2.628   4.154  10.974  0.3955  0.7297  0.4772
  162SOPE   O1218113   2.605   4.376  10.865  0.1613 -0.3443 -0.2431
  162SOPE   O1118114   2.550   4.168  10.741  0.4830 -0.1264  0.1775
  162SOPE    C118115   2.474   4.229  10.631  0.3672  0.4353 -0.2002
  162SOPE    HA18116   2.543   4.232  10.543 -2.0982  1.7754 -2.2174
  162SOPE    HB18117   2.446   4.336  10.643  1.8384  0.9705 -1.1735
  162SOPE    C218118   2.351   4.139  10.587 -0.2583 -0.0227 -0.4762
  162SOPE    HS18119   2.295   4.104  10.677  1.9483 -0.0269  0.9554
  162SOPE   O2118120   2.407   4.026  10.520  1.3810  0.0822 -0.4730
  162SOPE   C2118121   2.324   3.929  10.496 -0.1776  0.2027 -0.5112
  162SOPE   O2218122   2.216   3.908  10.545 -0.0382 -0.0246  0.1123
  162SOPE   C2218123   2.393   3.837  10.398  0.1307  0.2762  0.3797
  162SOPE   H2R18124   2.451   3.765  10.459 -0.0389  0.8984  1.2944
  162SOPE   H2S18125   2.465   3.897  10.338  1.2908 -0.2456  1.2181
  162SOPE    C318126   2.237   4.208  10.501  0.3824  0.5500  0.2163
  162SOPE    HX18127   2.202   4.294  10.562 -4.4173 -0.5541 -0.5545
  162SOPE    HY18128   2.147   4.142  10.501  1.8436 -1.5933 -1.3267
  162SOPE   O3118129   2.270   4.236  10.359 -0.2205  0.6260 -0.1030
  162SOPE   C3118130   2.325   4.353  10.334 -0.1975 -0.2885  0.4103
  162SOPE   O3218131   2.337   4.445  10.412 -0.3067 -0.1381  0.7499
  162SOPE   C3218132   2.380   4.347  10.189  0.3438  0.3756  0.4328
  162SOPE   H2X18133   2.332   4.262  10.137 -1.5821  2.3361 -1.2051
  162SOPE   H2Y18134   2.490   4.334  10.192  0.1970 -0.9853  0.3756
  162SOPE   C2318135   2.286   3.777  10.312 -0.4578 -0.0750 -0.3693
  162SOPE   H3R18136   2.240   3.863  10.259 -1.2257 -0.4974 -0.4014
  162SOPE   H3S18137   2.216   3.709  10.364  1.3066 -1.3019  0.5197
  162SOPE   C2418138   2.354   3.683  10.216 -0.1495 -0.1355  0.1207
  162SOPE   H4R18139   2.418   3.746  10.151  0.0259 -1.1241 -0.6865
  162SOPE   H4S18140   2.422   3.620  10.278 -0.4890 -0.0884  0.5473
  162SOPE   C2518141   2.261   3.588  10.142  0.3770 -0.0090 -0.1542
  162SOPE   H5R18142   2.327   3.528  10.075 -0.4972 -1.6763  0.4213
  162SOPE   H5S18143   2.218   3.511  10.210  0.3769 -2.2140 -2.5103
  162SOPE   C2618144   2.143   3.655  10.074  0.6088 -0.2322  0.7168
  162SOPE   H6R18145   2.068   3.684  10.150 -0.2349 -0.3367 -0.0602
  162SOPE   H6S18146   2.171   3.743  10.013  1.0415 -1.5453 -1.0759
  162SOPE   C2718147   2.090   3.558   9.974 -0.0492  0.6870 -0.1247
  162SOPE   H7R18148   2.163   3.534   9.894 -2.9031 -2.5966 -2.0056
  162SOPE   H7S18149   2.074   3.457  10.018  0.1233 -0.2842 -2.1978
  162SOPE   C2818150   1.959   3.597   9.909  0.7040  0.3820 -0.5407
  162SOPE   H8R18151   1.872   3.582   9.976  1.9294 -5.0317  0.3415
  162SOPE   H8S18152   1.972   3.707   9.897 -0.3574  0.6275  0.4247
  162SOPE   C2918153   1.940   3.534   9.773 -0.0048  0.1416 -0.4467
  162SOPE   H9118154   1.889   3.437   9.769 -0.1043  0.1107  1.0704
  162SOPE  C21018155   1.990   3.571   9.658 -0.1989 -0.6761 -0.3651
  162SOPE  H10118156   1.965   3.514   9.568  0.7434 -2.4658  0.4284
  162SOPE  C21118157   2.076   3.690   9.624 -0.1105  0.3823 -0.5251
  162SOPE  H11R18158   2.087   3.762   9.708 -1.1814 -0.7190  0.6074
  162SOPE  H11S18159   2.029   3.743   9.539  2.5907  1.1620 -1.6405
  162SOPE  C21218160   2.218   3.657   9.581  0.5286  0.6713  0.2117
  162SOPE  H12R18161   2.277   3.627   9.670  0.8798  0.6472 -0.0287
  162SOPE  H12S18162   2.274   3.746   9.545  0.5004  1.4625  1.9966
  162SOPE  C21318163   2.236   3.532   9.490 -0.3124  0.4920  1.0435
  162SOPE  H13R18164   2.146   3.530   9.426 -0.7482 -1.6794  1.6410
  162SOPE  H13S18165   2.236   3.435   9.544  0.0170  1.7070  3.3829
  162SOPE  C21418166   2.360   3.540   9.394 -0.9524 -0.3171  1.0205
  162SOPE  H14R18167   2.451   3.562   9.453  0.3168 -1.8837 -0.2538
  162SOPE  H14S18168   2.338   3.614   9.313 -1.3877  1.7341  2.9160
  162SOPE  C21518169   2.387   3.403   9.331  0.1711 -1.0031 -0.2051
  162SOPE  H15R18170   2.291   3.365   9.290 -1.0737  2.8526 -1.2757
  162SOPE  H15S18171   2.424   3.340   9.415 -0.9968 -0.9975  0.3381
  162SOPE  C21618172   2.491   3.400   9.217  0.2441 -1.4022  0.2464
  162SOPE  H16R18173   2.575   3.460   9.259 -0.7254  0.2287 -0.0640
  162SOPE  H16S18174   2.451   3.459   9.132 -0.0295 -1.7895  0.1107
  162SOPE  C21718175   2.525   3.258   9.178  0.1889  0.2190  0.6119
  162SOPE  H17R18176   2.441   3.200   9.134  0.4651 -0.2164  0.6431
  162SOPE  H17S18177   2.547   3.199   9.270  0.8813  0.0486  0.3460
  162SOPE  C21818178   2.644   3.253   9.085 -0.2209  0.0005  0.0271
  162SOPE  H18R18179   2.686   3.150   9.089 -0.3451 -0.0460  0.1394
  162SOPE  H18S18180   2.719   3.330   9.112 -0.5622  0.7758 -1.1338
  162SOPE  H18T18181   2.625   3.278   8.978  3.4890  0.1172 -0.7609
  162SOPE   C3318182   2.342   4.479  10.113  0.2867  0.5049  0.6828
  162SOPE   H3X18183   2.360   4.564  10.182  1.3944  0.6478  0.2343
  162SOPE   H3Y18184   2.232   4.477  10.097  0.1808  0.8246  1.3169
  162SOPE   C3418185   2.424   4.492   9.987  0.2575 -1.0580 -0.0283
  162SOPE   H4X18186   2.505   4.416   9.988 -0.2157 -1.6062 -1.0842
  162SOPE   H4Y18187   2.469   4.592   9.973  0.1369 -1.1885 -1.6017
  162SOPE   C3518188   2.338   4.454   9.864 -0.2181  0.1565  0.4759
  162SOPE   H5X18189   2.246   4.515   9.877 -0.2491  0.3111 -0.3633
  162SOPE   H5Y18190   2.302   4.349   9.868 -0.5930  0.1959 -1.1728
  162SOPE   C3618191   2.403   4.475   9.733 -0.0860  0.6691  0.0968
  162SOPE   H6X18192   2.500   4.422   9.739 -0.6632 -0.2971  2.1738
  162SOPE   H6Y18193   2.415   4.584   9.718 -0.0610  0.6030 -0.3880
  162SOPE   C3718194   2.307   4.439   9.616  0.0963 -0.3868 -0.3294
  162SOPE   H7X18195   2.347   4.487   9.524 -1.2679  0.7270 -0.3894
  162SOPE   H7Y18196   2.205   4.480   9.631  1.2309  1.8741  2.2247
  162SOPE   C3818197   2.293   4.287   9.580  0.2733  0.0322 -0.5820
  162SOPE   H8X18198   2.256   4.236   9.672  0.8590  0.3339 -0.1705
  162SOPE   H8Y18199   2.394   4.250   9.553  1.5830  1.7996  1.5224
  162SOPE   C3918200   2.210   4.266   9.460  0.1850  0.4678  1.2979
  162SOPE   H9X18201   2.228   4.350   9.390  1.8341  0.1086  1.2542
  162SOPE   H9Y18202   2.101   4.254   9.479  0.4062 -2.5254  1.1857
  162SOPE  C31018203   2.242   4.127   9.392  0.1929 -0.3679 -0.5086
  162SOPE  H10X18204   2.145   4.074   9.403 -0.6591  1.3968  1.2000
  162SOPE  H10Y18205   2.318   4.065   9.443  0.2464 -1.5504 -1.9596
  162SOPE  C31118206   2.293   4.137   9.250 -0.1111 -0.3864  0.2438
  162SOPE  H11X18207   2.395   4.181   9.253  0.8628 -2.4898 -0.4528
  162SOPE  H11Y18208   2.218   4.194   9.190 -1.1679 -1.1838  0.7854
  162SOPE  C31218209   2.304   4.004   9.181 -0.7030 -0.7027  0.4720
  162SOPE  H12X18210   2.206   3.955   9.197 -1.5521  0.8882  0.3610
  162SOPE  H12Y18211   2.380   3.945   9.236 -1.2172  0.9353  3.1466
  162SOPE  C31318212   2.329   4.012   9.032 -0.0895  0.7102  0.7492
  162SOPE  H13X18213   2.428   4.046   8.993 -0.2553 -0.5033 -0.8392
  162SOPE  H13Y18214   2.242   4.064   8.988 -2.0540 -1.7201  1.5484
  162SOPE  C31418215   2.320   3.868   8.973 -0.1889  0.3376  0.1013
  162SOPE  H14X18216   2.239   3.808   9.019  0.6884  0.0339  1.3143
  162SOPE  H14Y18217   2.420   3.826   8.999  0.0839 -0.4889 -2.0380
  162SOPE  C31518218   2.302   3.857   8.819 -0.0857 -0.5370 -0.1658
  162SOPE  H15X18219   2.381   3.917   8.769 -0.3511  0.1740  0.2495
  162SOPE  H15Y18220   2.204   3.901   8.791  1.0664  0.8841 -2.1963
  162SOPE  C31618221   2.308   3.710   8.763  0.8543 -0.9198  0.1640
  162SOPE  H16X18222   2.302   3.706   8.652  0.4951 -3.2022  0.2362
  162SOPE  H16Y18223   2.219   3.655   8.798  0.0037  1.1826  1.5010
  162SOPE  C31718224   2.433   3.636   8.819  0.0803 -0.2015 -0.2160
  162SOPE  H17X18225   2.430   3.622   8.929 -1.3824 -0.7669 -0.3045
  162SOPE  H17Y18226   2.523   3.698   8.799  2.0367 -2.9044 -0.3754
  162SOPE  C31818227   2.444   3.497   8.749  0.1349 -0.5658 -0.0978
  162SOPE  H18X18228   2.360   3.435   8.786  0.3580 -0.3597  0.7703
  162SOPE  H18Y18229   2.535   3.446   8.786 -0.7819 -1.2148  1.3631
  162SOPE  H18Z18230   2.435   3.505   8.639 -3.5293  0.4153  0.1379
  163SOPE     N18231   6.023   1.487  10.976  0.4142 -0.2168 -0.2174
  163SOPE   HN118232   6.080   1.405  10.947  0.4595 -0.4759  0.5837
  163SOPE   HN218233   5.992   1.463  11.072  1.6710 -1.0204  0.0092
  163SOPE   HN318234   5.939   1.485  10.914  0.8391 -1.0156 -0.7833
  163SOPE   C1218235   6.095   1.623  10.976 -0.0345  0.8483  0.8884
  163SOPE  H12A18236   6.188   1.599  11.031  0.7474 -0.9421 -1.0650
  163SOPE  H12B18237   6.027   1.696  11.025 -1.4261  0.2740 -0.1015
  163SOPE   C1118238   6.141   1.669  10.841  0.3983 -0.4790 -0.3648
  163SOPE  H11A18239   6.171   1.584  10.776 -0.5465 -0.7764 -0.4384
  163SOPE  H11B18240   6.229   1.735  10.854  0.4141 -0.3639 -1.0274
  163SOPE     P18241   6.037   1.841  10.670 -0.0384  0.3773  0.0471
  163SOPE   O1318242   6.081   1.973  10.730 -0.3483  0.4691 -0.6107
  163SOPE   O1418243   5.904   1.844  10.602  0.2871  0.3024 -0.6485
  163SOPE   O1218244   6.028   1.732  10.780 -0.4057 -0.5388  0.0453
  163SOPE   O1118245   6.150   1.787  10.576 -0.4548 -0.0325  1.0913
  163SOPE    C118246   6.138   1.655  10.515  0.4836  0.1032  0.5960
  163SOPE    HA18247   6.056   1.586  10.542  1.8429 -1.5342  0.6643
  163SOPE    HB18248   6.224   1.594  10.548  1.4245  0.0609 -1.7204
  163SOPE    C218249   6.146   1.656  10.367 -0.4799  0.1021 -0.6651
  163SOPE    HS18250   6.147   1.555  10.321 -0.8251  0.7637 -2.1748
  163SOPE   O2118251   6.268   1.726  10.324 -0.1131  0.1751  0.1744
  163SOPE   C2118252   6.378   1.666  10.342 -0.2329  0.4792  0.2209
  163SOPE   O2218253   6.386   1.551  10.378  0.2982  0.0190 -0.3378
  163SOPE   C2218254   6.494   1.741  10.278  0.0718 -0.6327 -0.6584
  163SOPE   H2R18255   6.579   1.722  10.347  0.0089  1.1376 -0.0424
  163SOPE   H2S18256   6.477   1.850  10.286  2.9203 -0.2176  0.8202
  163SOPE    C318257   6.026   1.728  10.285 -0.4241 -0.2314 -0.1214
  163SOPE    HX18258   6.024   1.838  10.297  1.5091 -0.0214 -1.3767
  163SOPE    HY18259   5.940   1.701  10.351  0.4670  2.8395  2.5487
  163SOPE   O3118260   6.025   1.696  10.143  0.6259 -0.0214 -0.0823
  163SOPE   C3118261   5.935   1.607  10.097  0.1028 -0.5078 -0.0784
  163SOPE   O3218262   5.879   1.519  10.164  0.2477 -0.5490  0.4284
  163SOPE   C3218263   5.925   1.629   9.947  0.5159  0.0143 -0.7003
  163SOPE   H2X18264   5.839   1.566   9.916  0.2509 -1.4304  2.6337
  163SOPE   H2Y18265   6.014   1.589   9.893  0.7054  0.4335 -0.7020
  163SOPE   C2318266   6.511   1.691  10.132 -0.1373  0.9496 -0.2826
  163SOPE   H3R18267   6.417   1.694  10.072  1.2581  0.4122 -2.6592
  163SOPE   H3S18268   6.529   1.583  10.149 -0.0457  1.0955  0.5535
  163SOPE   C2418269   6.614   1.765  10.047 -0.0532  0.1026 -0.3454
  163SOPE   H4R18270   6.593   1.873  10.063  1.0636  0.1877  0.6810
  163SOPE   H4S18271   6.719   1.747  10.079 -0.0934 -0.3886 -0.4782
  163SOPE   C2518272   6.600   1.718   9.909  0.9855 -0.2455  0.0474
  163SOPE   H5R18273   6.493   1.728   9.881  0.9386  2.0144  0.8504
  163SOPE   H5S18274   6.659   1.786   9.843 -0.0967  0.3111 -0.3788
  163SOPE   C2618275   6.646   1.582   9.879  0.0858 -0.5908 -0.4709
  163SOPE   H6R18276   6.605   1.498   9.939 -1.8270 -0.6561 -1.7643
  163SOPE   H6S18277   6.613   1.553   9.777  0.0598 -0.5952 -0.4616
  163SOPE   C2718278   6.805   1.566   9.868  0.3729 -0.4517 -0.3659
  163SOPE   H7R18279   6.831   1.612   9.770 -0.5004 -2.6490 -1.7073
  163SOPE   H7S18280   6.858   1.607   9.956 -0.6332  2.2353 -0.9116
  163SOPE   C2818281   6.836   1.413   9.856 -0.2881 -0.5116  0.5368
  163SOPE   H8R18282   6.814   1.349   9.945 -0.1438 -2.7843 -0.9702
  163SOPE   H8S18283   6.753   1.380   9.789  0.2706 -0.8626  0.0041
  163SOPE   C2918284   6.974   1.396   9.790 -0.3457  0.1458 -0.0562
  163SOPE   H9118285   7.049   1.374   9.867 -3.1597  1.2995  3.2571
  163SOPE  C21018286   7.015   1.417   9.663 -0.3229  0.0169 -0.1521
  163SOPE  H10118287   7.120   1.408   9.631  0.9261 -1.0016  3.6566
  163SOPE  C21118288   6.926   1.462   9.552  0.3346 -0.2853 -0.4405
  163SOPE  H11R18289   6.949   1.568   9.525  1.2745  0.1181  1.7546
  163SOPE  H11S18290   6.823   1.471   9.592  0.1804 -3.2457  0.0185
  163SOPE  C21218291   6.932   1.350   9.443  0.6498 -0.0730 -0.5001
  163SOPE  H12R18292   6.893   1.257   9.488 -1.5638  0.8750 -0.3611
  163SOPE  H12S18293   7.034   1.329   9.403  1.0183  3.2238 -1.6120
  163SOPE  C21318294   6.837   1.371   9.327 -0.3200  0.3204 -0.5856
  163SOPE  H13R18295   6.734   1.379   9.366  0.8153  1.2051  2.5478
  163SOPE  H13S18296   6.841   1.287   9.254  1.6915  0.2317 -0.4498
  163SOPE  C21418297   6.876   1.498   9.253  0.5315 -0.2803 -0.0306
  163SOPE  H14R18298   6.982   1.486   9.222  0.9706 -1.8192  1.8227
  163SOPE  H14S18299   6.891   1.575   9.332  0.1578 -0.2689  0.0300
  163SOPE  C21518300   6.772   1.546   9.151  0.1666  0.0964  0.5544
  163SOPE  H15R18301   6.683   1.583   9.207 -0.5409  0.6670 -0.9122
  163SOPE  H15S18302   6.733   1.461   9.093 -0.2775 -1.3567  2.8498
  163SOPE  C21618303   6.818   1.652   9.052  0.2233 -0.3084 -0.1221
  163SOPE  H16R18304   6.844   1.741   9.113  0.8570 -2.0819  2.3863
  163SOPE  H16S18305   6.735   1.680   8.984 -1.3816  0.4982  2.0354
  163SOPE  C21718306   6.939   1.604   8.980 -0.3069 -0.4780  0.1387
  163SOPE  H17R18307   7.027   1.618   9.047  1.9807 -2.0153 -2.3172
  163SOPE  H17S18308   6.957   1.655   8.882  0.1527  0.9332  0.9306
  163SOPE  C21818309   6.946   1.457   8.948  0.0505  0.0716 -0.2896
  163SOPE  H18R18310   6.853   1.427   8.895 -0.5240 -0.6855  1.1051
  163SOPE  H18S18311   6.953   1.396   9.041 -2.0079 -1.1171 -0.8354
  163SOPE  H18T18312   7.035   1.433   8.886 -0.1986 -1.0794 -0.2256
  163SOPE   C3318313   5.898   1.770   9.907  0.2976 -0.1737 -0.0022
  163SOPE   H3X18314   5.967   1.842   9.955 -2.7512  2.0015  1.4891
  163SOPE   H3Y18315   5.796   1.789   9.946 -0.0123 -0.0281 -0.8568
  163SOPE   C3418316   5.890   1.803   9.755  0.0456  0.4721 -0.5899
  163SOPE   H4X18317   5.876   1.912   9.741  1.8024  0.4614 -3.0896
  163SOPE   H4Y18318   5.799   1.747   9.724 -0.2102  1.0820 -0.9487
  163SOPE   C3518319   6.009   1.766   9.664  0.8302 -0.1973  0.0217
  163SOPE   H5X18320   6.020   1.655   9.663  0.7519 -0.2271 -1.6409
  163SOPE   H5Y18321   6.106   1.808   9.698 -1.3536  2.7598  3.3338
  163SOPE   C3618322   5.976   1.805   9.526 -0.0138 -0.6588  0.2966
  163SOPE   H6X18323   5.965   1.916   9.525  0.7452 -0.5770  0.6340
  163SOPE   H6Y18324   5.878   1.761   9.496 -0.9348 -0.0493  2.2120
  163SOPE   C3718325   6.088   1.780   9.421 -0.2357  0.3220  0.0567
  163SOPE   H7X18326   6.092   1.669   9.426  1.5307  0.3268 -0.2615
  163SOPE   H7Y18327   6.184   1.835   9.437  0.5142 -0.4162 -1.6030
  163SOPE   C3818328   6.054   1.812   9.276  0.2021 -0.2925  0.1559
  163SOPE   H8X18329   6.010   1.722   9.228  0.0653 -0.6594  0.9592
  163SOPE   H8Y18330   6.148   1.832   9.219 -0.1863 -1.1040 -0.7987
  163SOPE   C3918331   5.959   1.934   9.272 -0.4515  0.1692  0.5074
  163SOPE   H9X18332   6.011   2.011   9.334  1.5909  0.0260 -0.9178
  163SOPE   H9Y18333   5.862   1.904   9.316  0.1242 -0.4758  1.3667
  163SOPE  C31018334   5.966   2.002   9.126 -0.0949  0.4113 -0.2192
  163SOPE  H10X18335   5.985   1.918   9.057  1.8141 -0.5861  1.3988
  163SOPE  H10Y18336   6.060   2.061   9.123 -0.7851  1.6212  0.9579
  163SOPE  C31118337   5.836   2.077   9.085 -0.7272  0.8570  0.4394
  163SOPE  H11X18338   5.808   2.159   9.154 -0.1687  0.0162  1.6825
  163SOPE  H11Y18339   5.752   2.004   9.091 -0.4838  0.6797  2.0187
  163SOPE  C31218340   5.863   2.151   8.950 -0.0363 -0.0837 -0.0517
  163SOPE  H12X18341   5.769   2.193   8.908  0.5084  0.1049 -1.1277
  163SOPE  H12Y18342   5.915   2.080   8.882  0.2472  1.3635 -1.4013
  163SOPE  C31318343   5.954   2.277   8.957  0.3028 -0.6567  0.5556
  163SOPE  H13X18344   6.054   2.241   8.990  1.1842 -0.4328 -1.7170
  163SOPE  H13Y18345   5.898   2.338   9.032 -1.1137 -1.4682  0.2086
  163SOPE  C31418346   5.969   2.355   8.825  0.1683  0.3142  0.1331
  163SOPE  H14X18347   6.019   2.454   8.830 -2.1207  1.5522 -0.0502
  163SOPE  H14Y18348   5.868   2.373   8.782 -0.5143 -1.2556  1.0078
  163SOPE  C31518349   6.056   2.272   8.725 -1.0626  0.9261 -0.7760
  163SOPE  H15X18350   6.027   2.316   8.628  2.2463  2.3004 -1.2801
  163SOPE  H15Y18351   6.020   2.167   8.722  0.6829  0.1531  1.6236
  163SOPE  C31618352   6.210   2.280   8.753 -0.3383 -0.9104 -0.1978
  163SOPE  H16X18353   6.250   2.215   8.834  2.6883  0.5318 -0.3933
  163SOPE  H16Y18354   6.238   2.386   8.772  0.6493 -1.3556  0.8761
  163SOPE  C31718355   6.293   2.258   8.622  0.3383 -0.0387  0.8304
  163SOPE  H17X18356   6.253   2.329   8.546  0.0184 -0.3003  0.7498
  163SOPE  H17Y18357   6.262   2.154   8.597  0.2839 -0.4248  2.4032
  163SOPE  C31818358   6.442   2.266   8.642  0.7594  0.4209 -0.0751
  163SOPE  H18X18359   6.505   2.295   8.556 -0.1808  3.2587  0.0979
  163SOPE  H18Y18360   6.488   2.180   8.696 -1.6517  0.8050  2.8433
  163SOPE  H18Z18361   6.452   2.351   8.713 -1.9502  2.0561 -1.4817
  164SOPE     N18362   1.438   5.990  10.739 -0.4417  0.0362 -0.1386
  164SOPE   HN118363   1.352   6.020  10.689 -0.6445  1.4611  1.0344
  164SOPE   HN218364   1.447   5.888  10.721  0.2670  0.0483  0.1201
  164SOPE   HN318365   1.443   6.031  10.834  0.7395  0.5289 -0.3882
  164SOPE   C1218366   1.555   6.047  10.662  0.2257 -0.0340 -0.0891
  164SOPE  H12A18367   1.553   5.999  10.562  0.3304 -0.8947  0.3140
  164SOPE  H12B18368   1.653   6.024  10.708  0.7208  1.3945 -0.3805
  164SOPE   C1118369   1.542   6.201  10.648 -0.4501  0.7653 -0.8259
  164SOPE  H11A18370   1.612   6.241  10.572  1.1144  2.5120  1.3878
  164SOPE  H11B18371   1.575   6.246  10.744 -2.2919  3.0390 -1.1726
  164SOPE     P18372   1.314   6.212  10.511 -0.0470 -0.5642  0.2098
  164SOPE   O1318373   1.221   6.326  10.487 -0.0120 -0.3713  0.6730
  164SOPE   O1418374   1.257   6.083  10.549  0.2390 -0.3193 -0.4596
  164SOPE   O1218375   1.407   6.243  10.634 -0.0012  0.3193  0.1310
  164SOPE   O1118376   1.400   6.186  10.383  0.3841 -0.1326  0.2827
  164SOPE    C118377   1.333   6.197  10.257  0.0107  0.6954  0.4817
  164SOPE    HA18378   1.250   6.271  10.259 -0.1878  0.6143 -1.8831
  164SOPE    HB18379   1.286   6.097  10.245  2.9234 -0.8953  1.5643
  164SOPE    C218380   1.429   6.234  10.143  0.2365  0.1639 -0.2473
  164SOPE    HS18381   1.504   6.153  10.127 -0.5500 -0.8819  1.0883
  164SOPE   O2118382   1.482   6.365  10.166  0.6220  0.0331 -0.3988
  164SOPE   C2118383   1.573   6.384  10.253 -0.4621 -0.7261  0.0186
  164SOPE   O2218384   1.629   6.302  10.325  0.2467 -0.4430  0.0451
  164SOPE   C2218385   1.611   6.529  10.261  0.1044 -0.6449  0.2429
  164SOPE   H2R18386   1.702   6.529  10.325  0.4102 -1.1350 -0.1899
  164SOPE   H2S18387   1.525   6.574  10.315 -0.3392  2.2075 -2.5517
  164SOPE    C318388   1.344   6.238  10.008  0.8821 -0.0682  0.4244
  164SOPE    HX18389   1.261   6.303  10.042  0.0735 -1.4586  1.1745
  164SOPE    HY18390   1.304   6.136   9.989 -1.7864  0.9587  0.1721
  164SOPE   O3118391   1.424   6.291   9.897 -0.0407  0.3325  0.3343
  164SOPE   C3118392   1.403   6.412   9.857 -0.2854  0.5513  0.0088
  164SOPE   O3218393   1.328   6.492   9.911  0.2970  0.0091 -0.0183
  164SOPE   C3218394   1.490   6.448   9.735 -0.8501 -0.5283  0.3253
  164SOPE   H2X18395   1.485   6.364   9.663  1.2322 -0.5255  0.1045
  164SOPE   H2Y18396   1.596   6.462   9.765 -1.3435  0.1660  1.8561
  164SOPE   C2318397   1.636   6.593  10.123  0.1725 -0.2902 -0.2644
  164SOPE   H3R18398   1.544   6.582  10.061 -1.6565  0.0622  2.2431
  164SOPE   H3S18399   1.718   6.542  10.069 -2.3957 -1.8164 -3.0726
  164SOPE   C2418400   1.647   6.750  10.128 -0.0562 -0.3493 -0.0007
  164SOPE   H4R18401   1.583   6.787  10.211 -1.7378 -1.1315 -0.8722
  164SOPE   H4S18402   1.753   6.778  10.139 -0.0951 -0.6404  1.2346
  164SOPE   C2518403   1.601   6.806   9.997 -0.1730 -0.5488  0.4580
  164SOPE   H5R18404   1.662   6.771   9.912  1.1788  2.7554 -0.0913
  164SOPE   H5S18405   1.495   6.783   9.974 -0.0356 -0.2209 -0.5355
  164SOPE   C2618406   1.597   6.959  10.014 -0.0950 -0.0837 -0.0793
  164SOPE   H6R18407   1.518   6.991  10.085 -0.5999  0.5323 -0.8955
  164SOPE   H6S18408   1.689   7.000  10.060  0.1040 -1.5625  0.9015
  164SOPE   C2718409   1.568   7.046   9.887  0.0272 -0.4985  0.1293
  164SOPE   H7R18410   1.465   7.019   9.856 -0.7197  1.2558  0.9700
  164SOPE   H7S18411   1.565   7.155   9.908 -1.4655 -0.5258  0.1416
  164SOPE   C2818412   1.674   7.013   9.777  0.0365 -0.0674  0.1181
  164SOPE   H8R18413   1.772   7.020   9.829 -0.5721  1.2655  1.1414
  164SOPE   H8S18414   1.661   6.907   9.746 -0.1620 -0.3898  1.2820
  164SOPE   C2918415   1.673   7.111   9.658 -0.3374 -0.0927  0.3468
  164SOPE   H9118416   1.746   7.193   9.671 -1.9181  2.2192 -3.6543
  164SOPE  C21018417   1.607   7.105   9.531  0.3716  0.0893 -0.9277
  164SOPE  H10118418   1.619   7.187   9.459  0.9366  1.0747  0.2469
  164SOPE  C21118419   1.517   6.988   9.486 -0.6455  0.4153  0.4676
  164SOPE  H11R18420   1.420   7.036   9.461  0.6744  2.9182 -0.1978
  164SOPE  H11S18421   1.501   6.921   9.573  0.3794  2.2199  2.0929
  164SOPE  C21218422   1.576   6.904   9.369 -0.5230 -0.2660 -0.1717
  164SOPE  H12R18423   1.516   6.810   9.360 -1.2808  0.0392  1.3927
  164SOPE  H12S18424   1.677   6.874   9.401 -1.0560 -1.7193  0.2458
  164SOPE  C21318425   1.588   6.963   9.228  0.3869 -0.0260 -0.6184
  164SOPE  H13R18426   1.648   7.057   9.233 -1.1492  0.9326  2.2795
  164SOPE  H13S18427   1.484   6.997   9.204 -0.4908 -2.1806 -0.0853
  164SOPE  C21418428   1.627   6.863   9.114 -0.5482 -1.1283  0.0482
  164SOPE  H14R18429   1.574   6.771   9.148 -2.5934 -0.1282 -0.3543
  164SOPE  H14S18430   1.738   6.853   9.119 -0.4835  0.0373  1.7237
  164SOPE  C21518431   1.568   6.896   8.978  0.2085  0.1898  0.3129
  164SOPE  H15R18432   1.613   6.993   8.946  0.7155 -0.3778 -0.7463
  164SOPE  H15S18433   1.457   6.900   8.967  0.2623 -0.2357 -0.4778
  164SOPE  C21618434   1.601   6.803   8.865 -0.0891 -0.0807  0.1188
  164SOPE  H16R18435   1.699   6.758   8.892  0.4241  1.1885  0.4595
  164SOPE  H16S18436   1.604   6.847   8.764 -3.2355 -2.6572 -1.2685
  164SOPE  C21718437   1.505   6.683   8.861 -0.6873 -0.5170 -0.3948
  164SOPE  H17R18438   1.405   6.722   8.834 -1.1956 -0.8981  0.8706
  164SOPE  H17S18439   1.484   6.648   8.964  0.1079 -3.9189 -1.2487
  164SOPE  C21818440   1.541   6.561   8.765 -0.2625  0.0566  0.1630
  164SOPE  H18R18441   1.650   6.544   8.766 -0.3535 -0.6652 -0.7661
  164SOPE  H18S18442   1.525   6.593   8.659  0.7276 -0.9657 -0.3124
  164SOPE  H18T18443   1.484   6.467   8.783  0.4504 -0.2237  0.9784
  164SOPE   C3318444   1.444   6.580   9.666 -0.3303 -0.4329  0.0865
  164SOPE   H3X18445   1.524   6.626   9.604 -2.0041 -1.7498 -3.3248
  164SOPE   H3Y18446   1.420   6.658   9.741 -0.9291 -1.2224  0.7310
  164SOPE   C3418447   1.319   6.569   9.569  0.2832 -0.5710  0.3889
  164SOPE   H4X18448   1.299   6.667   9.519  0.5373 -1.0737 -0.7321
  164SOPE   H4Y18449   1.232   6.533   9.626  2.8099 -3.7562  2.5600
  164SOPE   C3518450   1.335   6.463   9.453  0.2948  0.3065  0.3877
  164SOPE   H5X18451   1.241   6.461   9.395  1.1380 -2.2283 -1.0636
  164SOPE   H5Y18452   1.337   6.365   9.507  0.3936 -0.9644 -1.7810
  164SOPE   C3618453   1.455   6.470   9.368 -0.0710  0.2341  0.2104
  164SOPE   H6X18454   1.542   6.445   9.433 -0.6149  1.5609  1.4790
  164SOPE   H6Y18455   1.468   6.577   9.342  3.5065  0.2837  1.6247
  164SOPE   C3718456   1.439   6.383   9.238  0.4155 -0.4810 -0.0208
  164SOPE   H7X18457   1.351   6.415   9.180  1.1742  0.9856 -0.4116
  164SOPE   H7Y18458   1.422   6.280   9.277  2.1378  0.2590  3.0421
  164SOPE   C3818459   1.561   6.388   9.146  0.0878 -0.0505  0.3269
  164SOPE   H8X18460   1.576   6.492   9.111 -2.1178 -0.5143 -2.3404
  164SOPE   H8Y18461   1.525   6.338   9.053  0.1006  2.6534 -1.2565
  164SOPE   C3918462   1.692   6.328   9.199  0.2785  0.0269 -0.5936
  164SOPE   H9X18463   1.664   6.236   9.255 -1.2601  1.1976  0.6328
  164SOPE   H9Y18464   1.751   6.397   9.264 -0.4266 -2.2009  2.6469
  164SOPE  C31018465   1.780   6.285   9.076 -0.0511  0.2055  0.2636
  164SOPE  H10X18466   1.824   6.376   9.030  0.1985  0.1640  0.4162
  164SOPE  H10Y18467   1.720   6.222   9.007 -0.4247  1.0347 -0.1826
  164SOPE  C31118468   1.896   6.198   9.114 -0.0865  0.1054  0.4488
  164SOPE  H11X18469   1.864   6.113   9.179 -2.4401  0.9351  0.4726
  164SOPE  H11Y18470   1.967   6.253   9.179 -1.5680  3.4037 -0.5302
  164SOPE  C31218471   1.963   6.142   8.989  0.1713  0.2718  0.5315
  164SOPE  H12X18472   1.992   6.233   8.933  1.2793 -1.2631 -1.5180
  164SOPE  H12Y18473   1.897   6.091   8.916  1.1705  3.3348 -2.7390
  164SOPE  C31318474   2.092   6.071   9.015  0.0356 -0.6823 -0.3384
  164SOPE  H13X18475   2.071   6.005   9.102 -1.3379  1.9155  1.4677
  164SOPE  H13Y18476   2.163   6.149   9.050  1.6810 -1.0773 -2.5914
  164SOPE  C31418477   2.149   6.018   8.878  0.2712 -0.1627  0.1629
  164SOPE  H14X18478   2.125   6.087   8.794  0.6065  2.0734  1.8361
  164SOPE  H14Y18479   2.097   5.923   8.852  0.7030  0.5416 -4.0241
  164SOPE  C31518480   2.294   6.002   8.870  0.3958 -0.4963 -0.1292
  164SOPE  H15X18481   2.341   5.923   8.932  3.6818  1.0834 -0.3837
  164SOPE  H15Y18482   2.344   6.098   8.898 -1.1029 -0.1562  1.6493
  164SOPE  C31618483   2.336   5.960   8.732 -0.4922  0.1190  0.0946
  164SOPE  H16X18484   2.288   6.018   8.651  0.4094  1.2007  0.3168
  164SOPE  H16Y18485   2.322   5.853   8.704 -2.9013  0.0162  1.3233
  164SOPE  C31718486   2.489   5.984   8.714 -0.0445  0.1910  0.6152
  164SOPE  H17X18487   2.540   5.937   8.801  1.5659  0.5720 -0.0890
  164SOPE  H17Y18488   2.509   6.092   8.732 -0.1000  0.1312  1.0493
  164SOPE  C31818489   2.549   5.931   8.591 -0.4566  0.3538  0.0271
  164SOPE  H18X18490   2.525   5.823   8.575  1.5181 -0.2200  0.7154
  164SOPE  H18Y18491   2.659   5.942   8.592 -0.3575  0.0595 -2.1652
  164SOPE  H18Z18492   2.505   5.975   8.498 -0.9223 -1.0937 -0.4681
  165SOPE     N18493   5.199   1.394  10.461 -0.5271 -0.3509 -0.3677
  165SOPE   HN118494   5.261   1.477  10.468 -0.4794 -0.2493 -1.7250
  165SOPE   HN218495   5.244   1.303  10.436 -0.1820 -0.1392 -0.5263
  165SOPE   HN318496   5.119   1.414  10.397  0.0391  0.7189 -0.7606
  165SOPE   C1218497   5.155   1.381  10.603 -0.4254  0.1365 -0.5086
  165SOPE  H12A18498   5.234   1.321  10.654 -1.1331 -1.5701 -1.3290
  165SOPE  H12B18499   5.059   1.326  10.608  0.3727 -1.3014 -0.1416
  165SOPE   C1118500   5.127   1.518  10.673  0.2911 -0.8789  0.0179
  165SOPE  H11A18501   5.221   1.576  10.662  0.4466 -1.0979  0.1911
  165SOPE  H11B18502   5.104   1.491  10.778 -0.7690  2.1757  0.6992
  165SOPE     P18503   4.999   1.745  10.626 -0.1380  0.4554  0.2469
  165SOPE   O1318504   5.099   1.802  10.528 -0.1831 -0.3198 -0.1485
  165SOPE   O1418505   5.008   1.784  10.767 -0.2970 -0.1870 -0.1622
  165SOPE   O1218506   5.011   1.590  10.621 -0.7280  0.4819 -0.5640
  165SOPE   O1118507   4.860   1.763  10.571  0.6101  0.3003 -0.1837
  165SOPE    C118508   4.781   1.683  10.484 -0.6030  0.2598  0.3121
  165SOPE    HA18509   4.676   1.719  10.475 -0.6526  0.1282  0.3695
  165SOPE    HB18510   4.768   1.588  10.540 -0.5214  0.2195  0.2617
  165SOPE    C218511   4.836   1.648  10.339 -0.3477 -0.3101 -0.3513
  165SOPE    HS18512   4.941   1.620  10.357 -0.9764 -1.1593  2.4801
  165SOPE   O2118513   4.818   1.758  10.244  0.7634 -0.7828  0.3054
  165SOPE   C2118514   4.918   1.771  10.157 -0.1322 -0.1423 -0.3127
  165SOPE   O2218515   5.015   1.701  10.153 -0.0054 -0.0183  0.0245
  165SOPE   C2218516   4.882   1.884  10.065  0.2736 -0.4320 -0.2381
  165SOPE   H2R18517   4.894   1.977  10.126  0.0911  0.9838 -2.2577
  165SOPE   H2S18518   4.773   1.873  10.044  0.0633  0.2083  0.4592
  165SOPE    C318519   4.768   1.527  10.272 -0.1357 -0.2812  0.4173
  165SOPE    HX18520   4.659   1.548  10.268  0.1417  1.5527  1.3666
  165SOPE    HY18521   4.785   1.446  10.347  0.1822 -1.4177 -0.8454
  165SOPE   O3118522   4.826   1.491  10.149 -0.4324 -0.1662  0.8981
  165SOPE   C3118523   4.930   1.410  10.149 -0.6242 -0.3602  0.3531
  165SOPE   O3218524   5.000   1.390  10.249  0.2592 -0.0351 -0.6104
  165SOPE   C3218525   4.969   1.362  10.004 -0.1943  0.0826  0.9732
  165SOPE   H2X18526   4.920   1.262   9.996  1.8547 -0.8684 -0.7721
  165SOPE   H2Y18527   5.079   1.353  10.017 -0.2357  0.2120  1.4679
  165SOPE   C2318528   4.966   1.887   9.934 -0.0718 -0.0373 -0.4187
  165SOPE   H3R18529   5.051   1.814   9.940 -0.6032 -0.6778 -0.5932
  165SOPE   H3S18530   5.029   1.978   9.927  1.1618 -0.8660 -0.5686
  165SOPE   C2418531   4.891   1.863   9.806  0.0051  0.4577 -0.3326
  165SOPE   H4R18532   4.861   1.757   9.815  0.9081  0.1934 -0.3506
  165SOPE   H4S18533   4.802   1.929   9.801 -0.2015  0.1104 -1.5619
  165SOPE   C2518534   4.977   1.869   9.684 -0.2054 -0.4550 -0.4617
  165SOPE   H5R18535   5.051   1.947   9.711  0.8623 -2.0004  1.2464
  165SOPE   H5S18536   5.040   1.779   9.670  1.4035  0.2403  1.7032
  165SOPE   C2618537   4.917   1.914   9.549  0.5826 -0.0301  0.5398
  165SOPE   H6R18538   4.833   1.842   9.538 -1.1000  1.6636  1.5743
  165SOPE   H6S18539   4.869   2.015   9.546  0.4889 -0.0790 -1.7795
  165SOPE   C2718540   5.011   1.916   9.433 -0.0360 -0.9134 -0.2819
  165SOPE   H7R18541   5.067   1.821   9.448  1.2512  0.0776  1.5682
  165SOPE   H7S18542   4.953   1.910   9.338 -1.3037 -4.3056  0.5376
  165SOPE   C2818543   5.100   2.040   9.419 -0.3020 -0.1795 -0.5205
  165SOPE   H8R18544   5.029   2.120   9.388  0.0816  0.0950 -0.6978
  165SOPE   H8S18545   5.127   2.060   9.525 -2.3356  0.7924 -0.1356
  165SOPE   C2918546   5.214   2.018   9.319 -0.0066 -0.1969 -0.7060
  165SOPE   H9118547   5.293   1.958   9.366 -0.8964 -1.2706 -0.5377
  165SOPE  C21018548   5.215   2.055   9.193 -0.0183  0.0378  0.3298
  165SOPE  H10118549   5.306   2.026   9.139 -0.6409  1.0921 -1.3522
  165SOPE  C21118550   5.108   2.133   9.117  0.9259  0.0877 -0.2638
  165SOPE  H11R18551   5.009   2.125   9.166 -0.9778 -0.0008 -3.7871
  165SOPE  H11S18552   5.091   2.095   9.014 -1.2014  2.0232 -0.7125
  165SOPE  C21218553   5.135   2.285   9.112  0.7107  0.3598 -0.4204
  165SOPE  H12R18554   5.119   2.332   9.211  0.3463  0.7673 -0.6673
  165SOPE  H12S18555   5.059   2.339   9.052  0.1543  1.1762  0.9784
  165SOPE  C21318556   5.268   2.327   9.045  0.0846  0.3988 -0.1509
  165SOPE  H13R18557   5.267   2.287   8.941  0.5737 -2.9211  0.9970
  165SOPE  H13S18558   5.356   2.294   9.103  0.3715  1.4197  0.0187
  165SOPE  C21418559   5.282   2.478   9.060 -0.0186 -0.0713  0.8644
  165SOPE  H14R18560   5.296   2.518   9.163  2.0474 -1.2325  1.0813
  165SOPE  H14S18561   5.190   2.523   9.017  1.2885  0.6105 -1.3449
  165SOPE  C21518562   5.396   2.531   8.978 -0.3823  0.2068 -0.5769
  165SOPE  H15R18563   5.370   2.527   8.870 -1.7582 -1.4524 -0.2330
  165SOPE  H15S18564   5.485   2.470   9.004 -0.7452  0.2919  0.9198
  165SOPE  C21618565   5.420   2.687   9.004  0.3071  0.1188  0.5788
  165SOPE  H16R18566   5.528   2.713   9.016  0.2929  0.6094 -0.3003
  165SOPE  H16S18567   5.367   2.716   9.098 -0.9618 -0.1772 -0.0407
  165SOPE  C21718568   5.372   2.755   8.881  0.3115  0.6150  0.8177
  165SOPE  H17R18569   5.261   2.765   8.877  0.2921  1.1736  2.1514
  165SOPE  H17S18570   5.400   2.696   8.791 -2.3827 -0.9898  0.9184
  165SOPE  C21818571   5.428   2.898   8.885 -0.1578 -0.3395  0.8408
  165SOPE  H18R18572   5.383   2.963   8.964  2.0830  2.2148  0.1842
  165SOPE  H18S18573   5.421   2.945   8.785  0.7099 -0.5805  0.6570
  165SOPE  H18T18574   5.539   2.903   8.898  0.0231  1.3850 -0.9421
  165SOPE   C3318575   4.916   1.447   9.890  0.1494  0.4314  0.0142
  165SOPE   H3X18576   4.946   1.553   9.901  0.0872  0.5582 -0.9166
  165SOPE   H3Y18577   4.805   1.441   9.890  0.1884 -1.7958  2.1153
  165SOPE   C3418578   4.960   1.396   9.750  0.4381  0.0771 -0.2743
  165SOPE   H4X18579   4.925   1.293   9.732  1.6113 -0.9550  2.7604
  165SOPE   H4Y18580   5.071   1.394   9.751  0.4726  1.1979  0.6266
  165SOPE   C3518581   4.916   1.491   9.636  0.2840 -0.7159 -0.3113
  165SOPE   H5X18582   4.948   1.592   9.670 -0.5192 -0.1103 -1.2948
  165SOPE   H5Y18583   4.807   1.507   9.628  0.0986 -2.0388 -0.7331
  165SOPE   C3618584   4.984   1.458   9.504  0.2085  0.5590  0.0818
  165SOPE   H6X18585   4.958   1.353   9.480  1.3954  0.2667 -0.0087
  165SOPE   H6Y18586   5.095   1.462   9.518  0.2726 -1.0441  0.2936
  165SOPE   C3718587   4.929   1.550   9.394  0.1662  0.2289  0.2111
  165SOPE   H7X18588   4.955   1.655   9.419 -0.9448  0.4853  0.3319
  165SOPE   H7Y18589   4.821   1.530   9.383  0.6696 -1.7522 -1.6433
  165SOPE   C3818590   4.992   1.512   9.266 -0.0300  0.0555  0.1987
  165SOPE   H8X18591   4.935   1.435   9.210  1.6239 -0.4421 -0.8805
  165SOPE   H8Y18592   5.091   1.467   9.286 -0.4348 -1.6476 -1.3783
  165SOPE   C3918593   5.013   1.631   9.175  0.4278 -0.0697  0.1214
  165SOPE   H9X18594   5.086   1.697   9.225 -1.4246 -0.4280  3.5952
  165SOPE   H9Y18595   4.914   1.681   9.185 -0.8045 -1.6859 -2.6901
  165SOPE  C31018596   5.024   1.597   9.024 -0.1444 -0.4179  0.4148
  165SOPE  H10X18597   4.940   1.532   8.990  0.1068  0.0692 -1.2192
  165SOPE  H10Y18598   5.115   1.534   9.018 -0.7522 -1.3709  0.8810
  165SOPE  C31118599   5.045   1.721   8.938  0.5894 -0.8146  0.6097
  165SOPE  H11X18600   5.147   1.753   8.969  0.2112  1.1084 -0.0324
  165SOPE  H11Y18601   4.965   1.792   8.967 -0.6013 -1.3298 -1.2885
  165SOPE  C31218602   5.041   1.691   8.784 -0.1882 -0.3137 -0.5680
  165SOPE  H12X18603   4.937   1.659   8.761 -0.7175  1.4798 -0.8145
  165SOPE  H12Y18604   5.116   1.611   8.767 -0.8715 -1.4802  1.5422
  165SOPE  C31318605   5.071   1.812   8.693 -0.2783 -0.2650  0.4392
  165SOPE  H13X18606   5.010   1.796   8.601 -1.6286 -0.8033  1.3965
  165SOPE  H13Y18607   5.178   1.811   8.662 -0.1951  0.9255  0.6184
  165SOPE  C31418608   5.029   1.953   8.730  0.2353  0.0104  0.1911
  165SOPE  H14X18609   5.102   2.003   8.798 -1.9810  1.3618  1.7201
  165SOPE  H14Y18610   4.929   1.940   8.776  0.3470 -1.6112  0.0352
  165SOPE  C31518611   5.011   2.048   8.623  0.0146 -0.0417  0.8206
  165SOPE  H15X18612   4.917   2.025   8.569 -1.3582  2.2197  2.1331
  165SOPE  H15Y18613   5.093   2.043   8.548 -0.5827 -1.2966  0.2221
  165SOPE  C31618614   4.987   2.192   8.666  0.1319  0.0878 -0.2942
  165SOPE  H16X18615   4.919   2.196   8.753 -1.2319 -1.8823 -1.1767
  165SOPE  H16Y18616   4.930   2.242   8.584 -0.9265  1.4660  1.2244
  165SOPE  C31718617   5.117   2.267   8.673 -0.4169  0.2393  0.3899
  165SOPE  H17X18618   5.191   2.242   8.593 -1.6659 -0.9886 -0.4224
  165SOPE  H17Y18619   5.165   2.230   8.766 -1.8059 -1.5558  0.4394
  165SOPE  C31818620   5.086   2.416   8.688  0.4847  0.3396  0.5546
  165SOPE  H18X18621   5.182   2.471   8.698 -0.1482  1.3527  1.2413
  165SOPE  H18Y18622   5.039   2.428   8.788 -0.1656 -1.3373  0.4850
  165SOPE  H18Z18623   5.030   2.461   8.604  1.3005  1.5840  0.6516
  166SOPE     N18624   2.533   1.736  10.493 -0.1369  0.1409  0.0414
  166SOPE   HN118625   2.514   1.706  10.590 -0.2918  0.4796  0.1175
  166SOPE   HN218626   2.452   1.705  10.436  1.0562 -1.0332 -1.0725
  166SOPE   HN318627   2.614   1.683  10.454 -0.9453 -1.0907 -0.0020
  166SOPE   C1218628   2.575   1.875  10.484  0.4475  0.0645 -0.1671
  166SOPE  H12A18629   2.485   1.933  10.515 -0.3695 -0.5514 -1.2877
  166SOPE  H12B18630   2.611   1.910  10.385 -1.9868 -0.3748 -1.2842
  166SOPE   C1118631   2.672   1.905  10.593 -0.0503 -0.6307 -0.8065
  166SOPE  H11A18632   2.642   1.869  10.694  0.5368 -0.2544 -0.4904
  166SOPE  H11B18633   2.656   2.015  10.603  1.1104 -0.3147 -2.0713
  166SOPE     P18634   2.924   1.968  10.545 -0.2541  0.0384  0.1524
  166SOPE   O1318635   3.009   1.912  10.438  0.2887  0.5360  0.5009
  166SOPE   O1418636   2.995   1.992  10.675  0.2888  0.1053 -0.0134
  166SOPE   O1218637   2.809   1.874  10.563 -0.0359  0.4044 -0.0970
  166SOPE   O1118638   2.847   2.100  10.488  0.3572  0.4742 -0.2685
  166SOPE    C118639   2.836   2.133  10.356  0.0978 -0.7477  0.7615
  166SOPE    HA18640   2.728   2.149  10.334  0.3843 -0.9435 -0.8892
  166SOPE    HB18641   2.865   2.053  10.285 -1.7446 -0.8584  0.0862
  166SOPE    C218642   2.900   2.272  10.319 -0.0218  0.1118  0.0487
  166SOPE    HS18643   2.861   2.315  10.223 -1.5515  1.4755  1.2257
  166SOPE   O2118644   3.048   2.258  10.325  0.0437 -0.0834  0.3523
  166SOPE   C2118645   3.107   2.209  10.219  0.4867  0.2768  0.3486
  166SOPE   O2218646   3.056   2.171  10.114  0.1700  0.2160  0.0032
  166SOPE   C2218647   3.254   2.206  10.253 -0.0377 -0.0125  0.4135
  166SOPE   H2R18648   3.257   2.168  10.357  0.6587  1.3122  0.8953
  166SOPE   H2S18649   3.286   2.312  10.260 -0.8335  0.2269  0.5236
  166SOPE    C318650   2.880   2.385  10.427  0.2625 -0.6500  0.1271
  166SOPE    HX18651   2.903   2.339  10.525 -0.0695  0.1818  0.6063
  166SOPE    HY18652   2.773   2.407  10.445  0.8702  0.9724  2.0622
  166SOPE   O3118653   2.939   2.514  10.388 -0.2360 -0.1028 -0.2770
  166SOPE   C3118654   3.044   2.536  10.460  0.1389 -0.3898  0.0132
  166SOPE   O3218655   3.072   2.485  10.568 -0.2705 -0.6692  0.1806
  166SOPE   C3218656   3.127   2.646  10.394  0.6716  0.6216 -0.8345
  166SOPE   H2X18657   3.199   2.687  10.468 -0.2852  3.6002 -1.4257
  166SOPE   H2Y18658   3.059   2.729  10.366 -1.0978  0.2460  2.0400
  166SOPE   C2318659   3.336   2.119  10.154 -0.6039 -0.2841 -1.1905
  166SOPE   H3R18660   3.291   2.028  10.109  0.7345 -0.7468 -1.6269
  166SOPE   H3S18661   3.430   2.097  10.210 -0.0749  0.9444 -1.5738
  166SOPE   C2418662   3.380   2.195  10.025 -0.3592  0.1041 -0.2230
  166SOPE   H4R18663   3.303   2.254   9.971 -1.7365  1.8862  3.3744
  166SOPE   H4S18664   3.438   2.279  10.069 -0.8665 -0.2221  1.1105
  166SOPE   C2518665   3.477   2.125   9.933 -0.2251  0.7019 -0.2627
  166SOPE   H5R18666   3.484   2.191   9.843 -1.0169 -0.1803 -0.9842
  166SOPE   H5S18667   3.580   2.110   9.972 -0.2745 -0.9615 -0.7015
  166SOPE   C2618668   3.430   1.986   9.884  0.1231 -0.3514  0.2815
  166SOPE   H6R18669   3.479   1.902   9.939  1.6047 -1.0376 -1.9402
  166SOPE   H6S18670   3.323   1.979   9.912  0.1389 -1.6458  0.1059
  166SOPE   C2718671   3.454   1.962   9.735  0.9666  0.8955  0.2839
  166SOPE   H7R18672   3.483   2.051   9.675 -1.4609  0.5635 -1.5060
  166SOPE   H7S18673   3.537   1.888   9.728  0.1416  0.1289 -2.7479
  166SOPE   C2818674   3.335   1.888   9.664 -0.7373  0.0121  0.6108
  166SOPE   H8R18675   3.361   1.863   9.559 -2.1245 -1.1644  0.5202
  166SOPE   H8S18676   3.299   1.793   9.709 -1.6896  0.1570  0.1740
  166SOPE   C2918677   3.219   1.985   9.665  0.0873  0.0341 -0.4810
  166SOPE   H9118678   3.166   1.982   9.761 -3.4188 -0.8935 -2.2911
  166SOPE  C21018679   3.177   2.074   9.569 -0.1944 -0.2091 -0.4092
  166SOPE  H10118680   3.079   2.121   9.588 -1.2797 -1.4802 -2.5049
  166SOPE  C21118681   3.225   2.107   9.435 -0.2619  0.2605 -0.2837
  166SOPE  H11R18682   3.305   2.037   9.402 -0.4768 -0.4712  0.6953
  166SOPE  H11S18683   3.262   2.210   9.421 -1.5639  0.9034  0.7606
  166SOPE  C21218684   3.104   2.090   9.345 -0.6304 -0.1665 -0.3511
  166SOPE  H12R18685   3.024   2.164   9.368  1.7630  1.6098  2.9807
  166SOPE  H12S18686   3.068   1.984   9.348  1.4137 -0.9023 -0.4897
  166SOPE  C21318687   3.144   2.122   9.196 -0.2349  0.0018 -0.3734
  166SOPE  H13R18688   3.233   2.067   9.160 -0.3794 -0.7689  0.4124
  166SOPE  H13S18689   3.165   2.231   9.189  0.6019  0.1035  2.4127
  166SOPE  C21418690   3.032   2.081   9.097 -0.1850 -0.3250 -0.2579
  166SOPE  H14R18691   2.948   2.148   9.126 -0.3456 -0.8706  0.5957
  166SOPE  H14S18692   3.006   1.974   9.115  0.3398 -0.9845 -3.0452
  166SOPE  C21518693   3.086   2.104   8.956 -0.3573  0.5548 -0.6285
  166SOPE  H15R18694   3.016   2.055   8.885 -0.6914 -0.8998  0.6423
  166SOPE  H15S18695   3.180   2.046   8.944 -2.1691 -2.5045 -1.1246
  166SOPE  C21618696   3.106   2.253   8.917 -0.5211 -0.7133 -0.1707
  166SOPE  H16R18697   3.169   2.306   8.991 -1.5355 -0.2962  0.4064
  166SOPE  H16S18698   3.007   2.302   8.908 -0.4472 -0.7106 -1.0622
  166SOPE  C21718699   3.170   2.266   8.774 -0.1207  0.2337  0.4029
  166SOPE  H17R18700   3.240   2.180   8.772  0.5066  0.7007 -2.1729
  166SOPE  H17S18701   3.234   2.356   8.763  0.6920 -0.5524 -1.9422
  166SOPE  C21818702   3.071   2.249   8.661  0.3243  1.3606 -0.0688
  166SOPE  H18R18703   2.999   2.332   8.661  1.3748  2.3100  1.0049
  166SOPE  H18S18704   3.011   2.156   8.676  1.0575  1.1009  1.4433
  166SOPE  H18T18705   3.133   2.219   8.573 -1.0671 -3.1878  0.2431
  166SOPE   C3318706   3.197   2.604  10.260 -0.1349 -0.0569  0.2580
  166SOPE   H3X18707   3.264   2.520  10.289  1.6035  2.3866  4.3235
  166SOPE   H3Y18708   3.267   2.682  10.222  1.7290 -1.9158 -0.2898
  166SOPE   C3418709   3.096   2.567  10.148  0.0363 -0.1960  0.1315
  166SOPE   H4X18710   3.051   2.666  10.123 -0.2591 -0.6767 -1.3390
  166SOPE   H4Y18711   3.014   2.500  10.180 -0.2006  0.0241 -0.0076
  166SOPE   C3518712   3.155   2.515  10.019  0.0088  0.5847  0.3997
  166SOPE   H5X18713   3.228   2.433  10.036  0.6855  1.4035  1.5410
  166SOPE   H5Y18714   3.214   2.592   9.965 -0.9612  0.5873 -0.6939
  166SOPE   C3618715   3.047   2.472   9.922  0.4170  0.8653  0.5993
  166SOPE   H6X18716   2.960   2.540   9.932 -1.9457 -1.8497 -0.2951
  166SOPE   H6Y18717   2.999   2.376   9.949 -0.9608  0.7182 -2.0678
  166SOPE   C3718718   3.101   2.473   9.776 -0.0568  0.2637  0.4895
  166SOPE   H7X18719   3.168   2.385   9.771 -0.1775  0.2308 -0.9772
  166SOPE   H7Y18720   3.157   2.563   9.744 -3.3338  2.0227 -0.7612
  166SOPE   C3818721   2.989   2.448   9.679  0.2662 -0.0771 -0.3901
  166SOPE   H8X18722   2.922   2.535   9.686 -0.0130  0.2085 -4.3915
  166SOPE   H8Y18723   2.927   2.362   9.713  0.1099  0.3771  0.4981
  166SOPE   C3918724   3.040   2.440   9.538 -0.6143  0.4055 -0.0573
  166SOPE   H9X18725   3.092   2.342   9.525 -1.9642 -0.3337 -0.0181
  166SOPE   H9Y18726   3.117   2.521   9.536  1.6743 -1.6451  0.1793
  166SOPE  C31018727   2.928   2.465   9.436 -0.6116  0.0429  0.0521
  166SOPE  H10X18728   2.888   2.561   9.474 -2.1809 -0.5888  0.1001
  166SOPE  H10Y18729   2.848   2.388   9.449 -0.9973  0.3685 -0.3344
  166SOPE  C31118730   2.955   2.465   9.285  0.0638 -0.4562 -0.2559
  166SOPE  H11X18731   2.882   2.389   9.253  0.0453 -2.4211  3.7886
  166SOPE  H11Y18732   3.060   2.443   9.256 -0.3697  0.4123 -2.6750
  166SOPE  C31218733   2.907   2.592   9.215 -0.4205  0.0312 -0.5757
  166SOPE  H12X18734   2.968   2.674   9.260  0.5903 -0.0611 -1.7260
  166SOPE  H12Y18735   2.801   2.620   9.235 -0.1819  1.0319 -0.6422
  166SOPE  C31318736   2.937   2.592   9.070  0.1841 -0.3086  0.1800
  166SOPE  H13X18737   2.887   2.511   9.012  1.4803 -0.7956 -0.3028
  166SOPE  H13Y18738   3.046   2.578   9.055 -0.0484 -2.1247 -0.0326
  166SOPE  C31418739   2.902   2.733   9.006  0.6604  0.8139 -0.2687
  166SOPE  H14X18740   2.926   2.819   9.072 -0.9384  0.5892  0.6627
  166SOPE  H14Y18741   2.795   2.747   8.977  0.5625  1.0232  0.1947
  166SOPE  C31518742   2.982   2.763   8.870  0.4952  0.3641  0.3901
  166SOPE  H15X18743   2.996   2.669   8.811  0.7659  1.1148 -0.7672
  166SOPE  H15Y18744   3.081   2.805   8.896  1.0246  1.0957 -2.4851
  166SOPE  C31618745   2.907   2.850   8.768 -0.0192  0.2236 -1.2733
  166SOPE  H16X18746   2.818   2.795   8.730  1.2668 -2.5565 -0.5324
  166SOPE  H16Y18747   2.965   2.871   8.676  0.5480 -0.1126 -0.9975
  166SOPE  C31718748   2.873   2.991   8.834  1.0230 -0.0890 -0.1032
  166SOPE  H17X18749   2.961   3.028   8.892  0.4640 -0.9538  1.3473
  166SOPE  H17Y18750   2.801   2.974   8.917 -2.5602  1.5062 -2.6166
  166SOPE  C31818751   2.817   3.087   8.730 -0.4480 -0.1363  0.1473
  166SOPE  H18X18752   2.738   3.040   8.668 -0.7574  0.4855  0.0627
  166SOPE  H18Y18753   2.909   3.113   8.673  1.4966 -1.8965  2.2558
  166SOPE  H18Z18754   2.778   3.179   8.779 -0.0107  0.5566 -0.7803
  167SOPE     N18755   3.506   3.442   5.906 -0.5339  0.1620 -0.5066
  167SOPE   HN118756   3.407   3.426   5.936 -0.5524 -1.2657 -1.2701
  167SOPE   HN218757   3.535   3.533   5.949  0.2419  1.0613 -2.7799
  167SOPE   HN318758   3.522   3.443   5.804  1.2331 -1.2767 -0.2923
  167SOPE   C1218759   3.580   3.328   5.962  0.5591 -0.3968  0.1707
  167SOPE  H12A18760   3.591   3.260   5.874  0.2951 -0.7734  0.4215
  167SOPE  H12B18761   3.503   3.285   6.031  1.0642  2.2949  2.5744
  167SOPE   C1118762   3.693   3.373   6.054 -0.7992 -0.1932 -0.8286
  167SOPE  H11A18763   3.711   3.282   6.116 -0.9993  0.4987  0.2612
  167SOPE  H11B18764   3.656   3.457   6.117  0.8144  1.3153 -1.8054
  167SOPE     P18765   3.929   3.476   6.052  0.1400 -0.3163  0.0713
  167SOPE   O1318766   3.923   3.622   6.020  0.2589  0.3995 -0.3742
  167SOPE   O1418767   4.051   3.403   6.020 -0.9813  0.2002  0.3417
  167SOPE   O1218768   3.803   3.417   5.976  0.8205  0.5951  1.0465
  167SOPE   O1118769   3.885   3.454   6.202  0.1210  0.3330 -0.2799
  167SOPE    C118770   3.971   3.422   6.308 -0.0626  0.0108 -0.4160
  167SOPE    HA18771   3.985   3.516   6.364  2.0066 -0.1625 -0.5550
  167SOPE    HB18772   4.070   3.384   6.275  0.0167  0.4735 -0.7178
  167SOPE    C218773   3.911   3.316   6.399 -0.1237  0.0803  0.1428
  167SOPE    HS18774   3.804   3.339   6.420 -1.2966 -2.2278 -2.7698
  167SOPE   O2118775   3.991   3.307   6.522  0.2934 -0.2230 -0.4555
  167SOPE   C2118776   3.969   3.398   6.611 -0.5766 -0.5382 -0.3374
  167SOPE   O2218777   3.915   3.506   6.604 -0.1582  0.0050  0.3071
  167SOPE   C2218778   4.021   3.339   6.744 -0.2428  0.1812  0.0836
  167SOPE   H2R18779   4.130   3.317   6.747 -0.6581 -2.0232  1.1156
  167SOPE   H2S18780   3.978   3.236   6.742  1.1660 -0.4148 -0.2766
  167SOPE    C318781   3.896   3.178   6.337  0.1935  0.1884 -0.3631
  167SOPE    HX18782   3.999   3.143   6.312  0.9930  1.6401  0.7288
  167SOPE    HY18783   3.847   3.190   6.238  0.6622 -1.5501 -0.8395
  167SOPE   O3118784   3.825   3.095   6.431 -0.0940 -0.2056  0.2212
  167SOPE   C3118785   3.884   2.982   6.468  0.5763 -0.2127  0.1148
  167SOPE   O3218786   3.997   2.949   6.432  0.0195 -0.1786  0.4477
  167SOPE   C3218787   3.777   2.921   6.560 -0.2719  0.3666 -0.2960
  167SOPE   H2X18788   3.720   2.852   6.494  0.9790  0.2508 -1.3008
  167SOPE   H2Y18789   3.702   2.990   6.604 -1.5911 -1.4572  0.4582
  167SOPE   C2318790   3.961   3.390   6.873 -0.1670 -0.5733  0.0679
  167SOPE   H3R18791   3.850   3.391   6.874 -0.1835  0.8751 -0.4978
  167SOPE   H3S18792   3.990   3.497   6.870  0.9213 -0.8653 -0.5753
  167SOPE   C2418793   4.016   3.330   7.008 -0.7073 -0.1912  0.0049
  167SOPE   H4R18794   3.966   3.233   7.030  0.1375 -1.0460 -1.6633
  167SOPE   H4S18795   4.125   3.317   6.994 -1.1658 -2.3134 -2.3371
  167SOPE   C2518796   3.977   3.423   7.122 -0.5449 -0.4600 -0.5819
  167SOPE   H5R18797   4.043   3.513   7.118 -0.1697 -0.7822 -1.7542
  167SOPE   H5S18798   3.874   3.465   7.124 -1.0443 -1.3658 -3.3251
  167SOPE   C2618799   3.989   3.353   7.257 -0.1114  0.2523  0.2004
  167SOPE   H6R18800   3.944   3.252   7.253 -0.5384  0.4432  0.0572
  167SOPE   H6S18801   4.098   3.336   7.264  0.0576  1.1526 -0.0403
  167SOPE   C2718802   3.947   3.429   7.391 -0.1750  0.2904 -0.1082
  167SOPE   H7R18803   4.004   3.524   7.397  1.4881 -0.6640 -0.3076
  167SOPE   H7S18804   3.843   3.468   7.386  0.2935  1.6412  0.1741
  167SOPE   C2818805   3.938   3.341   7.519  0.4019 -0.2226 -0.0065
  167SOPE   H8R18806   3.858   3.385   7.582 -0.1930  2.5887 -2.4887
  167SOPE   H8S18807   3.911   3.238   7.487 -1.8284 -0.1623  1.5131
  167SOPE   C2918808   4.074   3.339   7.580  0.4507 -0.5559 -0.0543
  167SOPE   H9118809   4.155   3.318   7.509  0.5824  2.3931 -0.9231
  167SOPE  C21018810   4.108   3.377   7.702  0.5886  0.0963  0.0664
  167SOPE  H10118811   4.217   3.371   7.719  0.7235 -3.2892 -1.1807
  167SOPE  C21118812   4.021   3.426   7.814  0.1392  0.0846 -0.8646
  167SOPE  H11R18813   3.918   3.452   7.784 -0.3852  0.5873  1.1909
  167SOPE  H11S18814   4.061   3.526   7.844 -1.2889  0.0208  1.4945
  167SOPE  C21218815   4.013   3.344   7.944  0.3001  0.8097 -0.0098
  167SOPE  H12R18816   4.002   3.417   8.027  2.5181  3.7818 -2.1078
  167SOPE  H12S18817   4.112   3.296   7.956 -1.7468 -3.6402  1.2181
  167SOPE  C21318818   3.914   3.225   7.922 -0.3641 -0.0811  0.6564
  167SOPE  H13R18819   3.965   3.142   7.870 -3.1232 -0.9713 -0.7958
  167SOPE  H13S18820   3.836   3.268   7.856 -3.1629 -1.5473  2.8057
  167SOPE  C21418821   3.841   3.167   8.048  0.0944 -0.2008 -0.3774
  167SOPE  H14R18822   3.797   3.256   8.099  2.4477  0.8803 -0.1110
  167SOPE  H14S18823   3.912   3.121   8.118  0.5005 -0.2347 -0.8064
  167SOPE  C21518824   3.747   3.055   8.004  0.6420  0.0644 -0.6321
  167SOPE  H15R18825   3.806   2.966   7.972 -0.9142 -0.6010 -1.8245
  167SOPE  H15S18826   3.688   3.098   7.919 -1.9062 -0.3633  0.8010
  167SOPE  C21618827   3.639   3.005   8.104  0.1984 -0.2664 -0.0089
  167SOPE  H16R18828   3.561   2.942   8.057 -1.6222 -0.8226  3.4447
  167SOPE  H16S18829   3.593   3.095   8.148  1.0886 -0.4974  1.4864
  167SOPE  C21718830   3.714   2.921   8.208 -0.9131  0.3805  1.1015
  167SOPE  H17R18831   3.782   2.988   8.265 -0.6527  0.9372  0.1430
  167SOPE  H17S18832   3.765   2.840   8.152 -1.0744  0.3005  1.0669
  167SOPE  C21818833   3.618   2.846   8.299 -0.9801 -0.4525 -0.1178
  167SOPE  H18R18834   3.680   2.782   8.365 -0.6353  0.3392  0.3348
  167SOPE  H18S18835   3.555   2.780   8.236  0.4529 -0.6659 -1.3954
  167SOPE  H18T18836   3.560   2.914   8.365 -0.7485  0.2605 -0.6433
  167SOPE   C3318837   3.840   2.840   6.677  0.2342 -0.9170 -0.2072
  167SOPE   H3X18838   3.935   2.790   6.651  1.0110 -0.2194  1.1887
  167SOPE   H3Y18839   3.771   2.761   6.715  1.0927 -0.0758  3.5666
  167SOPE   C3418840   3.888   2.930   6.793 -0.1374 -0.0638 -0.0854
  167SOPE   H4X18841   3.809   2.996   6.835  1.3509  1.5290  0.3157
  167SOPE   H4Y18842   3.959   3.001   6.746  0.1236 -0.8668 -0.9311
  167SOPE   C3518843   3.972   2.866   6.907 -0.6512 -0.5393  0.2228
  167SOPE   H5X18844   4.055   2.927   6.948  1.9608 -2.7288 -1.4240
  167SOPE   H5Y18845   4.036   2.792   6.853  2.0455  2.8586 -1.6138
  167SOPE   C3618846   3.898   2.809   7.022 -0.6489  1.0364  0.0015
  167SOPE   H6X18847   3.962   2.740   7.081 -1.2462  0.3493 -0.1492
  167SOPE   H6Y18848   3.816   2.746   6.983  0.7380 -0.6934 -0.2822
  167SOPE   C3718849   3.848   2.923   7.119  0.2259 -0.4961 -0.6560
  167SOPE   H7X18850   3.815   3.009   7.057  0.4748  0.2287  0.1952
  167SOPE   H7Y18851   3.938   2.956   7.175 -1.3573  1.3293  0.9327
  167SOPE   C3818852   3.744   2.873   7.219 -0.1531 -0.7104  0.2088
  167SOPE   H8X18853   3.660   2.824   7.165 -0.3355  0.3227 -0.4935
  167SOPE   H8Y18854   3.683   2.954   7.264 -1.3983 -0.6226 -1.5255
  167SOPE   C3918855   3.804   2.787   7.328  0.9685 -0.3426  0.2808
  167SOPE   H9X18856   3.879   2.717   7.285 -0.5233 -0.8083 -1.7551
  167SOPE   H9Y18857   3.722   2.725   7.370 -3.1695  2.4753 -2.8756
  167SOPE  C31018858   3.855   2.873   7.447  0.5687 -0.6307 -0.0111
  167SOPE  H10X18859   3.771   2.939   7.479  0.0273 -1.6319  0.6594
  167SOPE  H10Y18860   3.929   2.942   7.401 -2.1036  1.0873 -2.0776
  167SOPE  C31118861   3.908   2.796   7.576 -0.1281 -0.3784  0.6700
  167SOPE  H11X18862   3.998   2.740   7.544  0.4486  1.2518 -0.6797
  167SOPE  H11Y18863   3.828   2.728   7.613 -0.4757 -0.3761 -0.0526
  167SOPE  C31218864   3.941   2.893   7.688 -0.6011  0.6041 -0.2237
  167SOPE  H12X18865   3.853   2.960   7.699 -1.3254 -0.3752  0.1046
  167SOPE  H12Y18866   4.019   2.967   7.658 -0.6748  0.4104 -0.9173
  167SOPE  C31318867   4.002   2.834   7.819  0.4544 -0.1439  0.0616
  167SOPE  H13X18868   3.923   2.768   7.859  0.8103 -0.0293  0.9813
  167SOPE  H13Y18869   4.015   2.912   7.898 -2.5460  0.1186  0.4218
  167SOPE  C31418870   4.127   2.751   7.796 -0.5756  0.2818 -0.4189
  167SOPE  H14X18871   4.202   2.828   7.772  0.9982 -1.6721 -2.1844
  167SOPE  H14Y18872   4.109   2.688   7.706  3.4185  0.7895 -1.7908
  167SOPE  C31518873   4.170   2.673   7.924 -0.5250  0.2317 -0.1579
  167SOPE  H15X18874   4.092   2.598   7.950  0.7971 -1.2202 -0.2261
  167SOPE  H15Y18875   4.179   2.743   8.009  1.1778 -1.9207  1.5792
  167SOPE  C31618876   4.300   2.598   7.901  1.0350 -0.6310 -0.2884
  167SOPE  H16X18877   4.326   2.547   7.996  1.4440 -0.3296 -0.2336
  167SOPE  H16Y18878   4.383   2.671   7.890 -0.2238  0.8073 -0.4835
  167SOPE  C31718879   4.292   2.492   7.791  0.1216 -0.1630  0.1719
  167SOPE  H17X18880   4.280   2.547   7.695 -0.2059 -0.6167 -0.0491
  167SOPE  H17Y18881   4.199   2.435   7.811 -0.1219  0.3430  0.5012
  167SOPE  C31818882   4.407   2.393   7.788 -0.2085  0.2189 -0.6820
  167SOPE  H18X18883   4.503   2.448   7.790 -0.5836  0.8772  0.8484
  167SOPE  H18Y18884   4.406   2.326   7.699  0.2194  0.8699 -1.1815
  167SOPE  H18Z18885   4.406   2.330   7.880  0.0066 -1.1460 -1.5860
  168SOPE     N18886   4.372   1.622   6.274  0.0381 -0.0042  0.1952
  168SOPE   HN118887   4.300   1.619   6.348 -0.0341 -1.2599  0.1112
  168SOPE   HN218888   4.394   1.526   6.239  1.7678 -0.0826  1.3293
  168SOPE   HN318889   4.462   1.660   6.309  1.8554 -1.0762 -2.9051
  168SOPE   C1218890   4.324   1.690   6.157  0.2246  0.6904 -0.0665
  168SOPE  H12A18891   4.385   1.665   6.067  1.4152 -1.7190  1.3082
  168SOPE  H12B18892   4.327   1.799   6.182 -0.9578  0.3356  1.8409
  168SOPE   C1118893   4.173   1.669   6.132  0.3036 -0.0241 -0.1092
  168SOPE  H11A18894   4.156   1.582   6.065  1.0933 -0.9474  0.8413
  168SOPE  H11B18895   4.138   1.761   6.082  3.4446  0.9510 -0.7407
  168SOPE     P18896   4.045   1.756   6.357 -0.1611  0.0262  0.1773
  168SOPE   O1318897   3.928   1.703   6.429 -0.2645  0.0033  0.4903
  168SOPE   O1418898   4.036   1.892   6.293  0.4616  0.7356 -0.1966
  168SOPE   O1218899   4.100   1.651   6.252  0.3326  0.0692 -0.3918
  168SOPE   O1118900   4.164   1.745   6.459 -0.3645  0.0849  0.2931
  168SOPE    C118901   4.253   1.861   6.475 -0.1563  0.2290  1.1093
  168SOPE    HA18902   4.267   1.913   6.378 -1.0399 -2.1903 -0.4067
  168SOPE    HB18903   4.349   1.824   6.518  0.0472  0.2550  0.6739
  168SOPE    C218904   4.206   1.967   6.591  0.1887 -0.5903 -0.3059
  168SOPE    HS18905   4.293   2.031   6.618  0.5650 -2.1831  2.7092
  168SOPE   O2118906   4.157   1.903   6.709 -0.2804  0.4183 -0.0589
  168SOPE   C2118907   4.150   1.969   6.820  0.2886 -0.1451 -0.7231
  168SOPE   O2218908   4.170   2.088   6.836 -0.6602 -0.1371  0.3465
  168SOPE   C2218909   4.083   1.886   6.924 -1.3594 -0.1339  0.3884
  168SOPE   H2R18910   4.152   1.808   6.962 -0.5101 -0.7561 -2.1961
  168SOPE   H2S18911   3.992   1.833   6.887 -0.2520 -2.2909  0.6128
  168SOPE    C318912   4.097   2.066   6.543  0.2793 -0.1840 -0.4681
  168SOPE    HX18913   3.998   2.014   6.547 -0.2943  0.8849 -0.4501
  168SOPE    HY18914   4.104   2.088   6.434  0.0171 -0.6106 -0.5766
  168SOPE   O3118915   4.091   2.198   6.612 -0.2264 -0.3787 -0.2041
  168SOPE   C3118916   3.974   2.232   6.674 -0.3609 -0.1284 -0.1263
  168SOPE   O3218917   3.873   2.165   6.677 -0.3739 -0.3241 -0.0281
  168SOPE   C3218918   4.001   2.373   6.724  0.0052  0.4450 -0.0619
  168SOPE   H2X18919   3.919   2.431   6.677  1.1984  0.7781 -1.8311
  168SOPE   H2Y18920   4.089   2.416   6.672  0.4240 -2.8792 -2.4466
  168SOPE   C2318921   4.036   1.961   7.045 -0.2071 -1.1670  0.1597
  168SOPE   H3R18922   3.943   2.012   7.011  0.8589  0.6694 -0.1013
  168SOPE   H3S18923   4.105   2.042   7.073 -0.7393 -1.0670  1.2199
  168SOPE   C2418924   4.012   1.870   7.170  0.4888 -0.6396  0.2018
  168SOPE   H4R18925   3.979   1.768   7.141  0.0496 -0.0915 -1.3124
  168SOPE   H4S18926   4.111   1.868   7.219  0.2010  1.4335  0.9398
  168SOPE   C2518927   3.905   1.905   7.275  0.5186 -0.3206 -0.3433
  168SOPE   H5R18928   3.926   2.003   7.323 -1.3469 -0.3829  0.6720
  168SOPE   H5S18929   3.812   1.911   7.214 -0.0974  0.5805  0.6509
  168SOPE   C2618930   3.908   1.795   7.389 -0.0271  0.1184  0.3791
  168SOPE   H6R18931   3.893   1.694   7.346  1.2802  0.7394 -1.6871
  168SOPE   H6S18932   4.010   1.803   7.431  0.5095  3.5998 -1.1785
  168SOPE   C2718933   3.817   1.822   7.513  0.5307 -0.1111  0.8815
  168SOPE   H7R18934   3.816   1.931   7.536 -1.8898  0.0379  0.3133
  168SOPE   H7S18935   3.716   1.782   7.489 -0.3478  1.5001  1.7041
  168SOPE   C2818936   3.855   1.744   7.641 -0.1240 -0.6936 -0.1410
  168SOPE   H8R18937   3.759   1.747   7.698  1.3157 -1.5726  2.5226
  168SOPE   H8S18938   3.885   1.638   7.627  1.6629 -0.4424  1.4197
  168SOPE   C2918939   3.967   1.820   7.716 -0.5160 -0.9994 -0.0599
  168SOPE   H9118940   4.045   1.862   7.651 -1.8601  1.5366 -0.1297
  168SOPE  C21018941   3.975   1.847   7.846  0.5559  0.1506 -0.4749
  168SOPE  H10118942   4.056   1.916   7.873 -1.1009  1.3302  1.9337
  168SOPE  C21118943   3.876   1.798   7.945 -0.2229  0.0328 -0.3844
  168SOPE  H11R18944   3.803   1.721   7.912 -0.7917  0.3022  0.2198
  168SOPE  H11S18945   3.812   1.881   7.983 -1.0181 -1.0253  0.6465
  168SOPE  C21218946   3.946   1.747   8.073 -0.3233 -0.5155 -0.6161
  168SOPE  H12R18947   4.020   1.824   8.105 -1.8045 -0.0528  1.9926
  168SOPE  H12S18948   3.996   1.648   8.062  0.9089 -0.0277  0.3375
  168SOPE  C21318949   3.855   1.743   8.200 -0.7189 -0.3770 -0.1342
  168SOPE  H13R18950   3.902   1.689   8.285 -0.7263 -2.6551 -1.4867
  168SOPE  H13S18951   3.766   1.680   8.180 -1.9604 -0.0679  3.6264
  168SOPE  C21418952   3.794   1.881   8.248 -0.2316 -0.5054  0.4486
  168SOPE  H14R18953   3.737   1.924   8.163 -1.0606 -1.2754  0.5991
  168SOPE  H14S18954   3.872   1.960   8.261 -0.6726  0.3897 -1.8504
  168SOPE  C21518955   3.700   1.868   8.365 -0.1318  0.4703  0.1400
  168SOPE  H15R18956   3.642   1.776   8.344  0.2109  0.0691  0.9364
  168SOPE  H15S18957   3.624   1.948   8.375 -1.1686 -0.5006  0.1568
  168SOPE  C21618958   3.785   1.848   8.494  0.3229 -0.1546 -0.7624
  168SOPE  H16R18959   3.836   1.940   8.530 -0.2814  0.6252 -1.8544
  168SOPE  H16S18960   3.846   1.756   8.479 -2.0497 -2.1223  0.7981
  168SOPE  C21718961   3.699   1.811   8.607  0.2329  0.0396 -0.1088
  168SOPE  H17R18962   3.646   1.715   8.587  0.1152  0.1339 -0.2510
  168SOPE  H17S18963   3.626   1.891   8.633 -0.4349 -0.5606 -0.1095
  168SOPE  C21818964   3.791   1.800   8.737  0.1009  0.3841  0.1817
  168SOPE  H18R18965   3.861   1.713   8.730  0.2647  0.6345 -2.1681
  168SOPE  H18S18966   3.713   1.783   8.814 -0.5917 -0.6135 -0.7089
  168SOPE  H18T18967   3.856   1.889   8.747 -0.3328  0.9901 -1.8472
  168SOPE   C3318968   4.012   2.374   6.880 -0.0077 -0.5839  0.1565
  168SOPE   H3X18969   4.029   2.269   6.911 -2.6014 -1.1718 -0.1985
  168SOPE   H3Y18970   3.922   2.405   6.937  0.3368 -2.2535  1.6920
  168SOPE   C3418971   4.129   2.455   6.930 -0.0988 -1.4938  0.1819
  168SOPE   H4X18972   4.097   2.561   6.931 -3.3689 -2.3125 -1.5577
  168SOPE   H4Y18973   4.209   2.442   6.853 -1.5671 -2.0640 -1.3086
  168SOPE   C3518974   4.188   2.405   7.065 -0.4244  0.8375 -0.1974
  168SOPE   H5X18975   4.212   2.296   7.067  0.8413  1.0963  1.2873
  168SOPE   H5Y18976   4.111   2.428   7.143 -0.7559  1.5641 -0.7310
  168SOPE   C3618977   4.315   2.476   7.103  0.0021  0.2170  0.2174
  168SOPE   H6X18978   4.300   2.586   7.090 -0.0576  0.0979 -0.8901
  168SOPE   H6Y18979   4.390   2.445   7.027 -1.4414 -0.8200 -0.8463
  168SOPE   C3718980   4.390   2.439   7.226  0.5762 -0.0095  0.6704
  168SOPE   H7X18981   4.405   2.329   7.232 -1.3297 -0.2955  0.7733
  168SOPE   H7Y18982   4.334   2.479   7.313 -0.0817 -1.1385  0.7939
  168SOPE   C3818983   4.527   2.511   7.221  0.6895 -0.1583 -0.4271
  168SOPE   H8X18984   4.516   2.621   7.211 -0.5955 -0.3528 -1.4074
  168SOPE   H8Y18985   4.588   2.475   7.135  1.5857 -1.2206  0.6122
  168SOPE   C3918986   4.619   2.496   7.352  0.3429  0.7104  0.1702
  168SOPE   H9X18987   4.558   2.528   7.440 -0.2343  0.8608 -0.2809
  168SOPE   H9Y18988   4.703   2.568   7.344  1.3956 -0.5415 -0.3685
  168SOPE  C31018989   4.666   2.350   7.379 -0.0592 -0.2778  0.5160
  168SOPE  H10X18990   4.710   2.317   7.282  1.6655  1.9071  0.4719
  168SOPE  H10Y18991   4.582   2.280   7.397 -1.2159  0.2717 -2.2530
  168SOPE  C31118992   4.775   2.346   7.489 -0.0274  0.0757  0.3760
  168SOPE  H11X18993   4.732   2.409   7.570  0.6851  0.9428  0.1089
  168SOPE  H11Y18994   4.866   2.400   7.455 -0.2195 -0.7196 -1.5212
  168SOPE  C31218995   4.808   2.204   7.539  0.4165  0.8515  0.2587
  168SOPE  H12X18996   4.892   2.158   7.482  0.0807 -1.3446  1.4079
  168SOPE  H12Y18997   4.715   2.145   7.523  0.4582  0.2084  2.1043
  168SOPE  C31318998   4.843   2.201   7.686  0.1651  0.1656 -0.1867
  168SOPE  H13X18999   4.828   2.103   7.736 -0.0600  1.5566  2.6379
  168SOPE  H13Y19000   4.775   2.269   7.741 -1.3287 -1.2971 -0.1342
  168SOPE  C31419001   4.993   2.239   7.701 -0.1099  0.1081 -0.6104
  168SOPE  H14X19002   5.012   2.347   7.685 -0.8451  0.5604  1.3132
  168SOPE  H14Y19003   5.063   2.177   7.640  0.7659  0.6354 -0.1556
  168SOPE  C31519004   5.043   2.212   7.846 -0.1083  0.4707 -0.0431
  168SOPE  H15X19005   5.028   2.104   7.868  1.1638  0.7122  2.2227
  168SOPE  H15Y19006   4.973   2.264   7.914  0.2358  0.8643  0.0069
  168SOPE  C31619007   5.183   2.249   7.886  0.1626  0.4842  0.0493
  168SOPE  H16X19008   5.188   2.359   7.902  3.1296  0.5601 -0.8883
  168SOPE  H16Y19009   5.249   2.215   7.803 -0.3224 -1.3880  0.3939
  168SOPE  C31719010   5.224   2.181   8.013  0.3865  0.9089 -0.0347
  168SOPE  H17X19011   5.334   2.194   8.023  0.4684 -0.3352  0.8674
  168SOPE  H17Y19012   5.212   2.070   8.008 -2.5522  1.1555 -0.4391
  168SOPE  C31819013   5.156   2.221   8.148 -0.6415 -0.2104 -0.0620
  168SOPE  H18X19014   5.213   2.179   8.233  0.4722  1.0016 -0.1819
  168SOPE  H18Y19015   5.051   2.185   8.150 -0.8249  0.3452  0.3634
  168SOPE  H18Z19016   5.158   2.332   8.154 -0.7770 -0.1515 -0.9356
  169SOPE     N19017   6.625   4.345   6.022 -0.5896  0.5142 -0.6436
  169SOPE   HN119018   6.669   4.319   5.932  1.7191 -0.9260  0.7813
  169SOPE   HN219019   6.539   4.287   6.030 -1.2908  1.5323 -0.7063
  169SOPE   HN319020   6.603   4.446   6.022  1.5204  1.1859  3.2344
  169SOPE   C1219021   6.733   4.294   6.118  0.5495  0.2322  0.2636
  169SOPE  H12A19022   6.821   4.361   6.112  0.8262  0.2022  2.9746
  169SOPE  H12B19023   6.764   4.189   6.095  0.5927 -0.3556  2.7164
  169SOPE   C1119024   6.664   4.300   6.263  0.2528  0.7906  0.4532
  169SOPE  H11A19025   6.639   4.408   6.271  0.4989  1.0950 -2.0509
  169SOPE  H11B19026   6.738   4.263   6.338 -0.5141 -0.0428  0.8122
  169SOPE     P19027   6.531   4.070   6.300  0.2869  0.4087 -0.9452
  169SOPE   O1319028   6.589   4.005   6.180  0.0212  0.1520 -0.6215
  169SOPE   O1419029   6.390   4.035   6.327  0.5002  0.1258 -0.7779
  169SOPE   O1219030   6.541   4.225   6.267  0.3273  0.5895 -0.4399
  169SOPE   O1119031   6.625   4.058   6.422 -0.6152  0.1725 -0.0676
  169SOPE    C119032   6.676   3.933   6.480 -0.4055 -0.4782 -0.0293
  169SOPE    HA19033   6.764   3.902   6.420 -1.0404 -0.9075 -0.7530
  169SOPE    HB19034   6.606   3.848   6.468 -0.7112  0.0067 -2.0451
  169SOPE    C219035   6.701   3.938   6.633 -0.3132 -0.2870  0.4889
  169SOPE    HS19036   6.700   3.829   6.654  0.5341 -0.1684  1.1821
  169SOPE   O2119037   6.606   4.007   6.715  0.7149 -0.0586 -0.4146
  169SOPE   C2119038   6.487   3.944   6.721 -0.3544  0.5649  0.7473
  169SOPE   O2219039   6.461   3.843   6.657 -0.1427  0.1965  0.6805
  169SOPE   C2219040   6.406   4.005   6.832 -0.2059  0.3553  0.7285
  169SOPE   H2R19041   6.333   4.074   6.785 -0.3122 -2.3041 -3.5319
  169SOPE   H2S19042   6.473   4.069   6.894  2.1267 -1.6742  0.4493
  169SOPE    C319043   6.838   3.999   6.656  0.0236  0.1813 -1.0371
  169SOPE    HX19044   6.819   4.107   6.676  4.2161  0.7214  1.1807
  169SOPE    HY19045   6.909   3.990   6.572  2.5916 -0.5843  1.0653
  169SOPE   O3119046   6.903   3.963   6.776  0.2655  0.1524  0.0175
  169SOPE   C3119047   6.956   3.842   6.773  0.3669 -0.1733 -0.4934
  169SOPE   O3219048   6.971   3.777   6.669 -0.1170  0.0377  0.0185
  169SOPE   C3219049   6.973   3.798   6.920  0.0141  0.0187 -0.4275
  169SOPE   H2X19050   6.879   3.815   6.976 -0.1527 -1.7566 -0.1123
  169SOPE   H2Y19051   7.037   3.876   6.965  0.1354 -0.0591 -0.4634
  169SOPE   C2319052   6.330   3.905   6.931  0.8346 -0.1257  0.3318
  169SOPE   H3R19053   6.284   3.825   6.869 -1.5478  1.5993 -0.2574
  169SOPE   H3S19054   6.258   3.969   6.987  1.5766  0.0052  1.1577
  169SOPE   C2419055   6.419   3.827   7.024 -0.3336 -1.0905  0.8440
  169SOPE   H4R19056   6.504   3.782   6.969 -1.2531 -0.5797 -1.0611
  169SOPE   H4S19057   6.456   3.897   7.103 -0.4827 -0.3322  0.2498
  169SOPE   C2519058   6.348   3.714   7.087 -0.2132 -0.3210 -0.0820
  169SOPE   H5R19059   6.259   3.767   7.128 -0.3812  1.1274 -2.1416
  169SOPE   H5S19060   6.324   3.636   7.011  2.3087 -1.8031  0.5564
  169SOPE   C2619061   6.431   3.651   7.197 -0.0836  0.8878  0.8656
  169SOPE   H6R19062   6.523   3.599   7.166 -1.9385 -3.5820  2.0697
  169SOPE   H6S19063   6.447   3.741   7.260  0.7481  1.7837 -0.5599
  169SOPE   C2719064   6.358   3.542   7.275  0.0690  0.6066 -0.4146
  169SOPE   H7R19065   6.268   3.588   7.322 -0.9751 -0.7724 -1.0122
  169SOPE   H7S19066   6.331   3.462   7.203 -0.0833  0.9293 -0.7218
  169SOPE   C2819067   6.450   3.500   7.391 -0.0218  1.0004  0.0420
  169SOPE   H8R19068   6.410   3.404   7.431  0.2706  1.3162  1.1162
  169SOPE   H8S19069   6.545   3.472   7.341 -0.3763  3.8045 -2.4884
  169SOPE   C2919070   6.454   3.604   7.500  0.3441  0.6981  0.3435
  169SOPE   H9119071   6.520   3.690   7.485  0.1268  0.8204  0.0837
  169SOPE  C21019072   6.377   3.609   7.610  0.5504  0.0024 -0.9322
  169SOPE  H10119073   6.382   3.700   7.672 -0.1590  0.2063 -1.1719
  169SOPE  C21119074   6.264   3.514   7.648 -0.5111 -0.2132 -0.6798
  169SOPE  H11R19075   6.300   3.409   7.644  0.4231  0.1250 -1.5161
  169SOPE  H11S19076   6.178   3.518   7.578 -0.4837 -2.9311 -0.9739
  169SOPE  C21219077   6.207   3.524   7.791 -0.3530 -0.2928 -0.0208
  169SOPE  H12R19078   6.115   3.464   7.802 -1.9942  1.6262 -2.1701
  169SOPE  H12S19079   6.172   3.630   7.791  1.9507  0.5328 -0.6995
  169SOPE  C21319080   6.313   3.503   7.906 -0.3796  0.1526  0.6201
  169SOPE  H13R19081   6.403   3.567   7.898  0.0516 -0.5405 -0.2901
  169SOPE  H13S19082   6.346   3.397   7.892  0.9430  0.8351 -1.9757
  169SOPE  C21419083   6.246   3.534   8.041 -0.5167  0.1621 -0.4848
  169SOPE  H14R19084   6.160   3.467   8.059 -0.3915 -0.7897 -2.9668
  169SOPE  H14S19085   6.211   3.639   8.047 -0.6843  0.0406  1.0202
  169SOPE  C21519086   6.340   3.504   8.165 -0.3006  0.0807 -0.0510
  169SOPE  H15R19087   6.428   3.570   8.149 -0.9929  1.3203  1.0289
  169SOPE  H15S19088   6.381   3.401   8.162  0.0568  0.1852  0.9343
  169SOPE  C21619089   6.262   3.522   8.289  0.2504  0.5054 -0.0191
  169SOPE  H16R19090   6.186   3.441   8.293 -1.4790  2.0974  0.9893
  169SOPE  H16S19091   6.211   3.621   8.288  0.8583  0.8313 -1.4288
  169SOPE  C21719092   6.360   3.525   8.415  0.2908  0.7176 -0.2506
  169SOPE  H17R19093   6.295   3.524   8.505 -1.2853 -0.0667 -1.3447
  169SOPE  H17S19094   6.409   3.624   8.411 -1.0102  1.3679 -0.6285
  169SOPE  C21819095   6.467   3.418   8.414  0.2382 -0.0763  0.1324
  169SOPE  H18R19096   6.421   3.318   8.400 -0.2710  0.1523  0.1550
  169SOPE  H18S19097   6.517   3.421   8.513 -0.6176 -1.0901  0.6160
  169SOPE  H18T19098   6.546   3.440   8.339  1.2972  0.2367  1.3046
  169SOPE   C3319099   7.033   3.657   6.933  0.4550 -0.5544  0.2456
  169SOPE   H3X19100   7.127   3.648   6.875  0.1560  1.3718 -0.6385
  169SOPE   H3Y19101   6.957   3.585   6.896 -0.4789 -1.2783  3.3330
  169SOPE   C3419102   7.065   3.618   7.078  0.2125  0.0799  0.1163
  169SOPE   H4X19103   7.166   3.650   7.110  1.0134 -1.9271 -0.3104
  169SOPE   H4Y19104   7.070   3.507   7.079 -2.0326 -0.1204 -1.5615
  169SOPE   C3519105   6.961   3.663   7.190 -0.1619  0.0340 -0.1841
  169SOPE   H5X19106   6.866   3.610   7.168 -0.0998 -0.9358  1.6537
  169SOPE   H5Y19107   6.945   3.773   7.179 -1.5184  0.0928  1.7455
  169SOPE   C3619108   7.029   3.629   7.321 -0.2560 -0.4009  0.5904
  169SOPE   H6X19109   7.121   3.693   7.321 -1.1401  0.9387 -0.3746
  169SOPE   H6Y19110   7.052   3.522   7.337 -4.1156 -1.2847  1.1130
  169SOPE   C3719111   6.944   3.657   7.449 -0.0761 -0.1569 -0.6105
  169SOPE   H7X19112   6.838   3.627   7.432  0.0965 -2.0118  1.2161
  169SOPE   H7Y19113   6.923   3.766   7.464  0.0985 -0.2084  0.0526
  169SOPE   C3819114   7.005   3.597   7.576  0.0924  1.0894 -0.1376
  169SOPE   H8X19115   7.038   3.492   7.558  0.7428  1.1381  0.7028
  169SOPE   H8Y19116   7.097   3.651   7.606 -0.4097  1.3875  0.9452
  169SOPE   C3919117   6.910   3.603   7.702  0.6780  0.0677 -0.0359
  169SOPE   H9X19118   6.869   3.704   7.724 -4.3314 -1.8220  0.4610
  169SOPE   H9Y19119   6.967   3.580   7.795 -2.1991 -0.9441  1.5929
  169SOPE  C31019120   6.790   3.499   7.706 -0.4013 -0.5449  0.3853
  169SOPE  H10X19121   6.837   3.400   7.692  0.8797  0.1916 -0.8866
  169SOPE  H10Y19122   6.727   3.503   7.615 -0.1446  0.9304  0.2426
  169SOPE  C31119123   6.696   3.496   7.828  1.1506  0.5540  0.5806
  169SOPE  H11X19124   6.623   3.412   7.819  0.6064  1.0369  0.3743
  169SOPE  H11Y19125   6.634   3.589   7.829  2.3773  1.4188 -0.6471
  169SOPE  C31219126   6.764   3.467   7.966 -0.1952 -0.2376  0.0362
  169SOPE  H12X19127   6.691   3.453   8.049  0.3869  1.1738  0.8303
  169SOPE  H12Y19128   6.814   3.562   7.997 -0.7302  0.3168 -0.7346
  169SOPE  C31319129   6.863   3.348   7.980 -0.3727 -0.7878  0.3519
  169SOPE  H13X19130   6.958   3.373   7.928  0.0146 -0.4936  1.1773
  169SOPE  H13Y19131   6.804   3.277   7.919 -0.9920 -0.9311  1.0944
  169SOPE  C31419132   6.885   3.302   8.121  1.2548 -0.1166  0.1804
  169SOPE  H14X19133   6.947   3.210   8.127  1.9830  0.3524  0.0153
  169SOPE  H14Y19134   6.788   3.285   8.171  0.4584  1.4105 -0.7681
  169SOPE  C31519135   6.957   3.411   8.202 -0.4846  0.4833 -0.7633
  169SOPE  H15X19136   6.888   3.499   8.199 -1.8497 -0.5487 -0.6284
  169SOPE  H15Y19137   7.053   3.440   8.153  0.3118  1.0968  1.0878
  169SOPE  C31619138   6.984   3.387   8.353  0.8771  0.3040  0.3575
  169SOPE  H16X19139   7.042   3.479   8.374  1.0000  0.6353 -1.3431
  169SOPE  H16Y19140   7.038   3.290   8.364 -1.4513 -1.3765 -1.9219
  169SOPE  C31719141   6.860   3.371   8.438  0.3466 -0.4219 -0.1141
  169SOPE  H17X19142   6.777   3.307   8.400 -0.0062  0.2299 -0.4586
  169SOPE  H17Y19143   6.808   3.469   8.443 -0.9992 -1.1084 -0.1913
  169SOPE  C31819144   6.890   3.324   8.578  0.3200 -0.0857  0.3309
  169SOPE  H18X19145   6.979   3.384   8.605 -2.1511  2.7032  3.0217
  169SOPE  H18Y19146   6.921   3.217   8.575 -0.4674 -0.3289  0.5840
  169SOPE  H18Z19147   6.806   3.358   8.641  1.1903  0.1830  1.3818
  170SOPE     N19148   0.315   2.721   6.232 -0.0236 -0.3974 -0.8032
  170SOPE   HN119149   0.278   2.766   6.146  0.2128  0.5738 -0.4060
  170SOPE   HN219150   0.372   2.637   6.207  2.5729  0.5240  1.5326
  170SOPE   HN319151   0.229   2.694   6.283 -0.6416  1.9055 -0.4994
  170SOPE   C1219152   0.406   2.816   6.309  0.0322  0.2057  0.2358
  170SOPE  H12A19153   0.414   2.791   6.417  0.9327  0.4990  0.2432
  170SOPE  H12B19154   0.358   2.915   6.311  0.5116  0.4497  1.9156
  170SOPE   C1119155   0.553   2.822   6.254  0.2171 -0.5188  0.3778
  170SOPE  H11A19156   0.595   2.918   6.291  0.7973 -0.3904 -0.5761
  170SOPE  H11B19157   0.555   2.819   6.143 -1.8525  1.2570  0.2253
  170SOPE     P19158   0.658   2.588   6.217  0.0837  0.6450 -0.0086
  170SOPE   O1319159   0.783   2.605   6.139  0.1225 -0.2892  0.2955
  170SOPE   O1419160   0.540   2.555   6.133  0.9921  0.1943 -0.8900
  170SOPE   O1219161   0.619   2.715   6.305 -0.4482  0.0378 -0.4922
  170SOPE   O1119162   0.657   2.469   6.321 -0.0018 -0.0296 -0.1817
  170SOPE    C119163   0.775   2.434   6.391  0.2793  0.5795 -0.6639
  170SOPE    HA19164   0.860   2.490   6.347 -0.8614  1.3120 -2.0197
  170SOPE    HB19165   0.796   2.328   6.364  1.3690  0.6945 -0.3165
  170SOPE    C219166   0.774   2.454   6.547  0.4261 -0.3183 -0.0363
  170SOPE    HS19167   0.681   2.401   6.577 -0.2535  1.5533  1.3275
  170SOPE   O2119168   0.773   2.592   6.583  0.1441  0.3184 -0.2010
  170SOPE   C2119169   0.663   2.640   6.627  0.2918  0.2317  0.0617
  170SOPE   O2219170   0.556   2.584   6.649 -0.3901 -0.2511  0.6714
  170SOPE   C2219171   0.679   2.795   6.632  1.1709  0.7140 -0.0206
  170SOPE   H2R19172   0.582   2.848   6.640  1.7317  1.9634 -1.1591
  170SOPE   H2S19173   0.724   2.823   6.534 -1.4598  0.2343 -1.4669
  170SOPE    C319174   0.882   2.369   6.612  0.1575 -0.3303  0.3816
  170SOPE    HX19175   0.977   2.404   6.567  0.3233  0.2548  1.1740
  170SOPE    HY19176   0.871   2.263   6.578 -0.7493  0.2188 -1.1621
  170SOPE   O3119177   0.894   2.375   6.754  0.8715 -0.2206  0.2097
  170SOPE   C3119178   0.810   2.285   6.813  0.6034 -0.3065 -0.1077
  170SOPE   O3219179   0.738   2.206   6.757  0.6869  0.2350  0.7005
  170SOPE   C3219180   0.802   2.301   6.973  0.7406 -0.4770  0.3371
  170SOPE   H2X19181   0.697   2.328   6.997  0.3376 -1.4233 -0.2924
  170SOPE   H2Y19182   0.879   2.375   7.002 -0.1409 -0.3104  2.3613
  170SOPE   C2319183   0.786   2.827   6.740 -0.1867  0.7637  0.2446
  170SOPE   H3R19184   0.829   2.928   6.726  0.5695  0.4569  0.2530
  170SOPE   H3S19185   0.871   2.759   6.719 -1.2380 -0.2260 -0.9751
  170SOPE   C2419186   0.749   2.810   6.888  0.3333 -0.0906  0.4659
  170SOPE   H4R19187   0.695   2.903   6.915 -0.6079 -0.2225 -0.8627
  170SOPE   H4S19188   0.676   2.728   6.899  1.1867 -1.3046 -2.1496
  170SOPE   C2519189   0.865   2.782   6.978  0.9590  0.3529 -0.3573
  170SOPE   H5R19190   0.903   2.688   6.933 -2.2552 -0.5938 -1.3070
  170SOPE   H5S19191   0.944   2.859   6.996  1.9439 -1.1467  2.3391
  170SOPE   C2619192   0.818   2.743   7.125  0.1318  0.1118 -0.2172
  170SOPE   H6R19193   0.776   2.837   7.167  1.5271  1.6637 -2.0772
  170SOPE   H6S19194   0.733   2.672   7.121  1.2950 -1.3418  0.1035
  170SOPE   C2719195   0.930   2.691   7.221  0.4751 -0.3522  0.3331
  170SOPE   H7R19196   0.967   2.594   7.183  0.7816  0.7743 -2.4198
  170SOPE   H7S19197   1.015   2.761   7.229  0.6565 -0.7743  4.8058
  170SOPE   C2819198   0.899   2.673   7.370  0.6140 -0.1434  0.1597
  170SOPE   H8R19199   0.980   2.610   7.412  1.6079  1.4589  0.7360
  170SOPE   H8S19200   0.906   2.765   7.432 -0.4358 -0.5913  0.9851
  170SOPE   C2919201   0.766   2.607   7.395  0.0148 -0.5267  0.1624
  170SOPE   H9119202   0.724   2.557   7.307 -3.1935 -0.6396  1.6295
  170SOPE  C21019203   0.715   2.593   7.518  0.6120  0.1032  0.0672
  170SOPE  H10119204   0.612   2.559   7.535  0.2307  1.3279  0.2815
  170SOPE  C21119205   0.781   2.638   7.645 -0.0171 -0.1714 -0.0523
  170SOPE  H11R19206   0.699   2.681   7.706 -0.4218 -1.8408  0.6341
  170SOPE  H11S19207   0.870   2.704   7.632 -0.1836  0.0981  0.1785
  170SOPE  C21219208   0.829   2.517   7.725 -0.1756 -0.4063  0.7206
  170SOPE  H12R19209   0.911   2.469   7.669  2.3156  2.6650  1.4787
  170SOPE  H12S19210   0.745   2.451   7.756  1.4445 -1.9235  2.1116
  170SOPE  C21319211   0.894   2.550   7.862  0.0085  0.0722 -0.0683
  170SOPE  H13R19212   0.820   2.596   7.930  0.4148 -1.2548  1.3271
  170SOPE  H13S19213   0.974   2.627   7.849 -0.1622  0.2535 -0.0360
  170SOPE  C21419214   0.939   2.430   7.937 -0.3112  0.5017 -0.2380
  170SOPE  H14R19215   0.985   2.357   7.866  2.5793  1.5475  0.4199
  170SOPE  H14S19216   0.847   2.381   7.976  0.2747 -1.7788 -1.4978
  170SOPE  C21519217   1.053   2.461   8.034  0.5043 -0.9670 -0.4941
  170SOPE  H15R19218   1.007   2.521   8.115  0.6964 -1.2727 -0.1568
  170SOPE  H15S19219   1.125   2.521   7.975  0.1207 -1.4276 -1.4705
  170SOPE  C21619220   1.117   2.340   8.094  0.1415  0.0306 -0.1447
  170SOPE  H16R19221   1.188   2.367   8.175 -0.1922 -1.4517  0.6913
  170SOPE  H16S19222   1.184   2.288   8.023  2.0981 -0.3412  1.8826
  170SOPE  C21719223   1.021   2.234   8.158  0.2935 -0.0674 -0.2306
  170SOPE  H17R19224   1.069   2.139   8.188 -1.1207 -1.6820 -2.7398
  170SOPE  H17S19225   0.962   2.202   8.069 -0.9943  0.4637  0.3906
  170SOPE  C21819226   0.925   2.291   8.267  0.3084 -0.4029 -0.0687
  170SOPE  H18R19227   0.986   2.318   8.355  0.5407  0.0478 -0.3656
  170SOPE  H18S19228   0.842   2.223   8.295 -0.6406  1.8677  3.2008
  170SOPE  H18T19229   0.877   2.385   8.233 -2.6747 -1.7344  0.1878
  170SOPE   C3319230   0.822   2.166   7.048 -0.2583  0.3957  0.2786
  170SOPE   H3X19231   0.912   2.103   7.029  0.1821  1.5362 -1.7650
  170SOPE   H3Y19232   0.735   2.107   7.014  0.2861 -0.5099  0.4084
  170SOPE   C3419233   0.813   2.185   7.204  0.5481  0.2755 -0.0659
  170SOPE   H4X19234   0.817   2.088   7.258 -2.1208  2.1095  3.8453
  170SOPE   H4Y19235   0.727   2.245   7.239 -0.0059  1.3302 -2.9968
  170SOPE   C3519236   0.933   2.272   7.250  0.0062 -0.6124  0.1976
  170SOPE   H5X19237   0.904   2.379   7.247 -2.8929 -1.3118 -0.5460
  170SOPE   H5Y19238   1.014   2.237   7.182 -0.4672  0.1038 -0.7715
  170SOPE   C3619239   0.984   2.242   7.400  0.4773 -0.5931  0.2224
  170SOPE   H6X19240   1.007   2.134   7.413  0.9159 -0.4055  1.0525
  170SOPE   H6Y19241   0.902   2.282   7.463  1.0693  1.8017 -0.4117
  170SOPE   C3719242   1.110   2.326   7.427  0.3599 -0.0184 -0.5818
  170SOPE   H7X19243   1.069   2.429   7.427 -2.2014 -0.9332 -1.7354
  170SOPE   H7Y19244   1.185   2.314   7.346 -0.2035 -0.3728 -1.0666
  170SOPE   C3819245   1.178   2.289   7.563 -0.1998  0.2505  0.1926
  170SOPE   H8X19246   1.230   2.190   7.559 -0.5491  0.0988 -2.6115
  170SOPE   H8Y19247   1.104   2.272   7.644 -0.0909 -0.0098  0.2419
  170SOPE   C3919248   1.279   2.386   7.621 -0.2538 -0.7619  0.8491
  170SOPE   H9X19249   1.230   2.486   7.622 -0.7729 -0.9990  0.0943
  170SOPE   H9Y19250   1.351   2.403   7.538 -1.7148  1.3004 -0.0869
  170SOPE  C31019251   1.337   2.361   7.759  0.3051 -0.1128  0.8021
  170SOPE  H10X19252   1.407   2.275   7.753  1.9190  1.2475 -1.3860
  170SOPE  H10Y19253   1.244   2.335   7.813  1.0027 -2.4616  0.9574
  170SOPE  C31119254   1.409   2.485   7.812 -0.8684  0.0379 -0.4175
  170SOPE  H11X19255   1.342   2.574   7.811 -1.2655 -0.2380 -2.2064
  170SOPE  H11Y19256   1.503   2.497   7.755 -0.9746 -0.8668 -0.8112
  170SOPE  C31219257   1.449   2.477   7.958  0.3572  0.0081  0.7214
  170SOPE  H12X19258   1.487   2.373   7.964 -2.1098 -0.9100  1.5533
  170SOPE  H12Y19259   1.360   2.497   8.021  0.4135  0.8689  0.5421
  170SOPE  C31319260   1.563   2.573   7.986 -0.5873  0.0480 -0.2285
  170SOPE  H13X19261   1.563   2.658   7.914 -1.0951  0.8993  0.7567
  170SOPE  H13Y19262   1.646   2.516   7.939 -0.4352  2.3725 -3.0922
  170SOPE  C31419263   1.577   2.609   8.141  0.9428 -0.3019  0.2149
  170SOPE  H14X19264   1.560   2.516   8.198 -0.8248 -1.2154 -1.6729
  170SOPE  H14Y19265   1.491   2.678   8.153  1.0494  0.1121 -1.1821
  170SOPE  C31519266   1.707   2.675   8.176 -0.3123  0.6412 -0.1517
  170SOPE  H15X19267   1.702   2.774   8.125 -0.4968  1.6070  1.6704
  170SOPE  H15Y19268   1.787   2.615   8.129  1.3550 -0.9809  4.2145
  170SOPE  C31619269   1.713   2.713   8.327  0.7659 -0.0749  0.3028
  170SOPE  H16X19270   1.612   2.749   8.354  0.7377 -1.1211  1.7444
  170SOPE  H16Y19271   1.795   2.788   8.331  2.3656 -1.5444 -2.3013
  170SOPE  C31719272   1.730   2.591   8.419  0.2139  0.0125  0.0376
  170SOPE  H17X19273   1.827   2.537   8.406 -0.1559 -0.7123  0.2270
  170SOPE  H17Y19274   1.646   2.524   8.392  0.7512 -0.3578 -0.7667
  170SOPE  C31819275   1.711   2.627   8.567 -0.1047 -0.0090  0.1312
  170SOPE  H18X19276   1.638   2.709   8.584  0.6962  1.3523 -2.4851
  170SOPE  H18Y19277   1.803   2.676   8.606 -0.4997  0.1517  0.8790
  170SOPE  H18Z19278   1.694   2.538   8.632 -2.1306  0.7268  0.6843
  171SOPE     N19279   1.267   6.475   6.060  0.0590 -0.5799 -0.1635
  171SOPE   HN119280   1.173   6.463   6.016  0.3513 -0.1508 -0.9210
  171SOPE   HN219281   1.312   6.561   6.024 -0.4429 -1.4483 -3.1076
  171SOPE   HN319282   1.326   6.395   6.032  0.5488 -1.1970  2.3657
  171SOPE   C1219283   1.237   6.458   6.210  0.6874  1.1365 -0.7444
  171SOPE  H12A19284   1.176   6.544   6.246 -1.7630  0.2278 -2.4452
  171SOPE  H12B19285   1.331   6.448   6.268  0.1076 -1.9362 -0.1717
  171SOPE   C1119286   1.147   6.334   6.243  0.4257 -0.2172  0.4329
  171SOPE  H11A19287   1.058   6.350   6.179  1.6330 -1.2180 -1.6072
  171SOPE  H11B19288   1.127   6.337   6.352 -0.2334 -0.1831  0.3149
  171SOPE     P19289   1.147   6.078   6.247  0.0486  0.3688 -0.3292
  171SOPE   O1319290   1.238   5.965   6.212 -0.1084 -0.5117 -0.2235
  171SOPE   O1419291   1.015   6.083   6.188 -0.4923  0.2107  0.3504
  171SOPE   O1219292   1.210   6.214   6.198 -0.1261 -0.4708 -0.5221
  171SOPE   O1119293   1.142   6.099   6.409 -0.1083  0.0296  0.1309
  171SOPE    C119294   1.200   6.001   6.499 -1.0178 -0.2111 -0.9411
  171SOPE    HA19295   1.218   5.901   6.455  3.1567  0.5293 -1.2888
  171SOPE    HB19296   1.125   5.974   6.577 -0.1694  0.4490  0.1277
  171SOPE    C219297   1.339   6.042   6.563  0.4505 -0.2833  0.2439
  171SOPE    HS19298   1.427   5.993   6.516  0.0627  0.6147 -1.4630
  171SOPE   O2119299   1.325   6.013   6.708 -0.3649  0.0441 -0.1121
  171SOPE   C2119300   1.437   5.989   6.769  0.0570 -0.7234 -0.4305
  171SOPE   O2219301   1.549   5.980   6.719  0.5835 -0.0334  0.0578
  171SOPE   C2219302   1.413   5.983   6.923  0.0152 -0.8127  0.2892
  171SOPE   H2R19303   1.324   5.918   6.937 -0.8932  0.5117  0.8777
  171SOPE   H2S19304   1.386   6.083   6.963 -0.3495 -0.4951 -0.7275
  171SOPE    C319305   1.348   6.196   6.539 -0.3290 -0.2704 -0.7326
  171SOPE    HX19306   1.256   6.243   6.580  0.0752 -0.7814  0.7990
  171SOPE    HY19307   1.348   6.215   6.429 -0.2129 -0.8224 -0.8301
  171SOPE   O3119308   1.471   6.250   6.598  0.0382  0.3114 -0.2223
  171SOPE   C3119309   1.494   6.377   6.577 -0.0046  0.1897 -0.2885
  171SOPE   O3219310   1.431   6.450   6.502  0.1507 -0.8171  0.4628
  171SOPE   C3219311   1.603   6.424   6.676  0.1101 -0.2048  1.1070
  171SOPE   H2X19312   1.634   6.527   6.645 -0.1966 -0.6293 -0.6874
  171SOPE   H2Y19313   1.695   6.363   6.665 -0.3472 -0.7393  0.1943
  171SOPE   C2319314   1.537   5.939   6.998 -0.4393  0.3468 -0.1433
  171SOPE   H3R19315   1.631   5.979   6.954 -1.1262  1.2592 -0.8407
  171SOPE   H3S19316   1.539   5.828   6.991 -2.3985 -0.2836  4.9253
  171SOPE   C2419317   1.542   5.984   7.150  0.5469 -1.2379  0.0982
  171SOPE   H4R19318   1.629   5.933   7.195 -1.0310 -1.6912  2.8145
  171SOPE   H4S19319   1.561   6.094   7.150 -1.5362 -0.7645 -2.3969
  171SOPE   C2519320   1.418   5.961   7.232 -0.2157  0.4587 -0.1632
  171SOPE   H5R19321   1.334   6.016   7.184 -0.7415  1.0989  1.4094
  171SOPE   H5S19322   1.389   5.855   7.215 -0.6570  0.6379 -0.5600
  171SOPE   C2619323   1.438   6.005   7.374  0.1967 -0.4358 -0.0042
  171SOPE   H6R19324   1.476   6.110   7.381  2.3709 -1.1847 -0.0361
  171SOPE   H6S19325   1.338   6.000   7.422 -0.0899  2.0164 -0.1919
  171SOPE   C2719326   1.533   5.922   7.456  0.2819  0.4521  0.9651
  171SOPE   H7R19327   1.507   5.816   7.439 -0.1137  0.3861  1.8745
  171SOPE   H7S19328   1.636   5.942   7.420  0.0937  0.1966  0.2775
  171SOPE   C2819329   1.512   5.952   7.603  0.7816  0.1805 -0.4079
  171SOPE   H8R19330   1.508   6.062   7.621  1.0700  0.2447 -0.7188
  171SOPE   H8S19331   1.411   5.920   7.633  1.4400 -0.4878  1.1752
  171SOPE   C2919332   1.631   5.905   7.681 -1.0738  0.4218 -0.1171
  171SOPE   H9119333   1.719   5.970   7.691 -0.4945 -0.3159 -0.2846
  171SOPE  C21019334   1.636   5.788   7.748  0.7615 -0.0804 -0.3582
  171SOPE  H10119335   1.722   5.768   7.813  0.2709  0.8261  0.6181
  171SOPE  C21119336   1.525   5.685   7.738  0.2312  0.4197 -1.1158
  171SOPE  H11R19337   1.568   5.590   7.699  1.7545 -0.0302  1.4650
  171SOPE  H11S19338   1.443   5.719   7.671  1.7859  0.1498 -3.2736
  171SOPE  C21219339   1.459   5.666   7.878 -0.4436  0.3436 -0.3082
  171SOPE  H12R19340   1.531   5.689   7.960 -2.2102 -0.2305  1.4993
  171SOPE  H12S19341   1.421   5.562   7.883 -0.9309  0.5416  0.3003
  171SOPE  C21319342   1.340   5.758   7.895 -0.5618 -0.5166  0.1670
  171SOPE  H13R19343   1.259   5.735   7.823  2.0569 -0.9145 -2.8945
  171SOPE  H13S19344   1.395   5.853   7.880  0.2684 -0.5738  2.5142
  171SOPE  C21419345   1.284   5.778   8.044  0.2561  0.3932  0.7567
  171SOPE  H14R19346   1.210   5.861   8.039 -1.7923 -1.2847  1.5262
  171SOPE  H14S19347   1.356   5.801   8.125  0.7170  0.0778  0.4412
  171SOPE  C21519348   1.201   5.658   8.097  0.5523 -0.4191 -0.2297
  171SOPE  H15R19349   1.261   5.565   8.089  0.2410 -0.8824  2.1248
  171SOPE  H15S19350   1.112   5.639   8.034 -0.5673  0.3886  1.0466
  171SOPE  C21619351   1.156   5.672   8.241 -1.2385  0.1320  0.0018
  171SOPE  H16R19352   1.104   5.770   8.249  0.1883  0.8285  1.2609
  171SOPE  H16S19353   1.253   5.678   8.294 -1.0830 -0.9892 -0.1357
  171SOPE  C21719354   1.063   5.558   8.297  0.3768 -0.3557 -0.2391
  171SOPE  H17R19355   1.072   5.573   8.406  0.4286  0.7107 -0.3878
  171SOPE  H17S19356   1.112   5.463   8.264  1.9880  0.4767 -0.3682
  171SOPE  C21819357   0.924   5.574   8.254  0.9865  0.2060  0.0164
  171SOPE  H18R19358   0.917   5.566   8.143 -0.8138  1.7050 -0.0401
  171SOPE  H18S19359   0.890   5.677   8.278  1.5610  0.4301 -0.1178
  171SOPE  H18T19360   0.846   5.510   8.300 -1.3556  1.4492 -1.9774
  171SOPE   C3319361   1.555   6.415   6.820 -0.0065  0.3540 -0.3301
  171SOPE   H3X19362   1.519   6.310   6.835  2.1879 -0.4177 -0.0828
  171SOPE   H3Y19363   1.472   6.483   6.846 -0.0128  0.0886  0.3754
  171SOPE   C3419364   1.672   6.430   6.919  0.4265 -0.4977 -0.6761
  171SOPE   H4X19365   1.694   6.538   6.932 -0.8899 -0.1151 -1.4689
  171SOPE   H4Y19366   1.769   6.388   6.884  0.6772  0.3514 -1.0210
  171SOPE   C3519367   1.640   6.374   7.058  0.6078 -0.3408  0.0282
  171SOPE   H5X19368   1.607   6.270   7.036  2.4700 -1.1928  0.9891
  171SOPE   H5Y19369   1.560   6.426   7.115 -0.2365 -1.8289  0.2711
  171SOPE   C3619370   1.773   6.363   7.131 -0.7743  0.3213  0.3258
  171SOPE   H6X19371   1.808   6.467   7.146  0.3715  0.1744 -1.1690
  171SOPE   H6Y19372   1.838   6.307   7.061 -0.7653  1.6624 -0.7695
  171SOPE   C3719373   1.786   6.283   7.265 -0.5825 -0.1820 -0.3550
  171SOPE   H7X19374   1.895   6.267   7.280 -0.7819 -0.7351  0.5718
  171SOPE   H7Y19375   1.729   6.189   7.250 -1.9375  0.6797 -0.8171
  171SOPE   C3819376   1.730   6.352   7.384  0.3373 -0.3902 -0.4175
  171SOPE   H8X19377   1.621   6.363   7.372  0.3403 -0.1507 -0.2349
  171SOPE   H8Y19378   1.784   6.449   7.383  1.7216 -1.1116  0.5542
  171SOPE   C3919379   1.771   6.278   7.518 -0.2269  0.1398  0.3427
  171SOPE   H9X19380   1.879   6.275   7.543 -0.1157  3.0508  0.5284
  171SOPE   H9Y19381   1.741   6.171   7.515 -1.1416  0.4089 -1.3865
  171SOPE  C31019382   1.717   6.353   7.639  0.3717  0.3849 -0.0728
  171SOPE  H10X19383   1.609   6.330   7.645  0.0202  0.6340 -3.4720
  171SOPE  H10Y19384   1.724   6.464   7.632 -0.1138  0.4318  0.1652
  171SOPE  C31119385   1.788   6.304   7.766 -0.4720  0.0442 -0.0327
  171SOPE  H11X19386   1.897   6.301   7.745 -0.7748  0.3014 -1.7622
  171SOPE  H11Y19387   1.764   6.198   7.787  0.4834 -0.0288  0.7660
  171SOPE  C31219388   1.744   6.386   7.886 -0.0391 -0.3175  0.2969
  171SOPE  H12X19389   1.633   6.392   7.892  0.0262  0.4027  0.8574
  171SOPE  H12Y19390   1.793   6.484   7.872  1.7010 -1.3517 -1.3051
  171SOPE  C31319391   1.791   6.319   8.020  0.3495  0.1816 -0.5762
  171SOPE  H13X19392   1.901   6.332   8.026  0.1503  2.2205 -0.4119
  171SOPE  H13Y19393   1.768   6.211   8.017  3.8204 -0.7477  0.7622
  171SOPE  C31419394   1.728   6.381   8.144  0.0693 -0.0048 -0.7536
  171SOPE  H14X19395   1.621   6.405   8.127  0.6606  4.4113  0.4082
  171SOPE  H14Y19396   1.772   6.482   8.159 -0.0638 -0.3412  2.5683
  171SOPE  C31519397   1.743   6.291   8.268 -0.2687 -0.2686  0.7933
  171SOPE  H15X19398   1.848   6.267   8.294  0.4629  1.3107 -0.4929
  171SOPE  H15Y19399   1.687   6.202   8.234  0.0931  1.1045 -4.3122
  171SOPE  C31619400   1.665   6.351   8.398 -0.4069 -0.4406  0.0083
  171SOPE  H16X19401   1.565   6.388   8.366  0.5377  0.1472 -2.4393
  171SOPE  H16Y19402   1.740   6.427   8.431 -1.5256  0.6169  0.1859
  171SOPE  C31719403   1.650   6.239   8.507  0.2048 -0.3348  0.0229
  171SOPE  H17X19404   1.596   6.155   8.457  0.6241 -1.0578  0.7565
  171SOPE  H17Y19405   1.595   6.269   8.599  1.9124 -0.8861  1.2640
  171SOPE  C31819406   1.780   6.182   8.571 -0.2338  0.1417  0.0004
  171SOPE  H18X19407   1.833   6.271   8.612 -0.4070 -0.0143  0.5767
  171SOPE  H18Y19408   1.832   6.127   8.490 -1.5732 -1.0909 -0.0593
  171SOPE  H18Z19409   1.763   6.124   8.664 -3.2031  0.0157 -0.5434
  172SOPE     N19410   0.139   0.574   6.411 -0.2059  0.7607  0.1541
  172SOPE   HN119411   0.149   0.674   6.382  0.6986  1.0063  1.2320
  172SOPE   HN219412   0.041   0.545   6.396 -1.1329  1.0701  4.3618
  172SOPE   HN319413   0.174   0.553   6.506 -0.1964 -1.5684 -0.3121
  172SOPE   C1219414   0.214   0.493   6.304  0.3146 -0.2152  0.3066
  172SOPE  H12A19415   0.292   0.563   6.267 -1.6698  2.1488  0.3027
  172SOPE  H12B19416   0.148   0.467   6.219  1.8066 -2.3154 -0.2964
  172SOPE   C1119417   0.277   0.370   6.367  0.2598  0.0806 -0.6244
  172SOPE  H11A19418   0.199   0.305   6.411  0.7541  0.0411  0.2132
  172SOPE  H11B19419   0.346   0.410   6.444 -0.1608 -2.3643  1.1465
  172SOPE     P19420   0.437   0.177   6.325  0.3126  0.3115  0.2795
  172SOPE   O1319421   0.572   0.180   6.267 -0.2516 -0.1389  0.2416
  172SOPE   O1419422   0.347   0.067   6.279 -0.0995  0.1309 -0.3035
  172SOPE   O1219423   0.354   0.293   6.274 -0.1030 -0.2564 -0.5680
  172SOPE   O1119424   0.430   0.176   6.488  0.2430 -0.1210  0.6195
  172SOPE    C119425   0.534   0.245   6.560  0.3001  0.3068  0.4535
  172SOPE    HA19426   0.482   0.285   6.650  3.0420  0.7089  1.9547
  172SOPE    HB19427   0.565   0.337   6.507 -0.5952  0.6698  0.5370
  172SOPE    C219428   0.647   0.162   6.619 -0.1697  0.6897 -0.3629
  172SOPE    HS19429   0.700   0.108   6.538 -0.0675 -0.5426  0.4892
  172SOPE   O2119430   0.588   0.058   6.708  0.3945 -0.6804 -0.0576
  172SOPE   C2119431   0.545  -0.050   6.649 -0.4060  0.5857 -0.0290
  172SOPE   O2219432   0.551  -0.078   6.532  0.4845  0.2434  0.5518
  172SOPE   C2219433   0.504  -0.150   6.763  0.0526 -0.1087 -0.3719
  172SOPE   H2R19434   0.494  -0.252   6.719  3.7712 -1.2644  1.0010
  172SOPE   H2S19435   0.422  -0.101   6.819  0.2896  0.7257 -0.7385
  172SOPE    C319436   0.747   0.250   6.699  1.0597 -0.8377  0.3806
  172SOPE    HX19437   0.684   0.302   6.775  0.4852 -0.5824 -0.2628
  172SOPE    HY19438   0.777   0.336   6.636 -0.8745 -0.7917 -0.5500
  172SOPE   O3119439   0.855   0.162   6.742  0.4224  0.0215 -0.3864
  172SOPE   C3119440   0.840   0.124   6.873  0.0615 -0.1545  0.5310
  172SOPE   O3219441   0.754   0.151   6.953  0.1637  0.1296 -0.0003
  172SOPE   C3219442   0.953   0.033   6.908  0.3346 -0.3755  0.2292
  172SOPE   H2X19443   1.048   0.091   6.915 -0.5776  1.0869  1.0226
  172SOPE   H2Y19444   0.965  -0.051   6.837  1.7835 -0.9538  1.1104
  172SOPE   C2319445   0.618  -0.190   6.860  0.3399  0.6418  0.0406
  172SOPE   H3R19446   0.653  -0.097   6.910  1.0809  0.2716  0.2356
  172SOPE   H3S19447   0.701  -0.237   6.802 -0.0379  0.6601 -0.5208
  172SOPE   C2419448   0.583  -0.308   6.950  0.7468 -0.0791 -0.0458
  172SOPE   H4R19449   0.498  -0.276   7.014  0.5354  0.3799 -0.5472
  172SOPE   H4S19450   0.533  -0.386   6.888 -1.6480  1.3134  0.0193
  172SOPE   C2519451   0.688  -0.352   7.050 -0.2973 -0.3344  0.0581
  172SOPE   H5R19452   0.779  -0.386   6.996 -0.5807 -1.8786  0.5200
  172SOPE   H5S19453   0.711  -0.267   7.118 -0.3895 -1.0318  0.9776
  172SOPE   C2619454   0.643  -0.470   7.141  0.1422  0.2985 -0.1662
  172SOPE   H6R19455   0.551  -0.432   7.190 -0.8581 -2.5415  0.3436
  172SOPE   H6S19456   0.616  -0.543   7.061  0.3464 -1.1361  1.0480
  172SOPE   C2719457   0.735  -0.529   7.241 -0.3225  0.3127 -0.7349
  172SOPE   H7R19458   0.700  -0.632   7.261  1.2057 -0.1366 -0.2725
  172SOPE   H7S19459   0.836  -0.538   7.196  1.5937  1.6864  2.9130
  172SOPE   C2819460   0.768  -0.439   7.359 -0.6333 -0.2919  0.4151
  172SOPE   H8R19461   0.822  -0.345   7.334 -1.8954  0.2314 -0.4449
  172SOPE   H8S19462   0.672  -0.413   7.408 -1.9326 -1.6558 -1.2856
  172SOPE   C2919463   0.856  -0.513   7.456 -0.4198 -0.4202  0.1926
  172SOPE   H9119464   0.958  -0.516   7.416  0.0849 -0.0367  1.4316
  172SOPE  C21019465   0.833  -0.575   7.575 -0.0158 -0.6810  0.1559
  172SOPE  H10119466   0.924  -0.612   7.624  0.5484  0.9711  0.4032
  172SOPE  C21119467   0.703  -0.579   7.658  0.0773  0.3356 -0.8283
  172SOPE  H11R19468   0.680  -0.682   7.689  0.6981  0.1891 -0.8406
  172SOPE  H11S19469   0.613  -0.551   7.599 -1.2663 -1.9877  0.0365
  172SOPE  C21219470   0.714  -0.482   7.771  0.0373  0.2104 -0.3047
  172SOPE  H12R19471   0.612  -0.463   7.812  0.5049  0.0362  0.9845
  172SOPE  H12S19472   0.759  -0.383   7.747 -1.9574  1.0376 -0.8721
  172SOPE  C21319473   0.793  -0.550   7.888  0.2086  0.6615 -0.1650
  172SOPE  H13R19474   0.886  -0.604   7.860 -0.4919 -1.0214  0.6005
  172SOPE  H13S19475   0.724  -0.631   7.920 -1.7930  1.8034 -1.3385
  172SOPE  C21419476   0.827  -0.445   7.992  0.0822  0.2974  0.4214
  172SOPE  H14R19477   0.736  -0.387   8.017  0.9653  2.7371 -1.6000
  172SOPE  H14S19478   0.897  -0.376   7.940  0.5771 -1.4169 -1.2936
  172SOPE  C21519479   0.910  -0.502   8.108  0.1097 -0.5715  0.3580
  172SOPE  H15R19480   1.004  -0.529   8.055 -2.1077 -2.1623 -3.0859
  172SOPE  H15S19481   0.854  -0.590   8.145 -2.7506  0.9831 -0.0002
  172SOPE  C21619482   0.917  -0.400   8.230  0.1133  0.2273  0.5622
  172SOPE  H16R19483   0.821  -0.351   8.256  0.9725  1.4640  1.5468
  172SOPE  H16S19484   0.991  -0.327   8.189  0.8589 -1.3220 -0.9819
  172SOPE  C21719485   0.990  -0.473   8.341 -0.8460  0.1705 -0.0641
  172SOPE  H17R19486   1.098  -0.471   8.315 -1.2848  0.5431 -1.9869
  172SOPE  H17S19487   0.966  -0.581   8.344  0.2525 -0.0675  0.5738
  172SOPE  C21819488   0.982  -0.408   8.476 -0.6639  0.0738 -0.1211
  172SOPE  H18R19489   0.882  -0.430   8.519 -1.1670  2.2170 -0.0509
  172SOPE  H18S19490   0.988  -0.297   8.474  0.3558  0.1053  1.9574
  172SOPE  H18T19491   1.049  -0.456   8.550 -2.8847 -1.7778  0.7903
  172SOPE   C3319492   0.933  -0.030   7.046 -0.6427  0.6469 -0.3198
  172SOPE   H3X19493   0.858  -0.112   7.046 -1.0325  1.0005 -0.0112
  172SOPE   H3Y19494   0.913   0.050   7.120  1.8746  1.2769 -0.2444
  172SOPE   C3419495   1.063  -0.086   7.096 -0.2889  1.0285  0.4206
  172SOPE   H4X19496   1.136  -0.002   7.094  1.2389 -0.2310  1.1455
  172SOPE   H4Y19497   1.103  -0.163   7.027  0.3848  1.0088  0.8319
  172SOPE   C3519498   1.059  -0.160   7.228 -0.2241 -0.8579  0.8878
  172SOPE   H5X19499   1.162  -0.195   7.249  0.3209  1.0903  1.6819
  172SOPE   H5Y19500   0.996  -0.251   7.215  1.6281 -1.9952 -0.6768
  172SOPE   C3619501   1.008  -0.080   7.352  0.2761 -0.1137  0.3931
  172SOPE   H6X19502   0.898  -0.074   7.337  0.2742 -0.6749  0.1645
  172SOPE   H6Y19503   1.061   0.016   7.338 -0.9263  0.6415  0.8776
  172SOPE   C3719504   1.053  -0.139   7.490 -0.1647  0.8237  0.0101
  172SOPE   H7X19505   1.159  -0.106   7.490 -0.0091  0.3407  0.3163
  172SOPE   H7Y19506   1.065  -0.250   7.492 -1.1561  0.6256 -2.2413
  172SOPE   C3819507   0.965  -0.091   7.609 -0.2011 -0.3502  0.4945
  172SOPE   H8X19508   0.879  -0.161   7.603 -0.0492 -0.4343 -1.9269
  172SOPE   H8Y19509   0.928   0.007   7.573 -1.0776 -0.5859  0.7256
  172SOPE   C3919510   1.027  -0.096   7.739  0.0485  0.1015 -0.1360
  172SOPE   H9X19511   1.122  -0.039   7.744  0.6578 -0.7179 -1.7935
  172SOPE   H9Y19512   1.058  -0.201   7.755  2.2598  1.0057  2.2611
  172SOPE  C31019513   0.926  -0.064   7.848  0.3843 -0.1103 -0.8237
  172SOPE  H10X19514   0.834  -0.123   7.834  0.7599 -0.8573 -0.2114
  172SOPE  H10Y19515   0.892   0.042   7.849 -0.0749 -0.2634 -0.5058
  172SOPE  C31119516   0.972  -0.090   7.996 -0.3837  0.0074  0.0015
  172SOPE  H11X19517   1.059  -0.022   8.004  0.8553 -1.6006  0.9176
  172SOPE  H11Y19518   1.013  -0.191   8.017 -0.2046 -0.4966 -2.4969
  172SOPE  C31219519   0.876  -0.047   8.102  0.2627  0.0164 -0.1088
  172SOPE  H12X19520   0.796  -0.125   8.105  1.3593 -1.2218 -1.5363
  172SOPE  H12Y19521   0.836   0.054   8.080 -0.4605 -0.5098 -1.3128
  172SOPE  C31319522   0.931  -0.040   8.245 -0.2741  0.0774 -0.2897
  172SOPE  H13X19523   0.987   0.055   8.242 -1.9590  1.1777  0.9451
  172SOPE  H13Y19524   1.005  -0.116   8.277 -0.8905 -0.1556  0.6235
  172SOPE  C31419525   0.819  -0.028   8.350 -0.3631  0.0006 -0.2973
  172SOPE  H14X19526   0.746  -0.112   8.353 -1.8006  1.1967 -0.5356
  172SOPE  H14Y19527   0.756   0.056   8.313  1.0815  0.3653 -2.0167
  172SOPE  C31519528   0.879  -0.003   8.493  0.3922  0.0960  0.0891
  172SOPE  H15X19529   0.972  -0.063   8.494  0.4163 -0.1016 -2.9154
  172SOPE  H15Y19530   0.810  -0.039   8.572 -0.0955 -0.8960 -0.7660
  172SOPE  C31619531   0.906   0.144   8.507 -0.1584 -0.4451  0.0414
  172SOPE  H16X19532   0.961   0.175   8.416 -0.2290 -2.7906 -0.8805
  172SOPE  H16Y19533   0.974   0.138   8.595  0.6099 -1.6707 -0.5933
  172SOPE  C31719534   0.790   0.237   8.533 -0.7195  0.9006 -0.4403
  172SOPE  H17X19535   0.746   0.253   8.432  0.0877  0.2799 -0.9047
  172SOPE  H17Y19536   0.829   0.340   8.547 -0.4691  0.8181 -0.5284
  172SOPE  C31819537   0.683   0.200   8.636 -0.2779  0.0846  0.2995
  172SOPE  H18X19538   0.604   0.278   8.639 -0.7372 -0.3985  0.7422
  172SOPE  H18Y19539   0.724   0.192   8.739  3.1058  0.7377 -0.8391
  172SOPE  H18Z19540   0.637   0.101   8.615 -0.3703  0.0067  0.8520
  173SAPI   C1219541   2.756   5.268  10.752 -0.1825  0.4699 -0.6826
  173SAPI    H219542   2.809   5.254  10.655  2.1676  1.4384  0.3908
  173SAPI    O219543   2.789   5.154  10.834  0.0168 -0.6785 -0.4982
  173SAPI   HO219544   2.817   5.088  10.770  2.7751 -0.2410  0.1271
  173SAPI   C1319545   2.816   5.397  10.822 -0.0747 -0.0967 -0.2438
  173SAPI    H319546   2.801   5.484  10.754  4.1264 -0.2513 -1.6484
  173SAPI    O319547   2.966   5.402  10.847  0.1760  0.3834 -0.9912
  173SAPI   HO319548   2.988   5.375  10.936  1.0189  0.4363 -1.1804
  173SAPI   C1419549   2.740   5.430  10.952  1.1311 -0.6467 -0.2000
  173SAPI    H419550   2.755   5.343  11.020  0.4520 -1.2042 -0.7461
  173SAPI    O419551   2.784   5.551  11.011 -0.9281 -0.0898 -0.8023
  173SAPI   HO419552   2.763   5.545  11.104  0.3283  1.2800 -0.3925
  173SAPI   C1519553   2.591   5.444  10.911 -0.0643  0.1973  0.0686
  173SAPI    H519554   2.595   5.515  10.825  1.4175 -0.1642 -0.1893
  173SAPI    O519555   2.504   5.499  11.012 -0.6126 -0.3921  0.0075
  173SAPI   HO519556   2.420   5.501  10.965 -0.9299 -4.2053  0.0717
  173SAPI   C1619557   2.540   5.315  10.850  1.2702 -0.4028 -1.0404
  173SAPI    H619558   2.549   5.225  10.915  0.9287 -0.4334 -1.0315
  173SAPI    O619559   2.400   5.327  10.825 -0.5312 -0.6168  0.5954
  173SAPI   HO619560   2.388   5.369  10.739 -0.7844 -0.5868  0.6427
  173SAPI   C1119561   2.608   5.293  10.715  0.0010 -0.2470 -0.7860
  173SAPI    H119562   2.602   5.378  10.643  1.7911 -0.1865 -0.9053
  173SAPI     P19563   2.505   5.169  10.500 -0.3274 -0.3379  0.6114
  173SAPI   O1319564   2.433   5.283  10.459  0.2853 -0.2795  0.2354
  173SAPI   O1419565   2.431   5.040  10.484  0.0033 -0.7018  0.4269
  173SAPI   O1219566   2.548   5.183  10.654  0.6491  0.6411 -0.2404
  173SAPI   O1119567   2.645   5.156  10.412  0.8131  0.4265  0.0237
  173SAPI    C119568   2.720   5.029  10.417 -0.0979 -0.3327  0.5103
  173SAPI    HA19569   2.796   5.046  10.496 -1.1158  0.7457  1.2943
  173SAPI    HB19570   2.656   4.946  10.452 -1.0440 -0.3244 -1.0866
  173SAPI    C219571   2.782   4.997  10.270 -0.2590  0.4116 -0.1657
  173SAPI    HS19572   2.855   5.080  10.257  1.7467 -0.9335  1.8113
  173SAPI   O2119573   2.680   4.990  10.174 -0.3903 -0.1786  0.6004
  173SAPI   C2119574   2.650   5.102  10.112  0.5444  0.0345 -0.0367
  173SAPI   O2219575   2.713   5.209  10.118  0.1234  0.7171 -0.1539
  173SAPI   C2219576   2.521   5.070  10.030 -0.2141 -0.9896  0.4051
  173SAPI   H2R19577   2.548   4.984   9.965 -1.0634 -1.6278  0.8711
  173SAPI   H2S19578   2.448   5.038  10.107  0.0527 -0.3845  0.9143
  173SAPI    C319579   2.865   4.861  10.271  0.1614 -0.1229  0.6013
  173SAPI    HX19580   2.804   4.787  10.328  1.1695  0.4365  2.5246
  173SAPI    HY19581   2.952   4.893  10.334 -0.6023  2.0616  0.6430
  173SAPI   O3119582   2.910   4.824  10.139 -0.0461  0.2463 -1.2398
  173SAPI   C3119583   2.837   4.735  10.069  0.1954  0.8681 -0.1244
  173SAPI   O3219584   2.742   4.669  10.105 -0.0612  0.1809 -0.7232
  173SAPI   C3219585   2.887   4.736   9.923  0.0452 -1.0650 -0.1773
  173SAPI   H2X19586   2.927   4.634   9.904  1.5946 -0.2600 -1.4442
  173SAPI   H2Y19587   2.965   4.814   9.912  0.0227 -1.0605 -0.3133
  173SAPI   C2319588   2.453   5.182   9.942  0.8601 -0.1344  0.1967
  173SAPI   H3R19589   2.430   5.264  10.014 -1.3719  2.0953 -2.7858
  173SAPI   H3S19590   2.352   5.151   9.909  0.4720  1.4377 -0.1709
  173SAPI   C2419591   2.533   5.224   9.815  0.2605  0.5305 -0.2814
  173SAPI   H4R19592   2.627   5.260   9.862 -1.3442  3.8720  0.6662
  173SAPI   H4S19593   2.492   5.321   9.779  0.8954  0.4995 -1.1198
  173SAPI   C2519594   2.558   5.125   9.712 -0.6997 -0.6244  0.6350
  173SAPI   H5R19595   2.615   5.036   9.743 -0.4242  0.1675  2.5016
  173SAPI   C2619596   2.531   5.157   9.584 -0.4544 -0.4847 -0.6658
  173SAPI   H6R19597   2.544   5.073   9.514 -0.5284 -1.8973  0.9364
  173SAPI   C2719598   2.467   5.282   9.519  0.1859  1.3439 -0.0872
  173SAPI   H7R19599   2.534   5.366   9.548  2.2848 -0.9845  2.4496
  173SAPI   H7S19600   2.384   5.317   9.584 -1.1117 -2.9847  0.8839
  173SAPI   C2819601   2.438   5.271   9.370 -0.4036 -0.0840 -0.7407
  173SAPI   H8R19602   2.337   5.234   9.345 -0.9294  0.6296  0.2373
  173SAPI   C2919603   2.530   5.302   9.277  0.3216  0.0068  0.4646
  173SAPI   H9R19604   2.493   5.287   9.175  0.5240 -2.2618  0.6781
  173SAPI  C21019605   2.672   5.356   9.275  0.6844  0.4660  0.0501
  173SAPI  H10R19606   2.735   5.274   9.234  0.6187  0.1419  0.5834
  173SAPI  H10S19607   2.711   5.375   9.377  0.0754  2.4900 -0.0520
  173SAPI  C21119608   2.688   5.479   9.194  0.1267  0.0981  0.1422
  173SAPI  H11R19609   2.642   5.569   9.238  1.6632  0.9253  0.1165
  173SAPI  C21219610   2.747   5.479   9.076 -0.6749  0.0955  0.3507
  173SAPI  H12R19611   2.764   5.578   9.031 -0.0214 -0.4567 -0.6688
  173SAPI  C21319612   2.826   5.367   9.010 -0.1852  0.0537 -0.1025
  173SAPI  H13R19613   2.760   5.310   8.941  2.0768 -1.6271 -0.9906
  173SAPI  H13S19614   2.866   5.295   9.085 -0.9009 -1.0321 -0.7372
  173SAPI  C21419615   2.946   5.418   8.931  0.3217  0.3568  0.1876
  173SAPI  H14R19616   2.979   5.520   8.956  1.2328 -0.2553  1.6517
  173SAPI  C21519617   3.010   5.347   8.836  0.5630 -0.1185 -0.2636
  173SAPI  H15R19618   3.088   5.392   8.774 -0.5293  0.0201 -1.5844
  173SAPI  C21619619   2.982   5.207   8.803 -0.5524  1.0241 -0.3375
  173SAPI  H16R19620   2.922   5.156   8.881  0.7963  0.9821  0.7170
  173SAPI  H16S19621   3.080   5.155   8.799 -0.7005  0.8143 -2.7672
  173SAPI  C21719622   2.908   5.201   8.670 -0.5197  0.3886 -0.3324
  173SAPI  H17R19623   2.968   5.223   8.579 -1.5019  0.4677 -0.9685
  173SAPI  H17S19624   2.819   5.268   8.674  0.0495  1.2568 -1.5839
  173SAPI  C21819625   2.839   5.068   8.640  0.2977 -0.4410 -0.3465
  173SAPI  H18R19626   2.790   5.028   8.731  1.6944 -0.9666  0.1989
  173SAPI  H18S19627   2.909   4.989   8.605  0.9260  0.2990 -0.7902
  173SAPI  C21919628   2.729   5.075   8.526 -0.1933 -0.4519 -0.6048
  173SAPI  H19R19629   2.764   5.127   8.435 -0.5554  0.2034 -0.3783
  173SAPI  H19S19630   2.638   5.130   8.559 -0.3847 -0.8310 -0.4912
  173SAPI  C22019631   2.690   4.936   8.485  0.5194  0.3726  0.3216
  173SAPI  H20R19632   2.651   4.939   8.381  2.0828 -0.7524 -0.3386
  173SAPI  H20S19633   2.615   4.890   8.552  0.7292  2.1795  1.8951
  173SAPI  H20T19634   2.771   4.861   8.473  0.3072 -0.6614  4.1002
  173SAPI   C3319635   2.766   4.767   9.816 -0.5673 -0.1816  0.3452
  173SAPI   H3X19636   2.722   4.868   9.833 -0.8044 -0.4218  1.2138
  173SAPI   H3Y19637   2.700   4.681   9.841 -0.3445 -0.8077 -1.1150
  173SAPI   C3419638   2.807   4.745   9.669 -0.7047 -0.3449 -0.4408
  173SAPI   H4X19639   2.883   4.664   9.658 -0.5871 -0.2219 -0.5424
  173SAPI   H4Y19640   2.857   4.832   9.621  0.4214 -0.2977  0.7517
  173SAPI   C3519641   2.678   4.701   9.595  0.8801 -0.4982  0.4039
  173SAPI   H5X19642   2.609   4.787   9.599  0.3551 -0.9528  1.3453
  173SAPI   H5Y19643   2.639   4.614   9.651  0.5658 -0.6661 -0.0722
  173SAPI   C3619644   2.699   4.653   9.455  0.0303 -0.5228 -0.8261
  173SAPI   H6X19645   2.745   4.553   9.445  1.8804  0.1560  0.4413
  173SAPI   H6Y19646   2.768   4.721   9.401  1.5395 -2.2702 -1.1745
  173SAPI   C3719647   2.571   4.643   9.379  0.1343  0.4589  0.5940
  173SAPI   H7X19648   2.512   4.737   9.377  2.1766  1.8233 -0.8066
  173SAPI   H7Y19649   2.516   4.555   9.417  1.1233 -1.3364 -1.8519
  173SAPI   C3819650   2.596   4.617   9.229  0.4346  0.1074  0.5208
  173SAPI   H8X19651   2.668   4.532   9.218 -1.7692 -1.8319  0.1582
  173SAPI   H8Y19652   2.650   4.697   9.175 -1.5956  1.3375  0.2282
  173SAPI   C3919653   2.464   4.580   9.160  0.5199 -0.2224  0.7791
  173SAPI   H9X19654   2.397   4.669   9.165  1.9421  0.8865  0.4997
  173SAPI   H9Y19655   2.417   4.492   9.211 -1.2443 -1.3745 -2.5259
  173SAPI  C31019656   2.477   4.543   9.012  0.0519 -0.0609  0.3480
  173SAPI  H10X19657   2.565   4.476   9.009 -0.6717 -0.9909 -1.6576
  173SAPI  H10Y19658   2.489   4.635   8.951 -0.4707 -0.5089 -0.4423
  173SAPI  C31119659   2.362   4.472   8.956  0.1254  0.5773  0.0232
  173SAPI  H11X19660   2.273   4.531   8.987  0.5126  1.0134  0.3086
  173SAPI  H11Y19661   2.355   4.368   8.995  3.2094  0.1820 -0.2010
  173SAPI  C31219662   2.348   4.474   8.800 -0.9345  0.4045 -0.7651
  173SAPI  H12X19663   2.352   4.577   8.759  0.7539 -0.5158 -3.0984
  173SAPI  H12Y19664   2.246   4.434   8.783 -0.7330  0.4304 -2.1519
  173SAPI  C31319665   2.446   4.387   8.728 -0.1118  0.7320 -0.2370
  173SAPI  H13X19666   2.442   4.285   8.773 -2.6920  0.6008 -0.6312
  173SAPI  H13Y19667   2.546   4.432   8.744 -0.6145  1.9066 -0.3527
  173SAPI  C31419668   2.432   4.378   8.580  0.7199  0.1830  0.6049
  173SAPI  H14X19669   2.333   4.336   8.554  0.4225 -0.1148  2.1444
  173SAPI  H14Y19670   2.504   4.316   8.522 -1.3315 -0.1278 -1.7791
  173SAPI  C31519671   2.446   4.525   8.524 -0.2719  0.2449  0.6842
  173SAPI  H15X19672   2.542   4.574   8.552  0.3906 -0.2232 -0.6937
  173SAPI  H15Y19673   2.358   4.585   8.558 -2.1604 -0.0529 -3.1095
  173SAPI  C31619674   2.433   4.528   8.366  0.3579  0.0712 -0.9949
  173SAPI  H16X19675   2.496   4.445   8.327  0.7392 -0.8926  1.4836
  173SAPI  H16Y19676   2.465   4.631   8.338  0.2685  0.8116  1.3683
  173SAPI  C31719677   2.288   4.515   8.304  0.1579 -0.2893 -0.4026
  173SAPI  H17X19678   2.218   4.579   8.363 -1.0549 -2.1724  0.2982
  173SAPI  H17Y19679   2.256   4.409   8.316 -2.2337  0.2596 -1.3106
  173SAPI  C31819680   2.295   4.557   8.158  0.4407 -0.7184 -0.3118
  173SAPI  H18X19681   2.348   4.654   8.145  1.0342 -1.0923 -0.7129
  173SAPI  H18Y19682   2.194   4.561   8.112 -0.7901  0.7232  2.2786
  173SAPI  H18Z19683   2.347   4.485   8.092 -0.0108  0.2035 -1.7265
  174SAPI   C1219684   5.217   1.050  10.865  0.4606 -0.3139 -0.2498
  174SAPI    H219685   5.260   1.106  10.779 -1.1964  0.2714 -0.7279
  174SAPI    O219686   5.315   1.055  10.969  0.0529  0.1445 -0.2783
  174SAPI   HO219687   5.401   1.033  10.932 -0.0618  1.3417 -1.2986
  174SAPI   C1319688   5.082   1.120  10.906 -0.1719 -0.0916  0.6154
  174SAPI    H319689   5.020   1.118  10.813 -0.3697 -0.3005  0.7526
  174SAPI    O319690   5.102   1.259  10.946  0.4621  0.5812 -0.2396
  174SAPI   HO319691   5.162   1.255  11.021 -1.2696 -0.0914  1.1962
  174SAPI   C1419692   5.029   1.042  11.021  0.5181  0.0963 -0.4597
  174SAPI    H419693   5.093   1.049  11.112 -0.6814  0.3305  0.3923
  174SAPI    O419694   4.906   1.105  11.066  0.5365 -0.4637  1.1108
  174SAPI   HO419695   4.835   1.094  11.002  0.7031  3.8929 -0.0866
  174SAPI   C1519696   5.003   0.889  11.001  0.6321 -0.0275 -0.4815
  174SAPI    H519697   4.919   0.874  10.930 -0.7869 -0.7665  1.2709
  174SAPI    O519698   4.964   0.827  11.130  0.4162 -0.1461  0.6611
  174SAPI   HO519699   4.979   0.732  11.120 -0.5114 -0.1671 -0.8701
  174SAPI   C1619700   5.133   0.825  10.943  0.7078  0.7074  0.0338
  174SAPI    H619701   5.201   0.815  11.029 -1.2570 -0.0485  1.5666
  174SAPI    O619702   5.102   0.681  10.908 -0.2512  0.3797  0.6378
  174SAPI   HO619703   5.074   0.689  10.817 -3.2797  4.8571  1.6140
  174SAPI   C1119704   5.188   0.904  10.827 -0.1179 -0.2353  0.3483
  174SAPI    H119705   5.122   0.905  10.737 -0.3044  0.6655  0.4830
  174SAPI     P19706   5.399   0.863  10.647  0.1275 -0.1013 -0.2593
  174SAPI   O1319707   5.536   0.813  10.670 -0.6514  0.7706  0.3151
  174SAPI   O1419708   5.380   1.004  10.614  0.3631 -0.6124 -0.2336
  174SAPI   O1219709   5.308   0.832  10.782 -0.6070 -0.3746 -0.4666
  174SAPI   O1119710   5.319   0.776  10.545 -0.0493  0.2309 -0.4111
  174SAPI    C119711   5.389   0.667  10.479  0.3069 -0.0304 -0.2483
  174SAPI    HA19712   5.479   0.625  10.529  1.9437  1.0730 -2.1176
  174SAPI    HB19713   5.322   0.578  10.476  2.2306 -1.6736  1.8168
  174SAPI    C219714   5.416   0.695  10.325  0.1545 -0.6755 -0.4276
  174SAPI    HS19715   5.517   0.739  10.316  0.0088 -0.3449 -0.4439
  174SAPI   O2119716   5.310   0.787  10.290 -0.8152 -0.1181  0.4716
  174SAPI   C2119717   5.331   0.865  10.187 -0.3223  0.3002  0.7008
  174SAPI   O2219718   5.435   0.868  10.127 -0.3833 -1.1085 -0.5356
  174SAPI   C2219719   5.210   0.948  10.157 -0.1317 -0.8944  0.0521
  174SAPI   H2R19720   5.120   0.896  10.196 -0.0515  0.3070  2.0004
  174SAPI   H2S19721   5.214   1.048  10.206  0.0065  0.5316 -2.6672
  174SAPI    C319722   5.413   0.571  10.237  0.8049  0.4982  0.0885
  174SAPI    HX19723   5.309   0.538  10.219  0.9608 -0.2875  0.6016
  174SAPI    HY19724   5.470   0.491  10.289  2.0023 -0.1538 -2.1109
  174SAPI   O3119725   5.475   0.600  10.113 -0.2184  0.5647  0.9299
  174SAPI   C3119726   5.435   0.528  10.006 -0.0448  0.5615 -0.2128
  174SAPI   O3219727   5.354   0.439  10.011  0.4289  0.4533  0.2743
  174SAPI   C3219728   5.498   0.578   9.885  0.1632  0.1543  0.0699
  174SAPI   H2X19729   5.600   0.535   9.880 -0.8044 -2.3087  0.2891
  174SAPI   H2Y19730   5.504   0.689   9.887 -2.8341  0.3816  0.4573
  174SAPI   C2319731   5.222   0.998  10.011  0.3004  0.4808 -0.1552
  174SAPI   H3R19732   5.319   1.050   9.997 -0.9542  2.5312 -1.9157
  174SAPI   H3S19733   5.142   1.072   9.988  1.1145  1.2237 -0.6431
  174SAPI   C2419734   5.203   0.886   9.906  0.3183  0.2552  0.3186
  174SAPI   H4R19735   5.294   0.822   9.897 -0.1493 -0.3163 -0.4734
  174SAPI   H4S19736   5.198   0.932   9.805 -0.1079  2.4134  1.2684
  174SAPI   C2519737   5.089   0.791   9.929  0.2417  0.1476 -0.3107
  174SAPI   H5R19738   5.062   0.762  10.032  1.5235  0.1832  0.0475
  174SAPI   C2619739   5.002   0.742   9.837  0.1141 -0.8265 -0.0636
  174SAPI   H6R19740   4.909   0.693   9.872 -0.7670  0.4870 -0.5074
  174SAPI   C2719741   5.001   0.772   9.690 -0.7247 -0.2837  0.0105
  174SAPI   H7R19742   4.966   0.680   9.638 -0.0423  0.0296 -1.0357
  174SAPI   H7S19743   5.107   0.784   9.659  0.2556 -1.0022  2.8061
  174SAPI   C2819744   4.917   0.897   9.640 -0.7898  0.7190 -0.2680
  174SAPI   H8R19745   4.829   0.914   9.704 -1.1733  0.9705 -0.8599
  174SAPI   C2919746   4.944   0.992   9.547  0.3471  0.3113  0.5022
  174SAPI   H9R19747   4.873   1.075   9.530  0.2413  0.1307  0.0392
  174SAPI  C21019748   5.069   0.997   9.464 -0.0255  0.0233 -0.6310
  174SAPI  H10R19749   5.044   1.016   9.358  0.0527  1.6781 -0.3722
  174SAPI  H10S19750   5.119   0.898   9.471 -1.3679 -0.6441 -0.2777
  174SAPI  C21119751   5.145   1.120   9.519 -0.0157 -0.5497 -0.3468
  174SAPI  H11R19752   5.131   1.142   9.626 -0.4376  0.1757 -0.5391
  174SAPI  C21219753   5.224   1.207   9.454  0.1942  0.4995  0.0542
  174SAPI  H12R19754   5.265   1.294   9.508  0.2655  0.0057  0.8149
  174SAPI  C21319755   5.262   1.194   9.308  0.8828 -0.3825 -1.0857
  174SAPI  H13R19756   5.208   1.277   9.256 -1.3097 -1.0695 -0.0391
  174SAPI  H13S19757   5.229   1.099   9.261 -0.4394 -0.3504 -0.2913
  174SAPI  C21419758   5.409   1.206   9.280 -0.3899 -0.4196 -0.4184
  174SAPI  H14R19759   5.471   1.205   9.372 -2.3817  0.7525  1.0188
  174SAPI  C21519760   5.474   1.193   9.160  0.0804 -0.0453  0.1923
  174SAPI  H15R19761   5.583   1.206   9.161  0.2267 -1.1607 -0.0094
  174SAPI  C21619762   5.396   1.167   9.039 -0.8568  0.4863  0.1632
  174SAPI  H16R19763   5.301   1.222   9.021 -0.4054  1.6167  1.0619
  174SAPI  H16S19764   5.386   1.057   9.028  0.1017  0.3745  0.3841
  174SAPI  C21719765   5.484   1.213   8.916 -0.2532  0.1750  0.0082
  174SAPI  H17R19766   5.576   1.154   8.900 -1.2300 -0.7657 -2.6894
  174SAPI  H17S19767   5.506   1.318   8.947 -0.7964 -0.2498  2.0225
  174SAPI  C21819768   5.404   1.213   8.786 -0.0945 -0.2156 -0.7778
  174SAPI  H18R19769   5.312   1.275   8.789 -1.4199 -2.0828 -1.4117
  174SAPI  H18S19770   5.369   1.108   8.774  0.5073 -0.4492 -0.5103
  174SAPI  C21919771   5.489   1.241   8.663  0.0091  0.8665 -0.1855
  174SAPI  H19R19772   5.552   1.152   8.645  0.7295  1.3674 -0.1925
  174SAPI  H19S19773   5.558   1.325   8.686 -0.1689  1.0473 -0.2968
  174SAPI  C22019774   5.408   1.264   8.534  0.2542  0.6679 -0.1543
  174SAPI  H20R19775   5.358   1.363   8.547  0.9692  0.9004  0.9354
  174SAPI  H20S19776   5.329   1.187   8.525  0.7435  0.1419 -0.0088
  174SAPI  H20T19777   5.473   1.261   8.444 -0.8594  0.2505 -0.9708
  174SAPI   C3319778   5.417   0.532   9.763  0.5168  0.4721 -0.6245
  174SAPI   H3X19779   5.309   0.529   9.785  0.7679 -0.2127  0.6643
  174SAPI   H3Y19780   5.446   0.426   9.744  1.8659  1.0016 -1.7002
  174SAPI   C3419781   5.429   0.608   9.629 -0.4379  0.0468 -0.9561
  174SAPI   H4X19782   5.538   0.604   9.608 -0.5428 -0.8207 -1.3599
  174SAPI   H4Y19783   5.401   0.714   9.649 -1.4356 -0.3597 -0.1123
  174SAPI   C3519784   5.329   0.557   9.528  0.4657 -0.2679 -0.3638
  174SAPI   H5X19785   5.230   0.582   9.572  0.0245 -0.4152 -1.2484
  174SAPI   H5Y19786   5.348   0.448   9.521  2.9924  0.0982 -0.4425
  174SAPI   C3619787   5.328   0.626   9.392  0.1720  0.4017  0.0216
  174SAPI   H6X19788   5.361   0.732   9.401 -2.0188  1.4509 -2.7339
  174SAPI   H6Y19789   5.226   0.650   9.355  0.7290  1.1503 -1.0760
  174SAPI   C3719790   5.401   0.543   9.285 -0.2715  0.3327 -0.3704
  174SAPI   H7X19791   5.358   0.440   9.283  1.4052 -0.5911  3.3324
  174SAPI   H7Y19792   5.507   0.520   9.308 -0.2096  0.1575 -0.8017
  174SAPI   C3819793   5.392   0.603   9.141  0.0937 -0.2896 -0.7668
  174SAPI   H8X19794   5.465   0.542   9.083  2.5939  2.3285 -0.6154
  174SAPI   H8Y19795   5.432   0.706   9.146  0.8805 -0.6135 -0.1407
  174SAPI   C3919796   5.248   0.581   9.091 -0.3536  0.9502 -0.6285
  174SAPI   H9X19797   5.170   0.614   9.163  0.2292  1.6998 -0.3290
  174SAPI   H9Y19798   5.236   0.472   9.073 -1.0502  0.4017  2.5079
  174SAPI  C31019799   5.207   0.651   8.967 -0.3539 -0.1254  0.2513
  174SAPI  H10X19800   5.100   0.640   8.939 -0.5043 -1.4195  1.2576
  174SAPI  H10Y19801   5.268   0.611   8.883 -0.0337  0.7176  0.0645
  174SAPI  C31119802   5.225   0.807   8.963 -0.5573  0.1749 -0.2047
  174SAPI  H11X19803   5.333   0.824   8.983 -0.2906 -3.8077  3.0043
  174SAPI  H11Y19804   5.164   0.851   9.045 -0.1455 -0.7523  0.6129
  174SAPI  C31219805   5.177   0.869   8.831  0.1646 -0.1376 -0.4930
  174SAPI  H12X19806   5.181   0.980   8.829 -2.8323  0.0544 -2.5512
  174SAPI  H12Y19807   5.069   0.843   8.821  0.4470 -2.5135  1.7133
  174SAPI  C31319808   5.242   0.814   8.708 -0.2304  0.7365  0.7865
  174SAPI  H13X19809   5.217   0.707   8.696 -1.9227  1.1756  0.1610
  174SAPI  H13Y19810   5.351   0.830   8.726 -0.3237  1.7941  0.5270
  174SAPI  C31419811   5.207   0.897   8.586  0.6616  0.6670  0.4504
  174SAPI  H14X19812   5.194   1.004   8.612 -1.4867  0.9197 -1.3397
  174SAPI  H14Y19813   5.107   0.861   8.554  0.2847 -0.7234  2.9771
  174SAPI  C31519814   5.310   0.885   8.471 -0.3989 -0.3410 -0.0953
  174SAPI  H15X19815   5.342   0.781   8.453 -0.2854 -0.0232 -1.8925
  174SAPI  H15Y19816   5.406   0.931   8.505  0.7152 -0.5758 -2.6863
  174SAPI  C31619817   5.283   0.964   8.342 -0.3542  0.1004  0.3630
  174SAPI  H16X19818   5.285   1.075   8.353 -0.6519  0.3356 -1.6064
  174SAPI  H16Y19819   5.184   0.925   8.310 -0.5243 -1.7477  2.8465
  174SAPI  C31719820   5.390   0.945   8.240 -0.3305 -0.3871 -0.5596
  174SAPI  H17X19821   5.392   0.839   8.207  1.3285 -0.6148  0.1586
  174SAPI  H17Y19822   5.491   0.956   8.286 -0.1587 -0.7992 -0.8385
  174SAPI  C31819823   5.371   1.029   8.114  0.0622  0.0789 -0.3103
  174SAPI  H18X19824   5.336   1.132   8.138 -2.7522 -1.0090  0.6819
  174SAPI  H18Y19825   5.289   0.982   8.056 -0.2635  1.1683 -0.7462
  174SAPI  H18Z19826   5.466   1.024   8.057 -0.9342 -1.0284 -1.9601
  175SAPI   C1219827   2.328   4.189   5.955  0.5911 -0.2246  0.2241
  175SAPI    H219828   2.231   4.153   5.995  0.6155 -0.8431 -0.2417
  175SAPI    O219829   2.389   4.076   5.899 -0.4529  0.9682  0.1136
  175SAPI   HO219830   2.362   3.996   5.944  1.0582  1.7077  2.5000
  175SAPI   C1319831   2.304   4.295   5.849  0.4673 -0.1851  0.1028
  175SAPI    H319832   2.248   4.381   5.890  2.3551  0.1569  2.1333
  175SAPI    O319833   2.241   4.246   5.733  0.0578  0.3616  0.7238
  175SAPI   HO319834   2.284   4.166   5.700  0.4058 -0.2271  2.4856
  175SAPI   C1419835   2.440   4.353   5.811 -0.7221 -0.1401  0.2247
  175SAPI    H419836   2.504   4.268   5.782 -1.6548 -0.5709 -0.6402
  175SAPI    O419837   2.426   4.446   5.700  0.5458  0.6404  0.4611
  175SAPI   HO419838   2.507   4.440   5.649  0.0175  0.1202 -0.3382
  175SAPI   C1519839   2.505   4.414   5.931 -0.3778 -0.2282 -0.6186
  175SAPI    H519840   2.441   4.500   5.962 -1.7917 -0.1991 -3.3173
  175SAPI    O519841   2.632   4.468   5.897  0.5237 -0.0979  0.6533
  175SAPI   HO519842   2.657   4.531   5.965 -1.4062 -0.0606  1.3921
  175SAPI   C1619843   2.526   4.316   6.042  0.1829  0.8215  0.6560
  175SAPI    H619844   2.590   4.229   6.015  0.5981  0.8417  1.5665
  175SAPI    O619845   2.590   4.382   6.151 -0.0451  0.1199  0.2013
  175SAPI   HO619846   2.632   4.313   6.203  1.2546 -1.0954 -2.2881
  175SAPI   C1119847   2.398   4.249   6.076 -0.1617 -0.0834  0.5022
  175SAPI    H119848   2.332   4.328   6.117 -1.5331 -0.2083 -1.3401
  175SAPI     P19849   2.317   4.050   6.257  0.0858  0.0227 -0.3473
  175SAPI   O1319850   2.385   3.996   6.377  0.3895 -0.5603  0.6277
  175SAPI   O1419851   2.266   3.948   6.163 -0.1702 -0.0437  0.4957
  175SAPI   O1219852   2.420   4.153   6.176  0.2959  0.0930  0.0623
  175SAPI   O1119853   2.196   4.141   6.287 -0.1018  0.0706  0.2060
  175SAPI    C119854   2.187   4.255   6.372  0.0430 -0.9645 -0.4549
  175SAPI    HA19855   2.280   4.296   6.417 -1.1485  0.2234  1.0509
  175SAPI    HB19856   2.135   4.335   6.315 -1.0679 -1.6552 -0.4291
  175SAPI    C219857   2.091   4.218   6.492 -0.4010  0.3734  0.2534
  175SAPI    HS19858   2.068   4.311   6.549 -1.9788  0.3620 -0.3218
  175SAPI   O2119859   2.145   4.111   6.575 -0.7213 -0.5313  0.4321
  175SAPI   C2119860   2.241   4.152   6.656  0.0858 -0.2172  0.5211
  175SAPI   O2219861   2.287   4.267   6.662 -0.0599 -0.0843  0.9061
  175SAPI   C2219862   2.275   4.033   6.740  0.2294  0.1979  0.1332
  175SAPI   H2R19863   2.206   3.946   6.734 -0.8046  0.8524  1.8666
  175SAPI   H2S19864   2.375   3.999   6.704  0.1344 -0.8120  0.7834
  175SAPI    C319865   1.949   4.170   6.437 -0.1610 -0.0608  0.7040
  175SAPI    HX19866   1.964   4.096   6.356  2.2653  2.5664 -1.4606
  175SAPI    HY19867   1.905   4.254   6.378 -1.5232 -0.8647  0.5281
  175SAPI   O3119868   1.863   4.129   6.543  0.1959  0.5705  0.1697
  175SAPI   C3119869   1.886   3.998   6.576  0.5512 -0.7824 -0.2930
  175SAPI   O3219870   1.933   3.913   6.506 -0.1328 -0.0825 -0.0857
  175SAPI   C3219871   1.818   3.969   6.716 -0.1385  0.6086  0.0085
  175SAPI   H2X19872   1.890   3.914   6.780 -1.1963 -0.7852  0.0606
  175SAPI   H2Y19873   1.729   3.906   6.693 -0.6795  1.3774 -0.0362
  175SAPI   C2319874   2.274   4.071   6.885  0.0895  0.0085 -0.5202
  175SAPI   H3R19875   2.172   4.078   6.928  0.8245  0.0116  1.2965
  175SAPI   H3S19876   2.311   4.174   6.903 -1.4969  0.1837  2.1717
  175SAPI   C2419877   2.347   3.961   6.965 -1.0443  0.3766  0.2869
  175SAPI   H4R19878   2.436   3.949   6.900 -1.3557 -3.7213  0.3325
  175SAPI   H4S19879   2.308   3.857   6.954  1.9452 -0.9118  0.8608
  175SAPI   C2519880   2.392   3.997   7.106  0.0489 -0.0682 -0.2169
  175SAPI   H5R19881   2.459   4.084   7.117  1.7478 -1.1205 -1.7529
  175SAPI   C2619882   2.363   3.925   7.218  0.2871  0.0325  0.0781
  175SAPI   H6R19883   2.392   3.958   7.319 -0.7929  0.6359  0.1999
  175SAPI   C2719884   2.288   3.791   7.217 -0.0564  0.0115  0.2452
  175SAPI   H7R19885   2.355   3.726   7.158 -0.1326  0.3628 -0.2298
  175SAPI   H7S19886   2.198   3.804   7.153  0.9048  1.9357 -0.8144
  175SAPI   C2819887   2.251   3.732   7.353 -0.2318 -0.6394 -0.4729
  175SAPI   H8R19888   2.161   3.770   7.403 -0.0842  0.5656 -1.0856
  175SAPI   C2919889   2.315   3.622   7.392 -0.5602 -0.2587  0.6832
  175SAPI   H9R19890   2.299   3.577   7.491  2.6750  3.3305  3.1445
  175SAPI  C21019891   2.418   3.541   7.322 -0.5134 -0.4799 -0.1183
  175SAPI  H10R19892   2.407   3.529   7.212  3.0173 -1.9267 -0.4539
  175SAPI  H10S19893   2.398   3.441   7.367  0.0259 -0.0964  1.0045
  175SAPI  C21119894   2.562   3.584   7.333 -0.1648  0.5062  0.1438
  175SAPI  H11R19895   2.576   3.688   7.300  0.2028  0.6043  0.5955
  175SAPI  C21219896   2.675   3.517   7.376  0.6345 -0.1579  0.1972
  175SAPI  H12R19897   2.773   3.568   7.377 -0.0246  1.3816 -2.3698
  175SAPI  C21319898   2.681   3.375   7.423 -0.2686  0.6188 -0.1103
  175SAPI  H13R19899   2.784   3.339   7.405 -0.2246  0.2755  0.7520
  175SAPI  H13S19900   2.631   3.310   7.349  0.5185 -0.8411  0.5918
  175SAPI  C21419901   2.634   3.344   7.567  0.3465 -0.1753 -0.1477
  175SAPI  H14R19902   2.528   3.314   7.578  0.2598 -0.1858 -0.9028
  175SAPI  C21519903   2.704   3.353   7.677 -0.8708 -0.5278  0.1643
  175SAPI  H15R19904   2.660   3.313   7.770  1.6269 -0.7385  1.3221
  175SAPI  C21619905   2.845   3.397   7.703 -0.1200 -0.2194 -0.8248
  175SAPI  H16R19906   2.852   3.442   7.805 -1.8202  0.7876 -1.1036
  175SAPI  H16S19907   2.877   3.471   7.627 -1.4343 -1.9895 -3.2485
  175SAPI  C21719908   2.946   3.278   7.708 -0.3837  0.2326  0.2354
  175SAPI  H17R19909   3.047   3.315   7.737 -0.2454  0.1744 -0.1604
  175SAPI  H17S19910   2.959   3.236   7.606  2.3319  0.8671  0.2386
  175SAPI  C21819911   2.905   3.167   7.804 -0.9134 -0.0661 -0.2370
  175SAPI  H18R19912   2.802   3.131   7.781 -0.2528 -2.4711  0.2649
  175SAPI  H18S19913   2.905   3.213   7.905 -0.5620  0.5667 -0.5230
  175SAPI  C21919914   2.995   3.044   7.813 -0.1589 -0.4955 -0.1050
  175SAPI  H19R19915   2.971   2.981   7.901 -0.9589 -0.4834 -0.3036
  175SAPI  H19S19916   3.099   3.081   7.829 -0.4995  1.2040 -1.5184
  175SAPI  C22019917   2.982   2.957   7.690  0.2264  0.0300  0.1213
  175SAPI  H20R19918   3.031   2.857   7.695 -1.3306 -0.9091 -2.0281
  175SAPI  H20S19919   3.016   3.007   7.597 -1.9173  2.0060  0.3263
  175SAPI  H20T19920   2.875   2.937   7.670  0.6146 -0.6465 -1.4948
  175SAPI   C3319921   1.759   4.088   6.788 -0.1558  0.0957 -0.2253
  175SAPI   H3X19922   1.671   4.123   6.730  0.2067 -2.9438 -2.8907
  175SAPI   H3Y19923   1.837   4.167   6.797  1.6718 -1.7397  1.0098
  175SAPI   C3419924   1.740   4.055   6.943  0.5391  0.2346 -0.4387
  175SAPI   H4X19925   1.675   3.966   6.953  0.5049  0.3093  0.0237
  175SAPI   H4Y19926   1.687   4.143   6.986  1.7758  0.4940  0.6094
  175SAPI   C3519927   1.863   4.044   7.037 -0.2476 -0.5999  0.0115
  175SAPI   H5X19928   1.889   4.152   7.050  1.5287 -0.8383 -1.1353
  175SAPI   H5Y19929   1.948   3.991   6.989  0.1004 -2.0872  2.1512
  175SAPI   C3619930   1.814   3.977   7.164 -0.3874  0.1602 -0.0101
  175SAPI   H6X19931   1.782   3.872   7.148 -0.5368  0.4859 -2.0888
  175SAPI   H6Y19932   1.729   4.037   7.203  0.4429  0.5591  1.2559
  175SAPI   C3719933   1.921   3.984   7.274  0.0075  0.3248  0.3337
  175SAPI   H7X19934   1.954   4.089   7.286  0.0482  0.4837 -0.9723
  175SAPI   H7Y19935   2.014   3.931   7.243  0.6391  0.0496  2.5120
  175SAPI   C3819936   1.885   3.922   7.411  0.3570  0.3990 -0.8751
  175SAPI   H8X19937   1.976   3.880   7.459 -1.0997 -1.2523  0.5894
  175SAPI   H8Y19938   1.816   3.838   7.386  0.8073  0.0593 -0.9971
  175SAPI   C3919939   1.818   4.018   7.517  0.0032  0.6121  1.0932
  175SAPI   H9X19940   1.725   4.063   7.477 -0.1966 -2.0391 -1.8426
  175SAPI   H9Y19941   1.894   4.096   7.539 -0.9430  2.3950 -1.4806
  175SAPI  C31019942   1.778   3.943   7.643 -0.8183 -0.6229  0.0784
  175SAPI  H10X19943   1.862   3.873   7.663 -0.2692  0.4073  1.6448
  175SAPI  H10Y19944   1.687   3.881   7.633 -1.2648 -0.5540  2.9034
  175SAPI  C31119945   1.752   4.038   7.766  0.3409  0.8219 -0.3181
  175SAPI  H11X19946   1.669   4.104   7.733 -0.8888  0.1337  1.2740
  175SAPI  H11Y19947   1.845   4.098   7.780 -0.2034  2.0341 -1.7019
  175SAPI  C31219948   1.709   3.962   7.892 -0.4276  0.4157 -0.7852
  175SAPI  H12X19949   1.633   3.881   7.884  1.2113 -1.1104 -1.4665
  175SAPI  H12Y19950   1.660   4.038   7.957  0.2625  1.2268 -1.1989
  175SAPI  C31319951   1.832   3.903   7.971 -0.1477 -0.4337  0.7021
  175SAPI  H13X19952   1.895   3.994   7.985 -1.6014  1.3603 -2.8579
  175SAPI  H13Y19953   1.888   3.831   7.907 -1.4058 -1.3330  0.5958
  175SAPI  C31419954   1.804   3.829   8.105 -0.2461  0.4971 -0.0943
  175SAPI  H14X19955   1.895   3.777   8.141 -1.1426 -0.8283  0.3275
  175SAPI  H14Y19956   1.723   3.755   8.086  1.4121 -1.3122 -0.3921
  175SAPI  C31519957   1.759   3.921   8.212 -0.1007 -0.4500  0.1343
  175SAPI  H15X19958   1.665   3.972   8.182 -1.0852 -1.6925  0.9882
  175SAPI  H15Y19959   1.837   4.000   8.221 -2.5821  2.0338  1.2128
  175SAPI  C31619960   1.737   3.859   8.353 -0.2869  0.5155 -0.0369
  175SAPI  H16X19961   1.840   3.835   8.386 -0.1075  0.7126 -0.4550
  175SAPI  H16Y19962   1.670   3.771   8.344  2.1774 -1.6817  1.5781
  175SAPI  C31719963   1.686   3.947   8.471 -0.1031 -0.2464 -0.0867
  175SAPI  H17X19964   1.672   3.879   8.558  2.7689 -0.5427  0.2385
  175SAPI  H17Y19965   1.587   3.984   8.438 -0.4748 -1.6832 -0.6851
  175SAPI  C31819966   1.770   4.063   8.520 -0.3873 -0.0497 -0.1013
  175SAPI  H18X19967   1.716   4.101   8.610 -0.4752 -1.9258  0.6775
  175SAPI  H18Y19968   1.776   4.144   8.444 -1.3555  1.4347  1.3298
  175SAPI  H18Z19969   1.865   4.025   8.562 -0.3307  0.4272  0.2177
  176SAPI   C1219970   1.728   2.388   6.152 -0.9780  0.2930 -0.2619
  176SAPI    H219971   1.640   2.385   6.220  1.2122  2.4619  2.9522
  176SAPI    O219972   1.767   2.267   6.083  0.0924  0.2683 -0.2593
  176SAPI   HO219973   1.691   2.210   6.099 -0.4458  1.2834  1.0158
  176SAPI   C1319974   1.694   2.495   6.049 -0.5902  0.2939  0.3227
  176SAPI    H319975   1.678   2.583   6.115 -0.1658  1.9793 -1.7004
  176SAPI    O319976   1.577   2.472   5.961 -0.2318  0.0412  0.1853
  176SAPI   HO319977   1.520   2.403   5.994 -1.9257  1.9347  1.4472
  176SAPI   C1419978   1.827   2.535   5.970  0.2316  0.3654  0.3634
  176SAPI    H419979   1.843   2.437   5.921 -3.1753 -0.4287  0.5678
  176SAPI    O419980   1.796   2.632   5.861  0.1080 -0.0725 -0.1873
  176SAPI   HO419981   1.820   2.717   5.898  0.6271 -0.0032 -0.6715
  176SAPI   C1519982   1.934   2.584   6.065 -0.0093 -0.6098  0.7945
  176SAPI    H519983   1.901   2.676   6.119  2.1502 -0.4835  2.0054
  176SAPI    O519984   2.049   2.619   5.990 -0.1499 -0.0418 -0.2214
  176SAPI   HO519985   2.116   2.627   6.058 -0.7777 -0.3153  0.4495
  176SAPI   C1619986   1.963   2.479   6.167 -0.6879 -0.3875  0.4028
  176SAPI    H619987   1.990   2.386   6.112  0.2542  0.6616 -0.9730
  176SAPI    O619988   2.082   2.507   6.246  0.0787 -0.2209  0.0528
  176SAPI   HO619989   2.110   2.420   6.275 -1.5292 -1.0455 -0.7066
  176SAPI   C1119990   1.837   2.440   6.254  0.3704 -0.0715 -0.4689
  176SAPI    H119991   1.796   2.526   6.309 -0.0473  0.0755 -1.0066
  176SAPI     P19992   1.781   2.303   6.486  0.1375 -0.4664 -0.1783
  176SAPI   O1319993   1.838   2.180   6.545 -0.5074 -0.3384 -0.4491
  176SAPI   O1419994   1.635   2.298   6.457 -0.0782  0.1999  0.1039
  176SAPI   O1219995   1.867   2.341   6.345  0.6497  0.8200  0.1457
  176SAPI   O1119996   1.808   2.430   6.580  0.4930  0.7848  0.0691
  176SAPI    C119997   1.939   2.475   6.607 -0.2976 -0.1381 -0.6153
  176SAPI    HA19998   2.016   2.403   6.573 -0.6957 -2.4040  2.7630
  176SAPI    HB19999   1.942   2.574   6.556 -0.0880  0.0696 -0.2035
  176SAPI    C220000   1.969   2.506   6.760  0.2062  0.3046  0.4541
  176SAPI    HS20001   2.070   2.550   6.753 -1.0551  3.1751 -1.7065
  176SAPI   O2120002   1.956   2.386   6.842 -0.0581  0.1483  0.3487
  176SAPI   C2120003   2.047   2.295   6.814  0.3505  0.8179  0.0027
  176SAPI   O2220004   2.146   2.314   6.744 -0.4777  0.5537  0.0272
  176SAPI   C2220005   2.009   2.157   6.875 -0.1427  0.1996  0.7941
  176SAPI   H2R20006   2.001   2.083   6.793 -0.3663  2.6086 -1.4918
  176SAPI   H2S20007   2.088   2.141   6.952  0.3048  1.0440  0.5269
  176SAPI    C320008   1.875   2.626   6.798  0.4900 -0.2777  0.9156
  176SAPI    HX20009   1.784   2.632   6.734  0.8572 -0.2085  0.3879
  176SAPI    HY20010   1.922   2.722   6.770 -0.7401  0.1344  0.1546
  176SAPI   O3120011   1.829   2.622   6.935  0.4129 -0.2770 -0.3509
  176SAPI   C3120012   1.909   2.645   7.027  0.6984 -0.2775 -0.0992
  176SAPI   O3220013   2.028   2.673   7.025  0.4627  0.2504  0.4914
  176SAPI   C3220014   1.824   2.652   7.161  0.2571  0.7330 -1.0147
  176SAPI   H2X20015   1.829   2.549   7.203  1.6295  1.2057  0.0389
  176SAPI   H2Y20016   1.719   2.675   7.133  0.3872 -1.1203 -3.3746
  176SAPI   C2320017   1.869   2.147   6.941  1.2152  0.3169 -0.0957
  176SAPI   H3R20018   1.795   2.154   6.858 -1.5481  0.7104  2.2612
  176SAPI   H3S20019   1.838   2.225   7.013  0.3005  0.5291 -0.6991
  176SAPI   C2420020   1.836   2.010   7.012  0.8315  0.2321 -0.2677
  176SAPI   H4R20021   1.727   1.994   6.998  0.5550  0.9245  0.9110
  176SAPI   H4S20022   1.843   2.031   7.121 -2.0788 -3.5741  0.8711
  176SAPI   C2520023   1.905   1.882   6.966 -0.2919  0.8562 -0.3551
  176SAPI   H5R20024   1.888   1.862   6.860 -1.4032 -2.3144  0.3062
  176SAPI   C2620025   1.987   1.803   7.036  0.5742  0.4900  0.3626
  176SAPI   H6R20026   2.042   1.724   6.982  0.8087  0.4321  0.6885
  176SAPI   C2720027   2.033   1.808   7.175  0.5093 -0.4628 -0.4147
  176SAPI   H7R20028   2.074   1.709   7.203 -1.3838 -1.1024  0.3085
  176SAPI   H7S20029   1.940   1.830   7.232 -0.6552 -2.8589 -1.2738
  176SAPI   C2820030   2.122   1.928   7.212 -0.7630  0.0166 -0.2758
  176SAPI   H8R20031   2.140   1.999   7.130 -0.3681  0.1232 -0.0968
  176SAPI   C2920032   2.180   1.936   7.330 -0.6282  0.2421  0.9216
  176SAPI   H9R20033   2.242   2.024   7.354  0.5713 -0.6720  1.2512
  176SAPI  C21020034   2.169   1.832   7.436  0.1404 -0.3894  0.3091
  176SAPI  H10R20035   2.268   1.794   7.469  1.0601  1.3382 -0.2896
  176SAPI  H10S20036   2.104   1.746   7.409 -0.6680  0.7608 -1.6121
  176SAPI  C21120037   2.102   1.887   7.561  0.3136 -0.1881  0.0956
  176SAPI  H11R20038   2.014   1.953   7.551  0.8207  0.9561  2.3595
  176SAPI  C21220039   2.145   1.856   7.689  0.1836 -0.0040 -0.5472
  176SAPI  H12R20040   2.094   1.906   7.773 -1.9057 -0.6909 -1.3509
  176SAPI  C21320041   2.250   1.757   7.725 -0.1418 -0.5348  0.7530
  176SAPI  H13R20042   2.338   1.825   7.734 -1.2043  0.9015  0.7027
  176SAPI  H13S20043   2.276   1.692   7.638  1.1961 -0.8869  1.3890
  176SAPI  C21420044   2.228   1.673   7.853 -0.3209 -0.1411  0.1634
  176SAPI  H14R20045   2.187   1.571   7.844 -1.1348 -0.0578  2.4758
  176SAPI  C21520046   2.256   1.709   7.979 -0.0845  0.2472 -0.1667
  176SAPI  H15R20047   2.231   1.643   8.063  1.1138 -0.7543 -0.5583
  176SAPI  C21620048   2.330   1.841   8.021 -0.2948  0.2103 -0.0408
  176SAPI  H16R20049   2.363   1.900   7.933  0.8384  3.4675  2.3525
  176SAPI  H16S20050   2.424   1.820   8.076 -0.1500  0.2945 -0.2557
  176SAPI  C21720051   2.243   1.942   8.117 -0.2444  0.0993  0.0818
  176SAPI  H17R20052   2.210   1.874   8.199  3.6825 -2.9850 -0.6065
  176SAPI  H17S20053   2.149   1.968   8.065 -1.1704 -1.8282  0.6913
  176SAPI  C21820054   2.328   2.063   8.159  0.2308  0.5743 -0.5519
  176SAPI  H18R20055   2.360   2.110   8.064  0.5105  3.0907  0.7027
  176SAPI  H18S20056   2.414   2.041   8.225 -0.2768  0.5091  0.1010
  176SAPI  C21920057   2.243   2.169   8.225 -0.7697 -0.6172 -0.4737
  176SAPI  H19R20058   2.221   2.146   8.331 -0.7147 -0.9109 -0.5240
  176SAPI  H19S20059   2.149   2.178   8.167  0.1965  2.7762 -1.7325
  176SAPI  C22020060   2.320   2.298   8.217 -0.0590 -0.5110  0.2055
  176SAPI  H20R20061   2.368   2.325   8.120  0.5288  0.4319  0.7485
  176SAPI  H20S20062   2.399   2.295   8.294  0.8764 -0.3360 -0.7170
  176SAPI  H20T20063   2.249   2.381   8.237  0.1894  0.0021 -0.9090
  176SAPI   C3320064   1.888   2.749   7.264 -0.1663 -0.2449 -1.1988
  176SAPI   H3X20065   1.889   2.847   7.214 -1.5059  0.5170  0.1877
  176SAPI   H3Y20066   1.992   2.724   7.297 -0.1751  2.2298  1.0148
  176SAPI   C3420067   1.803   2.746   7.395 -0.5565  0.0057 -0.1277
  176SAPI   H4X20068   1.762   2.647   7.425 -1.9302  0.6487  0.2394
  176SAPI   H4Y20069   1.713   2.804   7.363 -0.8536 -0.4829 -0.1961
  176SAPI   C3520070   1.846   2.813   7.529 -0.3258 -0.0091  0.1318
  176SAPI   H5X20071   1.879   2.914   7.499  2.6292 -1.1004 -0.6880
  176SAPI   H5Y20072   1.936   2.765   7.574  1.2372  0.7626 -2.0021
  176SAPI   C3620073   1.730   2.833   7.629  0.1216  0.5348 -0.1734
  176SAPI   H6X20074   1.708   2.734   7.676  0.9679  1.6609  2.8782
  176SAPI   H6Y20075   1.644   2.876   7.573 -0.1779  0.2093  0.0252
  176SAPI   C3720076   1.770   2.923   7.744  0.7622  0.0359 -0.2206
  176SAPI   H7X20077   1.676   2.940   7.801  1.1216  2.2036 -0.1745
  176SAPI   H7Y20078   1.799   3.024   7.706  0.2173  0.1272 -0.4059
  176SAPI   C3820079   1.879   2.882   7.844  0.5858  0.3112  0.3801
  176SAPI   H8X20080   1.972   2.886   7.782  0.3527  0.1894  0.0181
  176SAPI   H8Y20081   1.859   2.778   7.875  0.2130  0.1728 -0.2876
  176SAPI   C3920082   1.896   2.962   7.968  0.2759 -0.7206 -0.1090
  176SAPI   H9X20083   1.810   2.954   8.037  0.2741 -0.8038 -0.1213
  176SAPI   H9Y20084   1.913   3.065   7.930  0.5571 -0.5154  0.5622
  176SAPI  C31020085   2.024   2.917   8.052  0.6742  0.1359  1.1238
  176SAPI  H10X20086   2.116   2.944   7.995  0.1509 -1.5544 -0.6121
  176SAPI  H10Y20087   2.022   2.809   8.078  0.2630 -0.8207 -2.3580
  176SAPI  C31120088   2.020   2.994   8.185  0.0695  0.6618  0.0190
  176SAPI  H11X20089   1.920   2.989   8.233  0.8869  0.1422  1.7684
  176SAPI  H11Y20090   2.046   3.100   8.162  0.2653  0.5920 -0.0795
  176SAPI  C31220091   2.135   2.936   8.280  0.5995  0.2694  0.0830
  176SAPI  H12X20092   2.156   3.013   8.358  2.4781  2.2681 -2.2446
  176SAPI  H12Y20093   2.224   2.928   8.215  0.2479  2.5343 -0.7534
  176SAPI  C31320094   2.098   2.801   8.342 -0.1407  0.0148  0.7390
  176SAPI  H13X20095   2.080   2.726   8.263 -0.3321  0.3427  0.4708
  176SAPI  H13Y20096   1.998   2.800   8.391  0.9100 -0.3617  3.0365
  176SAPI  C31420097   2.210   2.747   8.427  0.4580 -0.0384  0.0620
  176SAPI  H14X20098   2.250   2.827   8.492 -1.4662  0.1628  1.0775
  176SAPI  H14Y20099   2.288   2.718   8.353  0.8423  2.7400 -0.7332
  176SAPI  C31520100   2.147   2.628   8.505  0.4446 -0.2376  0.2108
  176SAPI  H15X20101   2.082   2.574   8.432 -1.7165 -0.0084  1.8578
  176SAPI  H15Y20102   2.087   2.677   8.585 -0.5626  2.2946 -1.9182
  176SAPI  C31620103   2.258   2.534   8.549  0.2837 -0.4883 -0.0991
  176SAPI  H16X20104   2.325   2.589   8.619 -1.1337 -0.7159  1.5185
  176SAPI  H16Y20105   2.312   2.500   8.459 -1.6446  1.3671 -2.1028
  176SAPI  C31720106   2.221   2.407   8.625 -0.6613 -0.2588 -0.5841
  176SAPI  H17X20107   2.320   2.362   8.647 -1.6481 -2.3243 -0.1391
  176SAPI  H17Y20108   2.177   2.324   8.566  0.6976 -0.8403 -0.8181
  176SAPI  C31820109   2.138   2.415   8.755  0.2231  0.2637  0.0983
  176SAPI  H18X20110   2.183   2.476   8.837 -0.1385 -0.9467  1.2098
  176SAPI  H18Y20111   2.130   2.313   8.797  1.5290 -0.1818 -0.6588
  176SAPI  H18Z20112   2.036   2.451   8.729 -0.1143 -0.2489  0.7048
  177SLPC     N20113   0.380   0.778  10.706 -0.2514  0.2148  0.5033
  177SLPC   C1320114   0.423   0.925  10.681 -0.3650  0.3486 -0.3702
  177SLPC  H13A20115   0.342   0.996  10.691 -0.5887 -0.0465  0.8196
  177SLPC  H13B20116   0.504   0.940  10.751 -0.1075 -0.0848 -0.5680
  177SLPC  H13C20117   0.461   0.939  10.581 -0.9993 -1.8952 -0.9892
  177SLPC   C1420118   0.267   0.745  10.613  0.4506 -0.1726 -0.1179
  177SLPC  H14A20119   0.291   0.746  10.507  0.1977 -0.9342 -0.1875
  177SLPC  H14B20120   0.220   0.650  10.631  2.9179 -1.7456 -1.4892
  177SLPC  H14C20121   0.198   0.829  10.612 -0.3293 -0.7822 -1.8657
  177SLPC   C1520122   0.334   0.767  10.852  0.4617 -0.3646  0.1974
  177SLPC  H15A20123   0.418   0.793  10.914  0.3010 -0.2952  0.3884
  177SLPC  H15B20124   0.254   0.840  10.860 -1.0179 -2.0736  1.7682
  177SLPC  H15C20125   0.300   0.667  10.875  2.5787 -1.3368 -0.7057
  177SLPC   C1220126   0.495   0.682  10.683  0.3165  0.4361  0.3801
  177SLPC  H12A20127   0.448   0.591  10.719 -0.9621  0.9688  0.1221
  177SLPC  H12B20128   0.579   0.698  10.749  0.9850 -0.6687 -0.1723
  177SLPC   C1120129   0.562   0.681  10.544  0.0914  0.3876  0.0061
  177SLPC  H11A20130   0.479   0.681  10.472 -0.3777  0.6556  0.5408
  177SLPC  H11B20131   0.622   0.588  10.530 -0.9573 -0.3420  0.2895
  177SLPC     P20132   0.767   0.810  10.630 -0.2179  0.1471 -0.1511
  177SLPC   O1320133   0.727   0.878  10.749 -0.2153  0.4376  0.3402
  177SLPC   O1420134   0.824   0.674  10.644 -0.8647 -0.2149  0.2814
  177SLPC   O1220135   0.641   0.798  10.538 -0.2772  0.1135  0.0105
  177SLPC   O1120136   0.860   0.909  10.546 -0.0459 -0.3314  0.2207
  177SLPC    C120137   0.947   0.908  10.438 -0.2244 -0.2736  0.2215
  177SLPC    HA20138   1.027   0.983  10.456 -1.1237  1.4619 -2.3582
  177SLPC    HB20139   0.991   0.806  10.433 -0.4773 -0.4017  0.5897
  177SLPC    C220140   0.876   0.943  10.306  0.2612 -0.2843  0.2383
  177SLPC    HS20141   0.800   0.863  10.292  0.8209 -0.8298  0.2656
  177SLPC   O2120142   0.979   0.936  10.199  0.0811  0.0881  0.2249
  177SLPC   C2120143   0.933   0.912  10.078 -0.0688 -0.0386 -0.5248
  177SLPC   O2220144   0.821   0.906  10.039  0.1461  0.0456  0.0223
  177SLPC   C2220145   1.050   0.927   9.982  0.9625  0.1003  0.2119
  177SLPC   H2R20146   1.086   1.031   9.988 -0.9251  0.7417  1.5970
  177SLPC   H2S20147   1.126   0.855  10.019 -0.5696 -1.1212  1.1668
  177SLPC    C320148   0.802   1.083  10.306  0.4575  0.1090  0.3956
  177SLPC    HX20149   0.879   1.149  10.351  1.9252 -0.9250 -0.5071
  177SLPC    HY20150   0.719   1.077  10.380  1.3397 -1.1462  1.3187
  177SLPC   O3120151   0.747   1.122  10.174  0.0636  0.3354 -0.0193
  177SLPC   C3120152   0.616   1.117  10.153 -0.1804 -0.2967  0.4742
  177SLPC   O3220153   0.532   1.080  10.232 -0.5262  0.2259  0.0571
  177SLPC   C3220154   0.594   1.166  10.009  0.0989  0.3848 -0.3768
  177SLPC   H2X20155   0.636   1.096   9.933 -0.9490 -0.3249 -0.3240
  177SLPC   H2Y20156   0.651   1.261   9.996  1.6479 -0.6047 -1.2154
  177SLPC   C2320157   1.029   0.880   9.838  0.3722 -1.4072  0.1578
  177SLPC   H3R20158   0.945   0.923   9.779  2.1650 -0.3701 -1.7743
  177SLPC   H3S20159   1.010   0.770   9.839 -0.5241 -1.2982 -1.5422
  177SLPC   C2420160   1.159   0.893   9.750 -0.2560  0.4641 -0.0941
  177SLPC   H4R20161   1.235   0.822   9.790  0.8756  1.5521 -0.2222
  177SLPC   H4S20162   1.208   0.993   9.757 -1.2936  0.8509  2.6635
  177SLPC   C2520163   1.130   0.855   9.603 -0.2373  0.0021 -0.2758
  177SLPC   H5R20164   1.037   0.908   9.575 -1.7085  0.0954  4.0032
  177SLPC   H5S20165   1.113   0.746   9.584  2.5528 -0.3388 -1.3122
  177SLPC   C2620166   1.246   0.889   9.503 -0.0130 -0.0759  0.0297
  177SLPC   H6R20167   1.329   0.816   9.505  0.7127  0.7093 -0.4435
  177SLPC   H6S20168   1.279   0.991   9.531 -0.7400  0.2554 -0.2898
  177SLPC   C2720169   1.177   0.884   9.360  0.3299  0.0006  0.1878
  177SLPC   H7R20170   1.114   0.976   9.352  0.5149  0.0563 -0.7056
  177SLPC   H7S20171   1.114   0.794   9.350  1.3497 -0.8713  1.3036
  177SLPC   C2820172   1.275   0.887   9.248  0.6585  0.1272 -0.1065
  177SLPC   H8R20173   1.360   0.816   9.251  1.9039  1.5349  3.3280
  177SLPC   H8S20174   1.325   0.986   9.256 -0.0070  0.4495  0.1525
  177SLPC   C2920175   1.202   0.874   9.115 -0.6584  0.2419  0.0504
  177SLPC   H9R20176   1.174   0.773   9.084 -2.1038  0.2292  1.3137
  177SLPC  C21020177   1.147   0.964   9.032  0.1037 -0.2131 -0.0885
  177SLPC  H10R20178   1.085   0.924   8.950 -1.2907  1.7826 -0.0725
  177SLPC  C21120179   1.136   1.105   9.059  0.4209 -0.4619 -0.5478
  177SLPC  H11R20180   1.067   1.115   9.146 -0.2546  0.5249 -1.1801
  177SLPC  H11S20181   1.235   1.147   9.088  0.3412 -0.2171 -0.6340
  177SLPC  C21220182   1.070   1.193   8.955  0.0938  0.0883  0.5573
  177SLPC  H12R20183   0.968   1.155   8.938  0.1723 -2.4679  4.4566
  177SLPC  C21320184   1.126   1.283   8.871  0.4719  0.0120  0.2493
  177SLPC  H13R20185   1.064   1.340   8.799  1.0669  0.3215 -0.0282
  177SLPC  C21420186   1.270   1.332   8.874  0.9592  0.0955 -0.2871
  177SLPC  H14R20187   1.322   1.301   8.968 -1.1791  1.3776  1.3933
  177SLPC  H14S20188   1.268   1.441   8.892  1.9272  0.0573  0.1103
  177SLPC  C21520189   1.371   1.304   8.754  0.2782 -0.4718 -0.2458
  177SLPC  H15R20190   1.384   1.193   8.750 -0.4673 -0.5414 -1.0577
  177SLPC  H15S20191   1.471   1.352   8.765  1.0034 -2.1353  0.8430
  177SLPC  C21620192   1.311   1.338   8.617  0.5067  0.2972 -0.5997
  177SLPC  H16R20193   1.207   1.298   8.609  0.3064  0.3425  1.2640
  177SLPC  H16S20194   1.380   1.290   8.544 -0.7575 -0.0365 -1.6154
  177SLPC  C21720195   1.321   1.480   8.566 -0.2134 -1.1967 -0.5963
  177SLPC  H17R20196   1.357   1.496   8.463 -0.5489 -0.5345 -0.6226
  177SLPC  H17S20197   1.402   1.520   8.631 -0.0077 -1.0922 -0.9188
  177SLPC  C21820198   1.195   1.571   8.599 -0.9844 -0.2394 -0.2640
  177SLPC  H18R20199   1.158   1.557   8.703 -1.9252  0.9497 -0.4222
  177SLPC  H18S20200   1.117   1.544   8.525 -0.9882 -2.9944  0.6327
  177SLPC  H18T20201   1.226   1.677   8.591 -0.2540 -0.1970  2.1893
  177SLPC   C3320202   0.445   1.174   9.969  0.5460  0.5301 -0.2358
  177SLPC   H3X20203   0.402   1.257  10.029  2.6651  0.5851  1.3164
  177SLPC   H3Y20204   0.379   1.084   9.975  1.2442 -0.1795 -2.3780
  177SLPC   C3420205   0.444   1.217   9.820 -0.0449  0.5076  0.5746
  177SLPC   H4X20206   0.547   1.223   9.780  0.3419  1.8802  1.6757
  177SLPC   H4Y20207   0.392   1.314   9.800 -2.0112 -0.0316  2.6090
  177SLPC   C3520208   0.368   1.118   9.721  0.2492 -0.6347 -0.2012
  177SLPC   H5X20209   0.261   1.106   9.748  0.2328 -2.1756 -0.8746
  177SLPC   H5Y20210   0.404   1.013   9.724  0.8325 -0.5636 -2.7788
  177SLPC   C3620211   0.392   1.163   9.570  0.2320 -0.2879  0.9874
  177SLPC   H6X20212   0.501   1.162   9.549 -0.0258  0.9656 -0.6203
  177SLPC   H6Y20213   0.351   1.266   9.560  1.9098  0.4714  1.4144
  177SLPC   C3720214   0.336   1.061   9.472  0.4743 -0.5050 -0.0744
  177SLPC   H7X20215   0.235   1.031   9.508  0.2360 -0.6838 -0.8642
  177SLPC   H7Y20216   0.396   0.967   9.472 -2.0045 -2.1781  0.6342
  177SLPC   C3820217   0.336   1.120   9.329 -0.4168 -0.4274 -0.5190
  177SLPC   H8X20218   0.429   1.094   9.274  1.1182  1.3015  1.1098
  177SLPC   H8Y20219   0.336   1.231   9.332  0.0029 -0.4501  1.6140
  177SLPC   C3920220   0.209   1.071   9.252  0.0682 -0.3983  0.3984
  177SLPC   H9X20221   0.114   1.110   9.294 -0.0719  1.0526 -1.1805
  177SLPC   H9Y20222   0.206   0.960   9.256 -1.1111 -0.3765  0.4729
  177SLPC  C31020223   0.199   1.117   9.105  0.2084 -0.5767 -0.4712
  177SLPC  H10X20224   0.296   1.093   9.057  0.6306  2.2215 -1.1845
  177SLPC  H10Y20225   0.181   1.226   9.101  0.3139 -0.5769 -1.0183
  177SLPC  C31120226   0.090   1.036   9.039  0.3804 -0.4012 -0.2018
  177SLPC  H11X20227  -0.015   1.069   9.050  0.8672  1.3135 -0.4563
  177SLPC  H11Y20228   0.087   0.930   9.072  0.6186 -0.2290  0.3817
  177SLPC  C31220229   0.115   1.024   8.891  0.5630  0.3517  0.3430
  177SLPC  H12X20230   0.218   0.982   8.881  0.6235  0.9414 -1.9484
  177SLPC  H12Y20231   0.116   1.119   8.833  1.9668  1.0682  1.4479
  177SLPC  C31320232   0.031   0.924   8.809 -0.1933 -0.4951 -0.1033
  177SLPC  H13X20233  -0.068   0.969   8.789  1.4812  2.5861 -2.4110
  177SLPC  H13Y20234   0.016   0.829   8.865  0.1745 -0.4191  0.1300
  177SLPC  C31420235   0.092   0.903   8.669 -0.6722  0.0434 -0.0745
  177SLPC  H14X20236   0.187   0.846   8.674 -1.2061 -0.9383 -0.6130
  177SLPC  H14Y20237   0.110   1.002   8.622 -1.8099 -0.1628 -1.0094
  177SLPC  C31520238   0.002   0.824   8.567 -0.0331 -0.0925  0.4736
  177SLPC  H15X20239   0.043   0.825   8.464  2.2361  2.1944  1.2810
  177SLPC  H15Y20240  -0.099   0.868   8.554  0.3924  0.9193  0.4909
  177SLPC  C31620241  -0.014   0.687   8.619 -0.0440 -0.1335  0.5390
  177SLPC  H16X20242  -0.073   0.689   8.713 -1.2884 -0.4034 -0.1966
  177SLPC  H16Y20243   0.080   0.632   8.636 -2.0354 -3.2030  2.6412
  177SLPC  C31720244  -0.088   0.602   8.507  0.1131  0.0894  0.3224
  177SLPC  H17X20245  -0.029   0.599   8.413  0.4184 -0.0326  0.5183
  177SLPC  H17Y20246  -0.185   0.654   8.493  0.4102  0.9875  1.4098
  177SLPC  C31820247  -0.109   0.452   8.536  0.7233  0.2079  0.0714
  177SLPC  H18X20248  -0.162   0.401   8.453 -0.8590  0.8699  0.6346
  177SLPC  H18Y20249  -0.178   0.438   8.622 -0.3023  1.1929 -0.5715
  177SLPC  H18Z20250  -0.012   0.408   8.567  1.9137  0.4291 -2.9986
  178SLPC     N20251   1.170   2.286  10.616  0.1689  0.5554 -0.7472
  178SLPC   C1320252   1.262   2.372  10.705 -0.0343  0.2630 -0.2255
  178SLPC  H13A20253   1.345   2.413  10.649  0.2398 -0.7343 -0.5667
  178SLPC  H13B20254   1.219   2.466  10.737 -2.0085 -0.4926 -0.5053
  178SLPC  H13C20255   1.300   2.322  10.792 -0.4298  2.3728  1.2436
  178SLPC   C1420256   1.130   2.374  10.510  0.0854  0.0867  0.0130
  178SLPC  H14A20257   1.218   2.410  10.460 -0.9088  1.4904 -0.7998
  178SLPC  H14B20258   1.066   2.324  10.439 -0.8027 -0.0005  0.8426
  178SLPC  H14C20259   1.074   2.461  10.542  0.8975  0.3894  0.6417
  178SLPC   C1520260   1.059   2.246  10.702  0.5618  0.8039 -0.2061
  178SLPC  H15A20261   0.998   2.183  10.639  2.3703  2.2622 -3.6952
  178SLPC  H15B20262   1.092   2.196  10.792  0.2125  1.4404  0.2840
  178SLPC  H15C20263   0.992   2.324  10.735  0.0495 -0.1125  1.0097
  178SLPC   C1220264   1.253   2.167  10.566 -1.0074 -0.6725  0.2801
  178SLPC  H12A20265   1.191   2.083  10.540  1.4448 -2.5177  0.0107
  178SLPC  H12B20266   1.311   2.144  10.654 -1.9138  1.4521  1.5218
  178SLPC   C1120267   1.356   2.198  10.456 -0.1535  0.6786  0.1034
  178SLPC  H11A20268   1.311   2.234  10.361 -1.0375  0.4557  0.4280
  178SLPC  H11B20269   1.392   2.097  10.425 -1.5180  0.1879  0.0344
  178SLPC     P20270   1.563   2.238  10.602 -0.0414 -0.2576 -0.5701
  178SLPC   O1320271   1.590   2.349  10.698  0.0168 -0.0275 -0.4629
  178SLPC   O1420272   1.525   2.107  10.666 -0.1142  0.3740 -0.0182
  178SLPC   O1220273   1.457   2.284  10.501 -0.2395 -0.1407 -0.1506
  178SLPC   O1120274   1.702   2.211  10.527 -0.8844  0.4984  0.3201
  178SLPC    C120275   1.706   2.188  10.382 -0.1723 -0.8952 -0.5937
  178SLPC    HA20276   1.648   2.094  10.364  1.1714 -1.9357  0.3668
  178SLPC    HB20277   1.657   2.273  10.329  3.0183  0.9666 -0.7660
  178SLPC    C220278   1.848   2.160  10.324  0.0557  0.0143 -0.3860
  178SLPC    HS20279   1.889   2.083  10.393 -0.2685 -1.9907 -2.3253
  178SLPC   O2120280   1.928   2.280  10.336 -0.5585 -0.3311  0.5878
  178SLPC   C2120281   2.058   2.258  10.319  0.4996 -0.1482 -0.3171
  178SLPC   O2220282   2.110   2.151  10.298 -0.6471  0.5115  0.0968
  178SLPC   C2220283   2.147   2.386  10.331  0.0749 -0.0543 -0.8213
  178SLPC   H2R20284   2.106   2.451  10.412  0.0393 -0.9918 -0.0695
  178SLPC   H2S20285   2.250   2.355  10.359 -0.0052  0.5864  0.2266
  178SLPC    C320286   1.846   2.095  10.187 -0.5397  0.5562  0.3226
  178SLPC    HX20287   1.943   2.044  10.167  0.2394  2.0031  0.3186
  178SLPC    HY20288   1.834   2.176  10.112 -2.2213  1.8038  1.8304
  178SLPC   O3120289   1.731   2.000  10.166  0.4682  0.2635  0.3688
  178SLPC   C3120290   1.755   1.871  10.190 -0.3544  0.1705 -0.3723
  178SLPC   O3220291   1.858   1.826  10.250 -0.1557  0.7040  0.7837
  178SLPC   C3220292   1.645   1.780  10.134  0.0939  0.2549  0.4355
  178SLPC   H2X20293   1.552   1.834  10.106 -1.2510 -1.1545  2.0098
  178SLPC   H2Y20294   1.633   1.713  10.222  0.4698 -0.8724 -0.3517
  178SLPC   C2320295   2.160   2.446  10.197 -1.0293 -1.0105  0.5366
  178SLPC   H3R20296   2.233   2.396  10.131 -1.7973 -0.9438 -0.3797
  178SLPC   H3S20297   2.203   2.547  10.214 -0.2290 -1.3107  0.3203
  178SLPC   C2420298   2.033   2.473  10.128  0.3718 -0.5750  0.8597
  178SLPC   H4R20299   1.967   2.534  10.194 -2.3082 -2.0053 -0.3397
  178SLPC   H4S20300   1.972   2.382  10.109 -0.2059  0.5413 -3.6257
  178SLPC   C2520301   2.049   2.585  10.015  0.0421  0.1861 -0.3316
  178SLPC   H5R20302   2.113   2.554   9.930 -0.6007 -2.5712  0.1033
  178SLPC   H5S20303   2.099   2.671  10.065 -1.3600  0.2496  1.0336
  178SLPC   C2620304   1.921   2.615   9.940 -0.1404  0.2044  0.5370
  178SLPC   H6R20305   1.840   2.661  10.000 -0.6121 -0.0425  0.0995
  178SLPC   H6S20306   1.890   2.518   9.895  0.3504 -0.3934  1.4460
  178SLPC   C2720307   1.951   2.713   9.824 -0.1783 -0.7319 -0.2179
  178SLPC   H7R20308   2.031   2.667   9.762 -0.7041 -0.2863 -1.2565
  178SLPC   H7S20309   1.978   2.814   9.862 -1.1930 -1.1047  1.5796
  178SLPC   C2820310   1.827   2.733   9.730 -0.2328 -0.6947 -0.6849
  178SLPC   H8R20311   1.748   2.779   9.794  0.0913 -0.4892 -0.4272
  178SLPC   H8S20312   1.782   2.637   9.697 -2.3909 -1.6171  4.0623
  178SLPC   C2920313   1.861   2.819   9.608 -0.0813  0.4908  0.4196
  178SLPC   H9R20314   1.912   2.912   9.635 -0.4748  0.6525  0.6186
  178SLPC  C21020315   1.838   2.789   9.480  0.0452 -0.7293 -0.3516
  178SLPC  H10R20316   1.866   2.857   9.398  1.1459 -0.4157  0.2730
  178SLPC  C21120317   1.771   2.665   9.429 -1.0193 -0.2609  0.1012
  178SLPC  H11R20318   1.702   2.617   9.502 -1.0786 -1.0985 -0.4876
  178SLPC  H11S20319   1.839   2.583   9.399 -1.1906 -0.5288  0.4280
  178SLPC  C21220320   1.679   2.702   9.321  0.2490  0.0687  0.0708
  178SLPC  H12R20321   1.575   2.697   9.358  1.4089 -4.1184  3.4902
  178SLPC  C21320322   1.719   2.713   9.191 -0.4569  0.5684  0.4263
  178SLPC  H13R20323   1.647   2.739   9.113 -0.9013  0.8091  0.9122
  178SLPC  C21420324   1.862   2.706   9.150  0.0013 -0.4393 -0.1170
  178SLPC  H14R20325   1.936   2.714   9.233 -0.6438 -0.8235  0.5116
  178SLPC  H14S20326   1.885   2.797   9.090  2.8316 -0.5268  0.7098
  178SLPC  C21520327   1.900   2.585   9.066 -0.3939  0.5398 -0.1170
  178SLPC  H15R20328   1.999   2.595   9.017  0.9074 -2.6031  1.5535
  178SLPC  H15S20329   1.821   2.573   8.989 -1.2418  1.6910  0.5348
  178SLPC  C21620330   1.905   2.458   9.157  0.4606 -0.4128 -0.1782
  178SLPC  H16R20331   1.803   2.446   9.201 -0.2985 -0.8570 -1.9627
  178SLPC  H16S20332   1.973   2.475   9.242  1.1087  0.4354 -0.8545
  178SLPC  C21720333   1.961   2.339   9.084 -0.4740  0.4322  0.3601
  178SLPC  H17R20334   2.052   2.371   9.028  0.2196  0.8747  1.6925
  178SLPC  H17S20335   1.884   2.308   9.010 -0.9200  0.3474  0.8583
  178SLPC  C21820336   1.996   2.223   9.185 -0.5356 -0.3092  0.8218
  178SLPC  H18R20337   1.903   2.189   9.236 -0.6942 -0.8429  0.1885
  178SLPC  H18S20338   2.069   2.254   9.263 -0.3060  0.1130  0.4429
  178SLPC  H18T20339   2.050   2.140   9.133  0.7806 -1.6127  4.0265
  178SLPC   C3320340   1.695   1.700  10.013  0.2094 -0.5580 -0.2519
  178SLPC   H3X20341   1.623   1.617   9.997 -0.5989 -0.2045  1.3838
  178SLPC   H3Y20342   1.791   1.650  10.037 -0.1145 -1.1662 -0.2076
  178SLPC   C3420343   1.711   1.770   9.876 -0.0144 -0.9789  0.2025
  178SLPC   H4X20344   1.777   1.859   9.887  2.3647 -2.7231  0.7523
  178SLPC   H4Y20345   1.606   1.807   9.872 -0.1028 -1.1343  1.0101
  178SLPC   C3520346   1.757   1.676   9.771 -0.3495  1.0132 -0.1712
  178SLPC   H5X20347   1.703   1.578   9.771  1.5312 -0.1137  1.7859
  178SLPC   H5Y20348   1.864   1.661   9.794 -0.8928 -1.1117  1.3239
  178SLPC   C3620349   1.747   1.732   9.633  0.3414 -0.4124  0.7309
  178SLPC   H6X20350   1.804   1.680   9.553 -0.6372 -1.1903  0.5220
  178SLPC   H6Y20351   1.789   1.835   9.627 -1.0457  0.1186 -0.4153
  178SLPC   C3720352   1.600   1.732   9.582  0.7995  0.1711  0.6987
  178SLPC   H7X20353   1.540   1.812   9.633  1.2290 -0.1679  1.7658
  178SLPC   H7Y20354   1.557   1.634   9.611  0.5335 -0.0712 -0.4740
  178SLPC   C3820355   1.592   1.742   9.425  0.5178 -0.0893 -0.2612
  178SLPC   H8X20356   1.488   1.733   9.388  0.8420  0.4401 -1.3478
  178SLPC   H8Y20357   1.643   1.657   9.375  1.1341 -0.3362  0.7537
  178SLPC   C3920358   1.643   1.872   9.366 -0.7945  0.3220  0.0264
  178SLPC   H9X20359   1.753   1.876   9.351 -0.7966  2.9238  0.1222
  178SLPC   H9Y20360   1.622   1.963   9.427 -0.2979  0.7717 -0.4635
  178SLPC  C31020361   1.579   1.896   9.231  0.4134 -1.1016  0.0991
  178SLPC  H10X20362   1.468   1.897   9.240  0.2202  0.1851 -1.7273
  178SLPC  H10Y20363   1.598   1.806   9.169  1.4332 -1.4445  0.8868
  178SLPC  C31120364   1.612   2.026   9.151  0.0758 -0.8096  0.4432
  178SLPC  H11X20365   1.721   2.032   9.133 -0.3025  1.8958 -1.6601
  178SLPC  H11Y20366   1.593   2.123   9.201 -0.2358  0.4384 -1.9416
  178SLPC  C31220367   1.542   2.036   9.013 -0.5046  0.8255 -0.2879
  178SLPC  H12X20368   1.601   2.108   8.953  1.2452  0.2231  0.6635
  178SLPC  H12Y20369   1.432   2.052   9.022 -0.8270 -1.8997  1.9585
  178SLPC  C31320370   1.555   1.910   8.920 -0.2330  0.3245 -0.0025
  178SLPC  H13X20371   1.525   1.816   8.972 -0.0765 -0.0651 -0.6061
  178SLPC  H13Y20372   1.664   1.903   8.896  0.2243  2.2692  1.2587
  178SLPC  C31420373   1.472   1.919   8.787  1.3832  0.2505  0.3048
  178SLPC  H14X20374   1.369   1.882   8.808  0.9379  0.7984 -0.8321
  178SLPC  H14Y20375   1.518   1.853   8.711  2.1083  0.0439  0.9081
  178SLPC  C31520376   1.450   2.062   8.725  0.2194 -0.6578  0.2659
  178SLPC  H15X20377   1.399   2.131   8.795  2.9562  2.0172 -0.1520
  178SLPC  H15Y20378   1.546   2.116   8.709 -0.8376  0.7619 -1.7318
  178SLPC  C31620379   1.387   2.057   8.588 -0.8373  0.0284 -0.1687
  178SLPC  H16X20380   1.462   2.033   8.510  0.5118 -0.6607  1.2833
  178SLPC  H16Y20381   1.356   2.161   8.564 -1.0431 -0.4849 -2.3917
  178SLPC  C31720382   1.274   1.960   8.574 -0.0667  0.6657  0.3891
  178SLPC  H17X20383   1.217   1.936   8.666 -1.1533  0.5221 -0.3155
  178SLPC  H17Y20384   1.314   1.858   8.553 -0.3054  0.2926  1.6617
  178SLPC  C31820385   1.175   1.995   8.459  0.4187  0.0505 -0.4707
  178SLPC  H18X20386   1.092   1.921   8.453  0.7580 -0.2244 -2.8795
  178SLPC  H18Y20387   1.237   1.989   8.367  1.0821  0.3477 -0.0496
  178SLPC  H18Z20388   1.126   2.094   8.464 -1.4867 -0.6400 -3.0126
  179SLPC     N20389   5.688   6.061  10.557 -0.2342 -0.2036  0.0065
  179SLPC   C1320390   5.612   5.928  10.560  0.5013 -0.1824 -0.2439
  179SLPC  H13A20391   5.591   5.894  10.460  0.4391  2.2317 -1.1012
  179SLPC  H13B20392   5.657   5.843  10.610 -0.4749  0.2305  1.4288
  179SLPC  H13C20393   5.513   5.931  10.605  0.4214 -1.3984 -0.2817
  179SLPC   C1420394   5.818   6.033  10.491  0.6277 -0.5732 -0.4106
  179SLPC  H14A20395   5.874   6.125  10.483  1.5901 -1.1006  0.1921
  179SLPC  H14B20396   5.880   5.960  10.539  0.4269 -2.7200 -3.1612
  179SLPC  H14C20397   5.799   6.007  10.388 -3.7146  1.3758 -0.3554
  179SLPC   C1520398   5.716   6.097  10.706  0.1823  0.1292  0.2489
  179SLPC  H15A20399   5.774   6.025  10.763 -1.1877 -1.6525 -0.5100
  179SLPC  H15B20400   5.772   6.189  10.701  0.2326  0.0660 -0.4479
  179SLPC  H15C20401   5.622   6.113  10.757  0.7636  2.5922  0.7029
  179SLPC   C1220402   5.608   6.182  10.493  0.3578 -0.1311 -0.4291
  179SLPC  H12A20403   5.662   6.273  10.512  0.7876 -0.1661 -1.4211
  179SLPC  H12B20404   5.511   6.195  10.539 -0.3447 -2.5094 -1.0600
  179SLPC   C1120405   5.575   6.165  10.346 -0.0467 -0.4933 -0.1260
  179SLPC  H11A20406   5.499   6.237  10.310 -0.7745 -1.0197  0.3222
  179SLPC  H11B20407   5.539   6.060  10.338  4.4632 -2.3866  0.8093
  179SLPC     P20408   5.760   6.317  10.242  0.0896 -0.1202 -0.4450
  179SLPC   O1320409   5.792   6.391  10.370 -0.4371  0.0101 -0.1911
  179SLPC   O1420410   5.874   6.309  10.153  0.2224 -0.6502  0.0787
  179SLPC   O1220411   5.694   6.174  10.262 -0.5080 -0.7127  0.0130
  179SLPC   O1120412   5.642   6.397  10.170 -0.2846 -1.0334  0.2615
  179SLPC    C120413   5.595   6.372  10.035  0.8780  0.7406  1.2221
  179SLPC    HA20414   5.646   6.287   9.983  0.8218  0.4134  1.6908
  179SLPC    HB20415   5.488   6.346  10.044  0.2805  2.6488  0.0450
  179SLPC    C220416   5.624   6.498   9.939  0.1854 -0.2891 -0.1270
  179SLPC    HS20417   5.574   6.593   9.969  1.0380  1.0468 -2.6430
  179SLPC   O2120418   5.578   6.483   9.800 -0.1153  0.0993  0.3463
  179SLPC   C2120419   5.452   6.506   9.774  0.3644 -0.6977 -0.0183
  179SLPC   O2220420   5.363   6.528   9.855 -0.1957 -0.1890 -0.1048
  179SLPC   C2220421   5.423   6.483   9.622 -0.2110 -1.1473  0.1727
  179SLPC   H2R20422   5.424   6.373   9.612 -0.6924 -1.0074 -1.8613
  179SLPC   H2S20423   5.322   6.527   9.603 -0.2058 -0.6977  1.1327
  179SLPC    C320424   5.774   6.536   9.930  0.0619  0.5207  0.3306
  179SLPC    HX20425   5.827   6.440   9.916  0.2998  0.5535  0.9381
  179SLPC    HY20426   5.820   6.561  10.028  0.2183 -1.7365  0.8803
  179SLPC   O3120427   5.803   6.626   9.822  0.0097 -0.0923 -0.4929
  179SLPC   C3120428   5.820   6.754   9.861 -0.5959 -0.0312  0.5420
  179SLPC   O3220429   5.813   6.795   9.975 -0.2969  0.1971 -0.3632
  179SLPC   C3220430   5.831   6.846   9.740 -0.2528  0.3509 -0.0748
  179SLPC   H2X20431   5.927   6.900   9.759  0.5876 -1.6125  1.6408
  179SLPC   H2Y20432   5.742   6.912   9.742 -0.7377 -0.3226  0.7008
  179SLPC   C2320433   5.534   6.546   9.536  0.8152  0.1626 -0.4645
  179SLPC   H3R20434   5.633   6.522   9.578  0.4525 -0.2624  0.1519
  179SLPC   H3S20435   5.513   6.655   9.543 -0.1618  0.0225 -0.9716
  179SLPC   C2420436   5.537   6.485   9.396 -0.1285  0.3272 -0.1096
  179SLPC   H4R20437   5.551   6.377   9.417  1.3747  0.4767 -0.2081
  179SLPC   H4S20438   5.631   6.509   9.340 -0.4878 -1.1717 -1.4248
  179SLPC   C2520439   5.416   6.521   9.304  0.1571 -0.2967 -0.3010
  179SLPC   H5R20440   5.387   6.627   9.320 -0.3016  0.0888 -3.2015
  179SLPC   H5S20441   5.341   6.447   9.339  0.8109 -0.7127  0.2257
  179SLPC   C2620442   5.427   6.505   9.153  0.1122 -0.2736  0.2860
  179SLPC   H6R20443   5.468   6.403   9.135  0.1622 -0.0141 -1.2206
  179SLPC   H6S20444   5.503   6.579   9.121 -0.7877  1.0849  1.2178
  179SLPC   C2720445   5.300   6.523   9.083 -0.9204 -0.0706  0.5321
  179SLPC   H7R20446   5.243   6.613   9.113  0.4734  1.1367 -0.2745
  179SLPC   H7S20447   5.243   6.429   9.098  1.0315 -1.6750 -1.4379
  179SLPC   C2820448   5.326   6.548   8.925  0.4398 -0.8836  0.3281
  179SLPC   H8R20449   5.394   6.626   8.884 -1.7571 -0.7365 -3.5388
  179SLPC   H8S20450   5.232   6.587   8.881  1.3047  3.5079  1.8828
  179SLPC   C2920451   5.363   6.432   8.838  0.4385  0.2188  0.2370
  179SLPC   H9R20452   5.322   6.336   8.873 -0.3625  0.7824  0.8691
  179SLPC  C21020453   5.430   6.426   8.719 -0.2875  0.3780  0.0370
  179SLPC  H10R20454   5.430   6.330   8.665 -1.8050 -0.1813  0.9892
  179SLPC  C21120455   5.489   6.548   8.645  0.5967  0.8018 -0.1314
  179SLPC  H11R20456   5.570   6.582   8.714  0.1788 -1.5384  1.6516
  179SLPC  H11S20457   5.412   6.627   8.631 -0.3974 -0.4201 -1.8964
  179SLPC  C21220458   5.541   6.517   8.507 -0.0588 -0.0344  0.2201
  179SLPC  H12R20459   5.490   6.433   8.457  2.6860 -1.9194  0.3443
  179SLPC  C21320460   5.645   6.571   8.445  0.3098  0.6902  0.3514
  179SLPC  H13R20461   5.665   6.543   8.340  0.4904  2.0738  0.0018
  179SLPC  C21420462   5.736   6.678   8.496 -0.3151  0.3626 -0.1145
  179SLPC  H14R20463   5.812   6.716   8.424  0.6945 -1.8909 -0.3072
  179SLPC  H14S20464   5.793   6.634   8.581  1.3605 -0.3608 -1.5455
  179SLPC  C21520465   5.665   6.804   8.549 -0.3134 -0.4217  0.2004
  179SLPC  H15R20466   5.737   6.878   8.590  0.2703 -0.4193 -0.8053
  179SLPC  H15S20467   5.611   6.773   8.641 -2.0371  0.0498 -0.6219
  179SLPC  C21620468   5.586   6.884   8.442 -0.1227  0.4636 -0.6821
  179SLPC  H16R20469   5.494   6.935   8.477 -0.0563  0.5825 -0.6782
  179SLPC  H16S20470   5.544   6.813   8.367  0.9220  0.1265 -0.9756
  179SLPC  C21720471   5.671   6.987   8.376  0.0652 -0.3588 -0.0758
  179SLPC  H17R20472   5.762   6.944   8.329  0.8602  0.5199  0.6255
  179SLPC  H17S20473   5.709   7.051   8.458 -1.8572 -0.3514  0.8511
  179SLPC  C21820474   5.603   7.063   8.265 -0.2668 -0.0094 -0.1633
  179SLPC  H18R20475   5.675   7.131   8.215  4.0268 -2.4737  1.9976
  179SLPC  H18S20476   5.518   7.115   8.313 -1.1995 -1.2802 -0.3657
  179SLPC  H18T20477   5.551   6.986   8.203 -1.6572  1.1340 -0.4588
  179SLPC   C3320478   5.851   6.767   9.611 -0.0623 -0.3583 -0.2157
  179SLPC   H3X20479   5.764   6.700   9.599 -1.0013  0.4891  1.4504
  179SLPC   H3Y20480   5.941   6.703   9.617 -0.1768 -0.4290  0.9724
  179SLPC   C3420481   5.842   6.858   9.484 -0.1754 -0.1315 -0.3052
  179SLPC   H4X20482   5.925   6.930   9.499  1.1426 -1.7671  0.7157
  179SLPC   H4Y20483   5.748   6.917   9.491 -1.4032 -1.7973 -1.6096
  179SLPC   C3520484   5.850   6.784   9.357 -0.6096  0.2638  0.1770
  179SLPC   H5X20485   5.814   6.680   9.376 -1.1558  0.6287  1.2468
  179SLPC   H5Y20486   5.957   6.784   9.330 -0.1712  0.3253  1.8380
  179SLPC   C3620487   5.778   6.862   9.244  0.3553  0.2277  0.3015
  179SLPC   H6X20488   5.788   6.972   9.250  2.1345  0.1230 -0.1460
  179SLPC   H6Y20489   5.667   6.856   9.247  0.3968 -1.1933 -0.3016
  179SLPC   C3720490   5.833   6.831   9.106 -0.0461 -0.4402 -0.5489
  179SLPC   H7X20491   5.834   6.721   9.093 -1.0838 -0.3923 -1.1819
  179SLPC   H7Y20492   5.939   6.864   9.109  0.5229 -2.1886 -0.4469
  179SLPC   C3820493   5.753   6.877   8.979  0.1776  0.0678 -0.8341
  179SLPC   H8X20494   5.650   6.836   8.966  0.9527 -2.5086  0.5363
  179SLPC   H8Y20495   5.807   6.850   8.886 -0.1088  0.3537 -1.0853
  179SLPC   C3920496   5.764   7.030   8.972 -0.3002 -0.5064 -0.1436
  179SLPC   H9X20497   5.868   7.065   8.990  0.3905 -0.9020 -2.8669
  179SLPC   H9Y20498   5.703   7.084   9.047  0.7375  1.5749 -0.7242
  179SLPC  C31020499   5.715   7.090   8.841 -0.5889  0.3935 -0.3687
  179SLPC  H10X20500   5.607   7.070   8.824 -0.6530  1.3483 -1.1428
  179SLPC  H10Y20501   5.777   7.050   8.758 -0.2019  0.6397 -0.2061
  179SLPC  C31120502   5.717   7.244   8.840  0.2768  0.6048  0.1465
  179SLPC  H11X20503   5.821   7.279   8.861  2.2730 -3.2176 -2.0322
  179SLPC  H11Y20504   5.642   7.272   8.916  0.4285 -2.3170  1.4954
  179SLPC  C31220505   5.688   7.301   8.703  0.0124 -0.1600  0.3551
  179SLPC  H12X20506   5.597   7.253   8.660 -1.5703 -0.7325  3.9713
  179SLPC  H12Y20507   5.770   7.261   8.640 -0.8351 -1.9957  0.3670
  179SLPC  C31320508   5.669   7.452   8.704 -1.1226  0.2597 -0.3808
  179SLPC  H13X20509   5.596   7.466   8.786 -0.5008  2.8580 -0.1795
  179SLPC  H13Y20510   5.626   7.475   8.604  0.0229 -2.2052 -1.5251
  179SLPC  C31420511   5.792   7.528   8.730  0.7688 -0.4535 -0.0223
  179SLPC  H14X20512   5.856   7.517   8.640 -1.6120  0.9149 -1.9876
  179SLPC  H14Y20513   5.846   7.505   8.825  2.5576  0.1446 -0.8523
  179SLPC  C31520514   5.763   7.677   8.732 -0.0620  0.1778  0.1847
  179SLPC  H15X20515   5.726   7.705   8.833  1.7731  1.8380  0.4477
  179SLPC  H15Y20516   5.689   7.687   8.650  1.5946  1.2303 -1.2488
  179SLPC  C31620517   5.883   7.774   8.702 -0.0663  0.1236 -0.2091
  179SLPC  H16X20518   5.947   7.769   8.793 -0.4792  3.0277  0.3249
  179SLPC  H16Y20519   5.845   7.877   8.691  0.6527  0.4901  0.6186
  179SLPC  C31720520   5.954   7.743   8.575 -0.5008 -0.1513  0.3764
  179SLPC  H17X20521   5.894   7.755   8.482  0.3612 -1.0842 -0.3194
  179SLPC  H17Y20522   6.007   7.646   8.573  1.5091  0.8313  2.0809
  179SLPC  C31820523   6.073   7.847   8.562  0.5474 -0.1192 -0.1810
  179SLPC  H18X20524   6.135   7.823   8.473 -1.5547  0.2430 -1.8275
  179SLPC  H18Y20525   6.124   7.834   8.660 -4.0057 -1.7054  2.2290
  179SLPC  H18Z20526   6.022   7.946   8.560 -0.5552 -0.6809 -0.1086
  180SLPC     N20527   5.738   2.955  10.582 -0.3364 -0.3764  0.1619
  180SLPC   C1320528   5.884   2.934  10.610  0.5363 -0.3213 -0.1252
  180SLPC  H13A20529   5.887   2.870  10.697 -1.7469 -0.9535 -0.4248
  180SLPC  H13B20530   5.941   2.899  10.525 -0.0905  2.6414 -1.9182
  180SLPC  H13C20531   5.928   3.024  10.650 -0.0744 -0.2718  0.4527
  180SLPC   C1420532   5.743   3.060  10.482 -0.2398 -0.3281  0.3266
  180SLPC  H14A20533   5.646   3.059  10.434  0.6286  0.5481 -1.5439
  180SLPC  H14B20534   5.757   3.156  10.528 -1.8161  0.4296 -0.6999
  180SLPC  H14C20535   5.809   3.036  10.400 -1.7675  0.7249 -1.2909
  180SLPC   C1520536   5.678   3.002  10.706 -0.4152  0.1867 -0.3390
  180SLPC  H15A20537   5.576   3.038  10.699 -0.4024  0.4121  0.6179
  180SLPC  H15B20538   5.687   2.923  10.779 -0.7505  1.2508  0.8785
  180SLPC  H15C20539   5.734   3.086  10.745  0.9398 -1.1307  0.6737
  180SLPC   C1220540   5.658   2.839  10.522  0.3686  0.0158 -0.1594
  180SLPC  H12A20541   5.560   2.878  10.497  0.9010  0.7004 -1.2810
  180SLPC  H12B20542   5.652   2.758  10.594 -1.0450  0.0194 -0.2541
  180SLPC   C1120543   5.712   2.782  10.390 -0.0524  0.4748 -0.1032
  180SLPC  H11A20544   5.731   2.864  10.318 -1.5805 -0.1546 -1.2838
  180SLPC  H11B20545   5.638   2.712  10.347  0.4609 -0.6486  0.7755
  180SLPC     P20546   5.864   2.583  10.463  0.5017  0.1238 -0.0162
  180SLPC   O1320547   6.004   2.546  10.453  0.1382 -0.0552 -0.2091
  180SLPC   O1420548   5.798   2.578  10.591  0.2058 -0.1660 -0.0429
  180SLPC   O1220549   5.840   2.718  10.397  0.3503  0.6473 -0.2559
  180SLPC   O1120550   5.785   2.487  10.368  0.0264 -0.0335 -0.1358
  180SLPC    C120551   5.801   2.492  10.223 -0.1320 -0.0773 -0.1439
  180SLPC    HA20552   5.722   2.438  10.167  0.9461  0.1640 -1.9890
  180SLPC    HB20553   5.790   2.596  10.186 -0.7279  0.1296  0.5934
  180SLPC    C220554   5.916   2.417  10.164  0.4685  0.0678 -0.4420
  180SLPC    HS20555   5.999   2.488  10.186 -1.3069  2.4498 -0.9541
  180SLPC   O2120556   5.888   2.414  10.026  0.5522 -0.4524 -0.0902
  180SLPC   C2120557   5.997   2.406   9.951 -0.3582 -0.4489 -0.2255
  180SLPC   O2220558   6.115   2.413   9.994 -0.5303  0.6735  0.0950
  180SLPC   C2220559   5.961   2.381   9.807 -0.0526 -0.0357 -0.5398
  180SLPC   H2R20560   5.872   2.316   9.801 -0.2660  0.2270 -0.2498
  180SLPC   H2S20561   5.914   2.481   9.793 -1.8836 -0.5392  1.5305
  180SLPC    C320562   5.934   2.280  10.226 -0.5306  0.9534 -0.2567
  180SLPC    HX20563   5.836   2.229  10.226 -0.0535  0.0150  0.1382
  180SLPC    HY20564   5.966   2.290  10.332  0.2810 -0.6201 -0.3338
  180SLPC   O3120565   6.007   2.179  10.143 -0.4553 -0.2590 -0.3831
  180SLPC   C3120566   6.127   2.142  10.199 -0.2919 -0.2332 -0.4497
  180SLPC   O3220567   6.168   2.191  10.306  0.3412  0.9694  1.0979
  180SLPC   C3220568   6.205   2.051  10.116 -0.0616 -0.3088  0.5851
  180SLPC   H2X20569   6.154   1.954  10.136  0.2231 -0.8847 -1.2515
  180SLPC   H2Y20570   6.311   2.057  10.148  0.0819 -2.8194  0.8094
  180SLPC   C2320571   6.085   2.348   9.714 -0.0560  1.0086 -1.0810
  180SLPC   H3R20572   6.134   2.252   9.742  1.2249  2.0181  0.3383
  180SLPC   H3S20573   6.165   2.425   9.714  1.4682 -0.4900  0.3720
  180SLPC   C2420574   6.038   2.324   9.562 -0.1278  0.4483 -0.3785
  180SLPC   H4R20575   5.986   2.414   9.522  0.0099 -0.0526 -1.7396
  180SLPC   H4S20576   5.962   2.242   9.563  0.5390 -0.1813 -0.6393
  180SLPC   C2520577   6.153   2.300   9.465 -0.1673 -0.2633 -0.2871
  180SLPC   H5R20578   6.207   2.203   9.471 -1.2101 -0.7831  0.9618
  180SLPC   H5S20579   6.223   2.383   9.488 -1.9777  1.5490 -1.0889
  180SLPC   C2620580   6.104   2.314   9.319 -0.4537 -0.2236 -0.2941
  180SLPC   H6R20581   6.060   2.415   9.318 -0.7504 -0.2803  1.8883
  180SLPC   H6S20582   6.019   2.245   9.300  0.0117 -1.3320  1.3800
  180SLPC   C2720583   6.221   2.298   9.220  0.0172 -1.2796 -0.0542
  180SLPC   H7R20584   6.190   2.210   9.159  1.8214 -2.3480  0.4846
  180SLPC   H7S20585   6.315   2.273   9.274 -0.2114 -1.6600  0.1695
  180SLPC   C2820586   6.213   2.425   9.127  0.2404 -0.8687 -0.2145
  180SLPC   H8R20587   6.108   2.431   9.093 -0.5455 -0.1920  2.1288
  180SLPC   H8S20588   6.272   2.404   9.035  1.6738  1.0256  0.2145
  180SLPC   C2920589   6.269   2.556   9.179  0.6009  0.5112  0.6479
  180SLPC   H9R20590   6.284   2.562   9.288  4.7797 -1.3459  0.3513
  180SLPC  C21020591   6.326   2.642   9.097  0.2499 -0.3765  1.1265
  180SLPC  H10R20592   6.374   2.729   9.145  0.5343  0.2727 -0.3053
  180SLPC  C21120593   6.327   2.641   8.943  0.1532 -0.3533 -0.1665
  180SLPC  H11R20594   6.292   2.739   8.905 -0.5361  0.2608  1.9213
  180SLPC  H11S20595   6.253   2.564   8.914 -0.3413  0.7021 -1.8110
  180SLPC  C21220596   6.457   2.629   8.877 -0.5783  0.5807  0.8330
  180SLPC  H12R20597   6.534   2.588   8.943 -0.1628  1.3327  0.8236
  180SLPC  C21320598   6.490   2.658   8.748 -0.6930  0.3011 -0.3125
  180SLPC  H13R20599   6.597   2.657   8.721  0.4217  1.1723  3.5328
  180SLPC  C21420600   6.397   2.715   8.645 -0.3571  0.4954 -0.3676
  180SLPC  H14R20601   6.460   2.782   8.582  1.1119  0.7890  1.3107
  180SLPC  H14S20602   6.322   2.783   8.692  1.5673  1.6573  1.2185
  180SLPC  C21520603   6.314   2.617   8.558 -0.3076 -0.4181 -0.1437
  180SLPC  H15R20604   6.275   2.544   8.632 -0.1905 -0.1649  0.1676
  180SLPC  H15S20605   6.386   2.560   8.496  1.1985  0.9601  0.2811
  180SLPC  C21620606   6.204   2.684   8.477  0.3379  0.2762 -0.3236
  180SLPC  H16R20607   6.245   2.748   8.395  3.3052 -0.5833  0.3679
  180SLPC  H16S20608   6.151   2.755   8.545 -0.5645 -2.3548  1.9104
  180SLPC  C21720609   6.103   2.596   8.407 -0.7702 -0.2780  0.5416
  180SLPC  H17R20610   6.044   2.545   8.485 -1.2655 -0.9608 -0.2583
  180SLPC  H17S20611   6.162   2.530   8.341  0.3659  1.2312 -0.0211
  180SLPC  C21820612   6.000   2.667   8.321  0.3386 -0.1566  0.1381
  180SLPC  H18R20613   5.934   2.731   8.384  0.3441  0.4827 -0.4893
  180SLPC  H18S20614   5.924   2.595   8.284 -1.1363  1.9843 -1.2734
  180SLPC  H18T20615   6.035   2.723   8.232 -1.0789 -1.3207 -1.2102
  180SLPC   C3320616   6.196   2.066   9.957 -0.6383 -0.3168  0.6097
  180SLPC   H3X20617   6.202   2.176   9.940 -1.8648 -0.3444 -0.1151
  180SLPC   H3Y20618   6.095   2.042   9.918 -0.0512  1.3876 -2.2751
  180SLPC   C3420619   6.301   1.994   9.878 -0.5603 -0.3755 -0.0024
  180SLPC   H4X20620   6.296   1.883   9.880  0.6401 -0.4533 -0.1705
  180SLPC   H4Y20621   6.393   2.013   9.939 -0.1250 -1.6639 -0.2214
  180SLPC   C3520622   6.332   2.052   9.740 -0.1285 -0.0047 -0.5221
  180SLPC   H5X20623   6.381   2.152   9.753 -3.0142  1.3574  0.8428
  180SLPC   H5Y20624   6.245   2.065   9.673  1.6018  0.3299 -2.8464
  180SLPC   C3620625   6.419   1.954   9.662 -0.0779  0.4120  0.7402
  180SLPC   H6X20626   6.359   1.861   9.657 -0.0264  0.3167  1.6990
  180SLPC   H6Y20627   6.511   1.931   9.719 -0.1903 -0.6069  0.5219
  180SLPC   C3720628   6.462   1.991   9.519  0.0256  0.3662 -0.3906
  180SLPC   H7X20629   6.529   2.079   9.513 -0.5986  0.8839  0.0808
  180SLPC   H7Y20630   6.376   2.023   9.457 -0.1136  0.3726 -0.1973
  180SLPC   C3820631   6.529   1.871   9.452  0.3437  0.0251 -0.4552
  180SLPC   H8X20632   6.477   1.774   9.459 -1.7746  1.0744 -0.6918
  180SLPC   H8Y20633   6.626   1.842   9.498 -0.1415  1.1741  1.4196
  180SLPC   C3920634   6.560   1.892   9.304 -0.9004  0.2099 -0.3932
  180SLPC   H9X20635   6.654   1.837   9.282  1.0511  2.2455  2.0988
  180SLPC   H9Y20636   6.596   1.998   9.301  2.6769 -0.8659 -0.4839
  180SLPC  C31020637   6.441   1.869   9.205  0.4979 -0.0525  0.4359
  180SLPC  H10X20638   6.353   1.920   9.248  1.0271  0.7439  0.6002
  180SLPC  H10Y20639   6.409   1.762   9.201 -1.6585  0.4832  1.9352
  180SLPC  C31120640   6.474   1.920   9.064 -1.1342 -0.1406  0.1908
  180SLPC  H11X20641   6.576   1.890   9.033 -1.9431 -0.6943 -2.1332
  180SLPC  H11Y20642   6.477   2.031   9.074  0.4351 -0.0889 -0.6141
  180SLPC  C31220643   6.389   1.877   8.949  1.0525  0.2978  0.8295
  180SLPC  H12X20644   6.285   1.913   8.964  1.0946  0.7489  0.0873
  180SLPC  H12Y20645   6.384   1.767   8.935 -2.3556  0.4031  0.2131
  180SLPC  C31320646   6.430   1.936   8.814  0.1842  0.3834 -0.5007
  180SLPC  H13X20647   6.536   1.921   8.782  0.0241 -0.7130 -0.5584
  180SLPC  H13Y20648   6.415   2.046   8.815 -3.9013  0.0010 -1.6925
  180SLPC  C31420649   6.345   1.876   8.694  0.4487 -0.2041 -0.0574
  180SLPC  H14X20650   6.375   1.769   8.688 -2.8798 -1.3202  0.9051
  180SLPC  H14Y20651   6.362   1.926   8.596 -0.3936 -2.7252 -1.5998
  180SLPC  C31520652   6.191   1.869   8.713 -0.2652 -0.2740  0.0730
  180SLPC  H15X20653   6.160   1.971   8.745  5.0201  0.9941  2.1969
  180SLPC  H15Y20654   6.162   1.806   8.801 -0.0088 -1.5917 -0.7695
  180SLPC  C31620655   6.115   1.833   8.588  0.0824  0.1264 -0.7202
  180SLPC  H16X20656   6.149   1.729   8.567  1.5436 -0.3013  2.9243
  180SLPC  H16Y20657   6.142   1.890   8.497 -0.4695 -0.6391 -1.3820
  180SLPC  C31720658   5.966   1.851   8.607  0.4093  0.6536  0.0221
  180SLPC  H17X20659   5.935   1.838   8.501  0.2000  1.8666 -0.0720
  180SLPC  H17Y20660   5.938   1.955   8.633 -2.1582 -0.0660  0.4933
  180SLPC  C31820661   5.896   1.751   8.699 -0.1919  0.1722  0.1069
  180SLPC  H18X20662   5.909   1.798   8.799 -1.4279  1.5981 -0.3598
  180SLPC  H18Y20663   5.943   1.651   8.692 -0.5752  0.0870 -1.6130
  180SLPC  H18Z20664   5.787   1.748   8.679 -0.2478  1.9884 -0.0527
  181SLPC     N20665   2.675   0.061  11.251  0.0957 -0.7130 -0.5127
  181SLPC   C1320666   2.811   0.118  11.288  0.2355  0.2122  0.2547
  181SLPC  H13A20667   2.879   0.035  11.304  0.6004  0.6713  1.1732
  181SLPC  H13B20668   2.842   0.168  11.197  0.3404  0.6720  0.5394
  181SLPC  H13C20669   2.816   0.193  11.366  1.0702  0.3995  0.0310
  181SLPC   C1420670   2.588   0.177  11.255 -0.3139  0.1741  0.0996
  181SLPC  H14A20671   2.584   0.216  11.355  1.9096 -0.0220  0.3099
  181SLPC  H14B20672   2.615   0.259  11.190  3.4394 -0.2794  0.8588
  181SLPC  H14C20673   2.489   0.155  11.217 -0.3154 -0.1435  0.2847
  181SLPC   C1520674   2.636  -0.044  11.349 -0.2233  0.1740  0.1738
  181SLPC  H15A20675   2.531  -0.063  11.336  0.2523 -2.9668  0.1199
  181SLPC  H15B20676   2.696  -0.134  11.344 -1.3170 -0.6999  1.8949
  181SLPC  H15C20677   2.646  -0.003  11.448 -1.4265  0.9889 -0.0316
  181SLPC   C1220678   2.689   0.001  11.109  0.3274 -0.1453  0.4028
  181SLPC  H12A20679   2.591  -0.041  11.092  0.4972  0.3653 -2.3186
  181SLPC  H12B20680   2.760  -0.080  11.109  0.8004  0.2360 -1.3525
  181SLPC   C1120681   2.712   0.095  10.990 -0.7836  0.6362  0.5769
  181SLPC  H11A20682   2.654   0.188  11.006 -1.2722  0.0406  2.5032
  181SLPC  H11B20683   2.666   0.043  10.902  0.8562 -0.2437  0.1868
  181SLPC     P20684   2.937   0.006  10.901 -0.0046 -0.2453  0.3171
  181SLPC   O1320685   3.080   0.052  10.892  0.1587 -0.3268 -0.6642
  181SLPC   O1420686   2.912  -0.117  10.978 -0.0799 -0.2250  0.1541
  181SLPC   O1220687   2.853   0.122  10.964  0.5242  0.1558 -0.0345
  181SLPC   O1120688   2.876  -0.013  10.751 -0.4849  0.4983 -0.4338
  181SLPC    C120689   2.838   0.105  10.677  0.3114  0.3286  0.4378
  181SLPC    HA20690   2.763   0.162  10.735 -0.5927  0.6209 -0.9822
  181SLPC    HB20691   2.918   0.178  10.653  2.8567 -2.8584 -1.6586
  181SLPC    C220692   2.765   0.060  10.545 -0.2878  0.7562  0.0294
  181SLPC    HS20693   2.702  -0.023  10.584 -1.4670  0.7832 -1.7243
  181SLPC   O2120694   2.861   0.006  10.447  0.6354  0.2686 -0.5541
  181SLPC   C2120695   2.825  -0.088  10.365  0.7267  0.4755 -0.4788
  181SLPC   O2220696   2.724  -0.154  10.372  0.5668 -0.5949  0.4022
  181SLPC   C2220697   2.937  -0.119  10.271 -0.0740  0.6553  0.0053
  181SLPC   H2R20698   3.034  -0.070  10.296 -1.0764  1.8545  1.7549
  181SLPC   H2S20699   2.959  -0.227  10.256  2.4033  1.2568 -1.2601
  181SLPC    C320700   2.677   0.163  10.476  0.6382  0.7842 -0.4605
  181SLPC    HX20701   2.753   0.241  10.456  1.3131  0.3049  0.2029
  181SLPC    HY20702   2.604   0.217  10.541  0.0129 -0.6054  0.0489
  181SLPC   O3120703   2.618   0.119  10.354  0.2785  0.3484 -0.7525
  181SLPC   C3120704   2.491   0.059  10.379 -0.0570 -1.0991  0.9786
  181SLPC   O3220705   2.438   0.058  10.487 -0.7481  0.2227  0.3300
  181SLPC   C3220706   2.442  -0.016  10.249  0.3323 -0.2695  0.6414
  181SLPC   H2X20707   2.331  -0.007  10.249  0.2822 -0.7641  1.4906
  181SLPC   H2Y20708   2.459  -0.125  10.259 -0.1937 -0.2909  1.3575
  181SLPC   C2320709   2.903  -0.052  10.132  0.8681 -0.4042  0.2733
  181SLPC   H3R20710   2.870   0.053  10.148  3.0021  0.2292  0.7909
  181SLPC   H3S20711   2.828  -0.112  10.074  0.0122 -0.6790  1.6180
  181SLPC   C2420712   3.019  -0.051  10.038 -0.3516 -0.6570 -0.6271
  181SLPC   H4R20713   3.059  -0.154  10.033 -1.2470 -0.9962 -1.0837
  181SLPC   H4S20714   3.101   0.007  10.084 -0.4714 -0.2822 -0.8800
  181SLPC   C2520715   2.985  -0.006   9.894 -0.1837  0.1750 -0.1029
  181SLPC   H5R20716   2.943   0.097   9.887  0.5558  0.5489  0.7471
  181SLPC   H5S20717   2.903  -0.072   9.858  0.1934  0.2669 -1.1650
  181SLPC   C2620718   3.101  -0.001   9.798 -0.3592 -0.2840 -0.3833
  181SLPC   H6R20719   3.151  -0.098   9.778  0.6741  0.3068 -0.7501
  181SLPC   H6S20720   3.184   0.058   9.842 -1.4402  0.8195  0.2120
  181SLPC   C2720721   3.064   0.028   9.653  0.1787 -0.2067 -0.3632
  181SLPC   H7R20722   2.974  -0.030   9.622  0.6055 -0.4039 -1.2844
  181SLPC   H7S20723   3.145   0.001   9.582  0.1742 -0.5878 -0.2243
  181SLPC   C2820724   3.046   0.183   9.621 -0.4983 -0.1220  0.7407
  181SLPC   H8R20725   3.137   0.243   9.641 -0.7624  0.5474 -0.0446
  181SLPC   H8S20726   2.956   0.209   9.681  0.8180  1.4380  2.1686
  181SLPC   C2920727   2.997   0.193   9.481 -0.3290  0.6601  0.2277
  181SLPC   H9R20728   2.917   0.121   9.459 -0.9448  1.4345 -0.1038
  181SLPC  C21020729   3.035   0.276   9.379 -0.4154  0.2070  0.0252
  181SLPC  H10R20730   2.983   0.270   9.282 -0.7806 -0.0795  0.2349
  181SLPC  C21120731   3.149   0.374   9.388 -0.2673  0.0179 -0.0070
  181SLPC  H11R20732   3.220   0.348   9.306 -0.4376  0.1888 -0.2107
  181SLPC  H11S20733   3.207   0.354   9.480  1.1442 -1.3880 -1.1255
  181SLPC  C21220734   3.112   0.514   9.389  0.5054 -0.3965 -0.7498
  181SLPC  H12R20735   3.028   0.533   9.458  0.8733 -0.6094 -0.2349
  181SLPC  C21320736   3.171   0.612   9.311 -0.4328 -0.2610  0.4755
  181SLPC  H13R20737   3.131   0.713   9.328  1.1928  0.4085  0.5088
  181SLPC  C21420738   3.277   0.591   9.207  0.2532 -0.0249  1.0702
  181SLPC  H14R20739   3.336   0.497   9.208 -0.3978 -0.4375  1.0812
  181SLPC  H14S20740   3.357   0.666   9.226 -0.0965  1.7878 -3.4928
  181SLPC  C21520741   3.229   0.626   9.062 -0.1151  0.5459 -0.7780
  181SLPC  H15R20742   3.312   0.592   8.997 -0.8215 -0.4374 -1.1936
  181SLPC  H15S20743   3.218   0.733   9.034 -0.9064  0.4223 -0.9794
  181SLPC  C21620744   3.107   0.537   9.027  0.5313  0.3986 -0.2976
  181SLPC  H16R20745   3.017   0.580   9.076  0.1371 -0.7063 -0.0129
  181SLPC  H16S20746   3.125   0.438   9.076 -0.8315 -1.8170 -3.8982
  181SLPC  C21720747   3.093   0.531   8.873  0.1372  0.4158  0.0329
  181SLPC  H17R20748   3.173   0.472   8.823 -1.1358 -0.4282 -1.0707
  181SLPC  H17S20749   3.114   0.633   8.835 -1.2999  0.3093 -1.1506
  181SLPC  C21820750   2.953   0.487   8.845  0.0168  0.6516  0.7392
  181SLPC  H18R20751   2.930   0.476   8.737  0.5698  2.6890  0.3845
  181SLPC  H18S20752   2.878   0.562   8.879 -1.0136 -0.6355  1.4271
  181SLPC  H18T20753   2.921   0.394   8.897 -1.7874  0.4253 -0.6464
  181SLPC   C3320754   2.510   0.018  10.113  0.4663 -0.1580 -0.0898
  181SLPC   H3X20755   2.621   0.015  10.112  0.6838  3.6976 -0.2970
  181SLPC   H3Y20756   2.483   0.123  10.091 -0.0368  0.3757  2.7691
  181SLPC   C3420757   2.458  -0.073   9.999  0.0354  0.1902 -0.6294
  181SLPC   H4X20758   2.348  -0.085  10.002 -0.0208  0.7345 -0.3769
  181SLPC   H4Y20759   2.505  -0.170  10.028 -0.6317 -0.6197 -2.1367
  181SLPC   C3520760   2.493  -0.027   9.853  0.4654 -0.3078  0.1529
  181SLPC   H5X20761   2.562   0.058   9.868  0.7258 -0.6354  0.8740
  181SLPC   H5Y20762   2.394   0.005   9.815  0.3159  1.8737  2.1288
  181SLPC   C3620763   2.552  -0.136   9.764  0.5221 -0.1339 -0.3608
  181SLPC   H6X20764   2.477  -0.218   9.763  0.9824 -0.5814  0.6724
  181SLPC   H6Y20765   2.643  -0.174   9.814 -0.2746 -1.6272  0.0051
  181SLPC   C3720766   2.584  -0.073   9.628  0.2000 -0.8382 -0.2101
  181SLPC   H7X20767   2.656   0.012   9.637 -0.4655 -0.3492  0.5686
  181SLPC   H7Y20768   2.494  -0.028   9.581  0.7141  0.3126 -0.1357
  181SLPC   C3820769   2.647  -0.176   9.536  0.1146  0.1542 -0.2976
  181SLPC   H8X20770   2.580  -0.263   9.520 -0.4419  0.9664 -3.0520
  181SLPC   H8Y20771   2.735  -0.214   9.592 -0.5167  1.3819  1.6496
  181SLPC   C3920772   2.705  -0.127   9.401 -0.6038 -0.6016  0.4341
  181SLPC   H9X20773   2.720  -0.222   9.344 -2.0558 -1.2292  1.0330
  181SLPC   H9Y20774   2.799  -0.074   9.424 -0.1448 -1.8579  1.5735
  181SLPC  C31020775   2.612  -0.039   9.308  0.2525  0.3207  0.5976
  181SLPC  H10X20776   2.586   0.052   9.366 -2.4674 -0.0902  0.1511
  181SLPC  H10Y20777   2.518  -0.096   9.291  1.1707 -0.6328 -1.5035
  181SLPC  C31120778   2.680   0.002   9.172  0.1411  0.2144  0.3676
  181SLPC  H11X20779   2.724  -0.089   9.126 -0.4095  0.8372 -1.5144
  181SLPC  H11Y20780   2.768   0.064   9.199  1.0232 -1.4886  1.5190
  181SLPC  C31220781   2.583   0.079   9.073 -0.4995  0.5378 -0.0217
  181SLPC  H12X20782   2.526   0.163   9.118  2.0774  2.1647  0.4338
  181SLPC  H12Y20783   2.514   0.003   9.031 -0.9545  0.5245  0.7325
  181SLPC  C31320784   2.657   0.149   8.958 -0.5839  0.6060 -0.1113
  181SLPC  H13X20785   2.710   0.067   8.905 -2.0114 -0.8046  0.5344
  181SLPC  H13Y20786   2.738   0.219   8.987 -0.7531  0.8709 -0.2790
  181SLPC  C31420787   2.561   0.240   8.870 -0.7729 -0.4618 -0.2269
  181SLPC  H14X20788   2.545   0.335   8.926  1.0082 -0.0395 -0.3582
  181SLPC  H14Y20789   2.470   0.179   8.851 -0.2522 -1.1113 -0.6604
  181SLPC  C31520790   2.628   0.263   8.734 -0.0377 -0.1513 -0.5951
  181SLPC  H15X20791   2.631   0.163   8.686  1.3172 -0.0220 -0.8282
  181SLPC  H15Y20792   2.736   0.286   8.745  0.0721 -1.2270  0.9930
  181SLPC  C31620793   2.562   0.378   8.645 -0.0066  0.2674 -0.3552
  181SLPC  H16X20794   2.639   0.422   8.578  0.1944 -1.5749 -1.4245
  181SLPC  H16Y20795   2.533   0.451   8.723  2.1600  1.0111 -0.1769
  181SLPC  C31720796   2.449   0.326   8.563  0.1470 -0.0531  0.1960
  181SLPC  H17X20797   2.396   0.417   8.528  0.5655 -0.9698 -3.1892
  181SLPC  H17Y20798   2.381   0.274   8.634  1.3682  0.3983  1.7470
  181SLPC  C31820799   2.481   0.242   8.440 -0.5244 -0.5370  0.1589
  181SLPC  H18X20800   2.526   0.151   8.483 -0.3590 -0.1748  0.7664
  181SLPC  H18Y20801   2.552   0.282   8.364 -1.3308  0.4032 -0.1311
  181SLPC  H18Z20802   2.386   0.209   8.391 -0.6251  1.1094 -0.8720
  182SLPC     N20803   1.855   2.627  11.098 -0.1041  0.7251 -0.5889
  182SLPC   C1320804   1.947   2.657  10.988 -0.0360  0.5996  0.6055
  182SLPC  H13A20805   2.046   2.666  11.030  1.7621  1.4979 -3.3013
  182SLPC  H13B20806   1.953   2.572  10.922 -0.4603 -0.6031  2.0607
  182SLPC  H13C20807   1.926   2.757  10.952 -1.5415  0.2804  0.5311
  182SLPC   C1420808   1.878   2.718  11.210  0.0953 -0.2544  0.2062
  182SLPC  H14A20809   1.846   2.819  11.188 -0.1401 -0.6690 -1.4535
  182SLPC  H14B20810   1.828   2.688  11.302  2.7229  0.6321  2.0370
  182SLPC  H14C20811   1.982   2.710  11.236  0.0282 -0.0363  0.5553
  182SLPC   C1520812   1.893   2.491  11.145 -0.6357  0.2150  0.6311
  182SLPC  H15A20813   1.886   2.413  11.070  0.3818  0.5381  0.1861
  182SLPC  H15B20814   1.999   2.492  11.168 -0.8151 -0.5154  1.5346
  182SLPC  H15C20815   1.832   2.471  11.232  0.4041  0.7748  1.5150
  182SLPC   C1220816   1.710   2.624  11.064  0.1845  0.1242 -0.2816
  182SLPC  H12A20817   1.654   2.641  11.154  0.5414 -0.0956 -0.0137
  182SLPC  H12B20818   1.691   2.530  11.014  0.3950  0.8041 -1.6954
  182SLPC   C1120819   1.667   2.728  10.953 -0.4461 -0.1574 -0.2897
  182SLPC  H11A20820   1.707   2.824  10.993 -0.0643  0.5838 -2.3149
  182SLPC  H11B20821   1.557   2.735  10.941 -0.5103  2.0324  0.9837
  182SLPC     P20822   1.749   2.830  10.726  0.4033 -0.1790  0.2809
  182SLPC   O1320823   1.754   2.954  10.805  0.4495 -0.0753 -0.4345
  182SLPC   O1420824   1.865   2.796  10.635 -0.2937  0.1110 -0.2257
  182SLPC   O1220825   1.733   2.708  10.824 -0.3224  0.0425  0.1201
  182SLPC   O1120826   1.615   2.828  10.635 -0.5626  0.0368  0.2666
  182SLPC    C120827   1.529   2.713  10.638 -0.1007  0.4312 -0.1968
  182SLPC    HA20828   1.581   2.616  10.656  0.1175  0.9062  2.0439
  182SLPC    HB20829   1.458   2.730  10.722 -0.6693  1.9241 -0.9600
  182SLPC    C220830   1.444   2.687  10.514 -0.3275 -0.3670  0.0569
  182SLPC    HS20831   1.380   2.597  10.533 -0.8108 -0.5285 -2.1034
  182SLPC   O2120832   1.525   2.661  10.396  0.4561  0.1913 -0.1886
  182SLPC   C2120833   1.471   2.576  10.311 -0.1382  0.1700 -0.2467
  182SLPC   O2220834   1.362   2.524  10.321  0.1800 -0.1494  0.4820
  182SLPC   C2220835   1.562   2.575  10.185  0.6321  0.2659  0.4055
  182SLPC   H2R20836   1.559   2.680  10.148 -1.0896  0.4833  1.0982
  182SLPC   H2S20837   1.668   2.550  10.210  0.6842  0.2868  0.2085
  182SLPC    C320838   1.350   2.805  10.501  0.2700  0.1823  0.5290
  182SLPC    HX20839   1.403   2.898  10.532 -1.0136  1.1601 -0.0922
  182SLPC    HY20840   1.276   2.772  10.578  0.0696  0.6738  0.5494
  182SLPC   O3120841   1.302   2.819  10.366  0.0015  0.6103  0.5086
  182SLPC   C3120842   1.168   2.807  10.340  0.1406  0.7376 -0.2200
  182SLPC   O3220843   1.084   2.793  10.424 -0.2144 -0.1060 -0.4984
  182SLPC   C3220844   1.134   2.815  10.194  0.2198 -0.6743 -0.1398
  182SLPC   H2X20845   1.131   2.914  10.144  1.5602 -0.7703 -0.4605
  182SLPC   H2Y20846   1.028   2.785  10.179  0.5876 -1.5193 -1.2437
  182SLPC   C2320847   1.506   2.477  10.073 -0.1211  0.4771 -0.1472
  182SLPC   H3R20848   1.397   2.494  10.060  0.2281  3.0693 -0.2253
  182SLPC   H3S20849   1.522   2.377  10.118 -1.1240  0.9306  1.2892
  182SLPC   C2420850   1.579   2.480   9.939  0.3420  0.1775  0.3690
  182SLPC   H4R20851   1.687   2.481   9.963  0.1312  0.8398  1.3833
  182SLPC   H4S20852   1.557   2.572   9.880  0.1194 -2.1636 -3.5505
  182SLPC   C2520853   1.531   2.369   9.845  0.8622  0.0997 -0.3282
  182SLPC   H5R20854   1.420   2.365   9.839  0.8784  0.0827 -0.6306
  182SLPC   H5S20855   1.577   2.276   9.884  2.7947  2.1482  2.7576
  182SLPC   C2620856   1.568   2.382   9.691 -0.9566 -0.3011 -0.2211
  182SLPC   H6R20857   1.647   2.460   9.690  1.5831 -2.5711  2.7852
  182SLPC   H6S20858   1.479   2.414   9.633 -0.5174 -1.1334 -1.3795
  182SLPC   C2720859   1.624   2.255   9.627 -0.1288 -0.1979  0.4242
  182SLPC   H7R20860   1.634   2.266   9.516 -1.4145  1.3302  0.4296
  182SLPC   H7S20861   1.548   2.175   9.642  0.8258 -1.0055  1.0490
  182SLPC   C2820862   1.753   2.199   9.686  0.6233  0.2309  0.3180
  182SLPC   H8R20863   1.784   2.122   9.612  1.4839  0.9949 -0.1296
  182SLPC   H8S20864   1.727   2.151   9.783  0.5179  1.0988  0.7261
  182SLPC   C2920865   1.866   2.299   9.695 -0.7266  0.4660  0.7836
  182SLPC   H9R20866   1.845   2.380   9.767 -1.2673 -0.2572  1.4503
  182SLPC  C21020867   1.985   2.293   9.630 -0.4414  0.5157 -0.6265
  182SLPC  H10R20868   2.059   2.372   9.650 -0.3135  0.1329  0.5571
  182SLPC  C21120869   2.032   2.183   9.541  0.2438 -0.6107  0.2625
  182SLPC  H11R20870   2.108   2.225   9.471 -0.6616  0.2719 -0.2160
  182SLPC  H11S20871   1.944   2.161   9.477 -0.2043  0.0277  0.6485
  182SLPC  C21220872   2.074   2.052   9.604 -0.0001 -0.0929  0.5589
  182SLPC  H12R20873   2.023   1.964   9.561  0.9113 -0.5803  0.4414
  182SLPC  C21320874   2.175   2.035   9.695 -1.0236  0.0529 -0.9999
  182SLPC  H13R20875   2.181   1.932   9.732 -1.2692 -0.3461 -2.0275
  182SLPC  C21420876   2.265   2.135   9.762  0.3891 -0.1192 -0.5529
  182SLPC  H14R20877   2.233   2.240   9.745  0.0820 -0.2648 -0.8701
  182SLPC  H14S20878   2.372   2.132   9.730  1.0866 -0.0047  1.5889
  182SLPC  C21520879   2.268   2.106   9.911  0.1938 -0.7098  1.0584
  182SLPC  H15R20880   2.303   2.001   9.908  2.6667  0.0729 -0.8267
  182SLPC  H15S20881   2.170   2.119   9.963  1.0056 -0.2103  2.5278
  182SLPC  C21620882   2.370   2.190   9.979 -0.2101  0.1878 -0.2437
  182SLPC  H16R20883   2.355   2.168  10.087 -1.2519  1.9175 -0.0022
  182SLPC  H16S20884   2.346   2.298   9.975  0.1995  0.4129  1.9453
  182SLPC  C21720885   2.516   2.167   9.938  0.4296 -0.0169  0.1802
  182SLPC  H17R20886   2.534   2.181   9.830  0.2178 -3.3955 -0.4029
  182SLPC  H17S20887   2.533   2.058   9.956  2.5364 -0.1669 -2.2569
  182SLPC  C21820888   2.606   2.265  10.005 -0.2431  0.0381 -0.1022
  182SLPC  H18R20889   2.702   2.265   9.948 -1.1356 -1.3300 -1.6851
  182SLPC  H18S20890   2.634   2.238  10.109  0.5977 -2.1052 -0.8300
  182SLPC  H18T20891   2.591   2.375  10.006 -0.1379  0.0975 -1.7165
  182SLPC   C3320892   1.217   2.722  10.111  0.2363 -0.2228  0.0269
  182SLPC   H3X20893   1.205   2.613  10.129 -0.8857  0.0395  1.0058
  182SLPC   H3Y20894   1.326   2.741  10.120  0.3355 -1.2296  1.2690
  182SLPC   C3420895   1.194   2.754   9.960 -0.1568  0.1022 -0.8346
  182SLPC   H4X20896   1.221   2.861   9.947 -0.3562  0.4583  1.3766
  182SLPC   H4Y20897   1.086   2.740   9.939 -0.3527  0.6825 -0.2603
  182SLPC   C3520898   1.261   2.656   9.854  0.3140  0.1018  0.1757
  182SLPC   H5X20899   1.226   2.556   9.886 -2.6135  0.8664 -0.3070
  182SLPC   H5Y20900   1.371   2.664   9.868  0.1503  1.2987  0.8645
  182SLPC   C3620901   1.216   2.684   9.712 -0.2115 -0.9064  0.6542
  182SLPC   H6X20902   1.232   2.793   9.706 -0.6705 -0.9077 -1.0768
  182SLPC   H6Y20903   1.111   2.652   9.696 -0.5362  0.8776 -0.9826
  182SLPC   C3720904   1.297   2.614   9.598  0.4313 -0.0480 -0.2388
  182SLPC   H7X20905   1.266   2.509   9.617 -0.6976  0.3438  0.1467
  182SLPC   H7Y20906   1.405   2.626   9.620  0.8973 -2.9285 -0.4543
  182SLPC   C3820907   1.262   2.670   9.451 -0.5748 -0.1734 -0.4543
  182SLPC   H8X20908   1.311   2.768   9.435 -2.0699  0.6615 -0.1426
  182SLPC   H8Y20909   1.152   2.687   9.449 -0.5182  0.3193 -2.7967
  182SLPC   C3920910   1.317   2.577   9.339 -0.1370 -0.4047 -0.1730
  182SLPC   H9X20911   1.251   2.488   9.338  0.8993 -1.1819 -0.9312
  182SLPC   H9Y20912   1.423   2.546   9.352 -0.4282 -0.4588  2.4545
  182SLPC  C31020913   1.313   2.629   9.191 -0.1469  0.0674  0.1471
  182SLPC  H10X20914   1.381   2.717   9.194  0.0372 -0.0433 -0.6080
  182SLPC  H10Y20915   1.208   2.653   9.165  0.0388  0.2225 -0.4744
  182SLPC  C31120916   1.368   2.529   9.093 -0.7378  0.1793  0.2365
  182SLPC  H11X20917   1.320   2.429   9.108 -2.0585  0.9585  1.5755
  182SLPC  H11Y20918   1.478   2.517   9.088 -0.8069  0.0627 -1.2260
  182SLPC  C31220919   1.332   2.575   8.959 -0.1281  0.0557 -0.5766
  182SLPC  H12X20920   1.362   2.680   8.940  0.1038  0.3799  1.3758
  182SLPC  H12Y20921   1.222   2.562   8.950 -0.3051 -0.7940  1.8942
  182SLPC  C31320922   1.389   2.493   8.846  0.0494  0.6866  0.0811
  182SLPC  H13X20923   1.393   2.384   8.869  0.6500  0.9137  1.1193
  182SLPC  H13Y20924   1.494   2.525   8.831  0.0362  0.5842 -0.2398
  182SLPC  C31420925   1.313   2.514   8.710  0.6181  0.3748 -0.8949
  182SLPC  H14X20926   1.206   2.491   8.727  0.6407  0.3790 -0.7522
  182SLPC  H14Y20927   1.347   2.434   8.641 -0.4989  0.2909 -1.3652
  182SLPC  C31520928   1.328   2.651   8.657 -0.3920  0.6590 -0.1288
  182SLPC  H15X20929   1.418   2.697   8.702 -0.3076  0.5455 -0.1805
  182SLPC  H15Y20930   1.238   2.709   8.687 -1.9731 -2.1370  0.9459
  182SLPC  C31620931   1.344   2.658   8.499 -0.2819 -0.1525  0.0750
  182SLPC  H16X20932   1.447   2.621   8.485 -0.5060 -0.8205  0.1673
  182SLPC  H16Y20933   1.336   2.765   8.469  0.4382  0.1509  0.9426
  182SLPC  C31720934   1.252   2.574   8.414  0.3254  0.0266 -0.0077
  182SLPC  H17X20935   1.262   2.467   8.442  0.0360 -0.5498 -1.9343
  182SLPC  H17Y20936   1.299   2.581   8.314  3.1071 -0.2251  1.2014
  182SLPC  C31820937   1.101   2.605   8.412  0.4339 -0.8766  0.2211
  182SLPC  H18X20938   1.043   2.535   8.347  0.2773 -1.3813  0.8978
  182SLPC  H18Y20939   1.070   2.702   8.368  2.4729 -0.1366  0.3120
  182SLPC  H18Z20940   1.063   2.596   8.516  2.0118  0.1019  0.9055
  183SLPC     N20941   0.546   4.248  10.783 -0.1835  0.0019  0.2619
  183SLPC   C1320942   0.414   4.318  10.803  0.1037  0.3708  0.1100
  183SLPC  H13A20943   0.336   4.272  10.744  1.3322  0.0828 -1.3656
  183SLPC  H13B20944   0.395   4.317  10.909  0.5391 -0.7060  0.1876
  183SLPC  H13C20945   0.412   4.425  10.786  2.5689  0.4183 -0.2548
  183SLPC   C1420946   0.564   4.244  10.639 -0.5423 -0.2582  0.4136
  183SLPC  H14A20947   0.512   4.171  10.578 -0.6413 -0.8851  1.2367
  183SLPC  H14B20948   0.572   4.346  10.605  0.6875  0.0702  1.6076
  183SLPC  H14C20949   0.666   4.219  10.612 -0.8697 -1.8449  0.5540
  183SLPC   C1520950   0.537   4.107  10.831  0.2852  0.2072 -0.0198
  183SLPC  H15A20951   0.519   4.098  10.937 -0.6953  0.6486 -0.1458
  183SLPC  H15B20952   0.452   4.059  10.785 -1.7187  3.0652  0.4665
  183SLPC  H15C20953   0.624   4.047  10.806  0.6592  0.0277  1.5857
  183SLPC   C1220954   0.651   4.320  10.866 -0.1270  0.1103 -0.0699
  183SLPC  H12A20955   0.631   4.308  10.971  2.0033 -2.4051  0.1676
  183SLPC  H12B20956   0.644   4.424  10.839 -0.3034 -0.1339 -1.0275
  183SLPC   C1120957   0.799   4.276  10.837  0.0663  0.2433 -0.0045
  183SLPC  H11A20958   0.799   4.165  10.840  0.2885  0.2564  0.7467
  183SLPC  H11B20959   0.868   4.311  10.917  0.5878 -0.9329  0.0895
  183SLPC     P20960   0.956   4.263  10.638 -0.2876 -0.3491  0.3333
  183SLPC   O1320961   1.085   4.300  10.704 -0.4819  0.9628 -1.3100
  183SLPC   O1420962   0.931   4.126  10.609 -0.2612 -0.0705  0.2037
  183SLPC   O1220963   0.835   4.321  10.709  0.0835  0.9110 -0.3575
  183SLPC   O1120964   0.951   4.345  10.504 -0.2533  0.3491 -0.0190
  183SLPC    C120965   1.029   4.452  10.462 -0.4191 -0.5345  0.2831
  183SLPC    HA20966   0.966   4.537  10.427  1.7260  0.8114 -0.4715
  183SLPC    HB20967   1.085   4.493  10.549 -3.1167  4.0470  0.1959
  183SLPC    C220968   1.123   4.416  10.342 -0.2755 -0.4989 -0.4707
  183SLPC    HS20969   1.197   4.493  10.312 -0.0172  0.1934  1.7570
  183SLPC   O2120970   1.060   4.372  10.222 -0.0781 -0.0600 -0.3206
  183SLPC   C2120971   1.002   4.477  10.156 -0.3560 -0.1368  0.0975
  183SLPC   O2220972   1.028   4.592  10.181  0.2359 -0.0676 -0.9397
  183SLPC   C2220973   0.915   4.425  10.041  0.1996 -0.1731 -0.7276
  183SLPC   H2R20974   0.900   4.317  10.062 -0.1511 -0.0535 -0.3536
  183SLPC   H2S20975   0.815   4.468  10.065  0.3397 -0.7693  1.0511
  183SLPC    C320976   1.219   4.305  10.379 -0.4171  0.4453  0.2353
  183SLPC    HX20977   1.162   4.210  10.369  1.1088 -0.5460  0.5349
  183SLPC    HY20978   1.257   4.311  10.483  1.8683 -0.3282 -0.5021
  183SLPC   O3120979   1.339   4.314  10.304 -0.3557  0.6338 -0.0347
  183SLPC   C3120980   1.417   4.215  10.322 -1.2658  0.3767 -0.2124
  183SLPC   O3220981   1.402   4.115  10.388  0.3902 -0.4219  0.4582
  183SLPC   C3220982   1.550   4.242  10.253  0.8874 -0.2630  0.3628
  183SLPC   H2X20983   1.621   4.179  10.312  0.1722  1.1355  2.8328
  183SLPC   H2Y20984   1.583   4.344  10.279 -0.9835  0.5510 -0.2640
  183SLPC   C2320985   0.973   4.450   9.898  0.2663  0.2720  0.5691
  183SLPC   H3R20986   1.006   4.555   9.888 -1.6302  0.7922 -0.6518
  183SLPC   H3S20987   0.906   4.434   9.811  0.0460  0.3159  0.7305
  183SLPC   C2420988   1.099   4.363   9.873  0.1468 -0.1498 -0.6548
  183SLPC   H4R20989   1.066   4.260   9.900 -2.2411  0.1805 -2.0240
  183SLPC   H4S20990   1.175   4.374   9.953 -1.7946  2.3120  0.9542
  183SLPC   C2520991   1.166   4.370   9.730  0.6949 -0.0716 -0.2500
  183SLPC   H5R20992   1.204   4.475   9.729  0.7798 -0.1032 -0.3823
  183SLPC   H5S20993   1.080   4.355   9.662 -1.0073 -3.5505  2.3439
  183SLPC   C2620994   1.280   4.266   9.711 -0.0059  0.3711  0.0599
  183SLPC   H6R20995   1.233   4.165   9.722  1.0223 -0.0332  0.9338
  183SLPC   H6S20996   1.353   4.249   9.793 -1.2444 -0.5892  1.0296
  183SLPC   C2720997   1.364   4.291   9.578  0.0982  0.0308 -0.2991
  183SLPC   H7R20998   1.430   4.202   9.562 -0.3184 -0.4890  0.7304
  183SLPC   H7S20999   1.433   4.374   9.605  1.5324 -0.8532 -1.1102
  183SLPC   C2821000   1.284   4.325   9.448  0.9862 -0.4718  0.1216
  183SLPC   H8R21001   1.210   4.406   9.462 -0.0735 -1.4388  0.2454
  183SLPC   H8S21002   1.228   4.232   9.426 -0.6604  0.0935  1.6295
  183SLPC   C2921003   1.393   4.367   9.350  0.2108  0.7455  0.3922
  183SLPC   H9R21004   1.470   4.438   9.383  1.5626 -0.7531  0.5722
  183SLPC  C21021005   1.407   4.310   9.224 -0.6255  0.8110  0.2423
  183SLPC  H10R21006   1.480   4.334   9.145  0.6531 -0.6881  0.9072
  183SLPC  C21121007   1.324   4.188   9.170 -0.0255 -0.2938  0.0317
  183SLPC  H11R21008   1.216   4.214   9.162 -0.5475 -2.3019  0.1691
  183SLPC  H11S21009   1.312   4.108   9.245 -0.5307 -2.4209 -2.2108
  183SLPC  C21221010   1.371   4.124   9.041 -0.8517 -0.7018 -0.8641
  183SLPC  H12R21011   1.417   4.026   9.060 -1.1463 -1.3349 -3.1288
  183SLPC  C21321012   1.353   4.169   8.918 -0.2776 -0.1267  0.1383
  183SLPC  H13R21013   1.393   4.109   8.835 -2.2178 -0.8313 -0.3284
  183SLPC  C21421014   1.284   4.296   8.883 -0.0289 -0.3342  0.2795
  183SLPC  H14R21015   1.252   4.347   8.977 -2.2712  1.1814 -1.1895
  183SLPC  H14S21016   1.198   4.282   8.814 -0.5723  2.2541  0.3344
  183SLPC  C21521017   1.381   4.401   8.812  0.4045 -0.0387  0.9668
  183SLPC  H15R21018   1.475   4.417   8.868  1.8229 -0.5675 -1.1551
  183SLPC  H15S21019   1.330   4.498   8.795 -1.0243 -0.7778  0.8550
  183SLPC  C21621020   1.424   4.350   8.668 -0.0824  0.8113 -0.5015
  183SLPC  H16R21021   1.333   4.315   8.614 -0.7484  0.1317  1.0086
  183SLPC  H16S21022   1.495   4.265   8.681  0.3125  1.4819  2.2078
  183SLPC  C21721023   1.481   4.456   8.576  0.4331  0.3895 -1.0307
  183SLPC  H17R21024   1.572   4.493   8.627 -0.8120  2.3484 -0.0938
  183SLPC  H17S21025   1.404   4.536   8.566  0.4228  0.8483  1.9080
  183SLPC  C21821026   1.514   4.412   8.433  0.1518  0.3281 -0.3323
  183SLPC  H18R21027   1.558   4.496   8.376  0.8562 -0.4024 -0.8959
  183SLPC  H18S21028   1.426   4.369   8.381  0.2915  0.7469 -0.9229
  183SLPC  H18T21029   1.595   4.337   8.428 -0.1863 -0.0130 -0.7017
  183SLPC   C3321030   1.566   4.206  10.105 -0.6823  0.0056  0.3720
  183SLPC   H3X21031   1.483   4.138  10.078 -0.2019 -0.4151 -0.0643
  183SLPC   H3Y21032   1.655   4.139  10.103 -0.9610 -0.4837  2.1218
  183SLPC   C3421033   1.588   4.324  10.019  0.2167 -0.9320 -0.2223
  183SLPC   H4X21034   1.636   4.401  10.083  0.6156 -2.7419  1.7300
  183SLPC   H4Y21035   1.489   4.360   9.984  1.0000  1.7179  0.0424
  183SLPC   C3521036   1.674   4.282   9.905 -0.5384  0.2508 -0.2280
  183SLPC   H5X21037   1.620   4.207   9.842 -1.1844  1.9785 -1.8171
  183SLPC   H5Y21038   1.773   4.239   9.930 -0.6569 -0.6219 -1.1778
  183SLPC   C3621039   1.696   4.390   9.794 -0.3023 -0.7304 -0.5849
  183SLPC   H6X21040   1.757   4.466   9.849 -0.3718 -0.1410 -1.3050
  183SLPC   H6Y21041   1.597   4.439   9.780  0.0298  1.1482  2.5119
  183SLPC   C3721042   1.769   4.342   9.673  0.0818 -0.3993  0.2208
  183SLPC   H7X21043   1.741   4.235   9.672  2.4667 -1.0850  1.3165
  183SLPC   H7Y21044   1.878   4.361   9.667  0.1432 -0.7124  0.3532
  183SLPC   C3821045   1.724   4.398   9.536 -0.0507  0.1380  0.2979
  183SLPC   H8X21046   1.749   4.506   9.543  1.7266 -0.2016 -0.2642
  183SLPC   H8Y21047   1.615   4.390   9.518  0.2416  1.2500 -2.4749
  183SLPC   C3921048   1.788   4.334   9.413  0.2860 -0.1060 -0.2343
  183SLPC   H9X21049   1.747   4.231   9.414  0.7461 -0.2943  1.0953
  183SLPC   H9Y21050   1.899   4.330   9.422  0.3534  2.8784  1.5397
  183SLPC  C31021051   1.769   4.404   9.276  0.9446 -0.0765  0.0121
  183SLPC  H10X21052   1.825   4.498   9.257  0.8700 -0.3964 -2.1068
  183SLPC  H10Y21053   1.662   4.433   9.267  1.1284  0.9172  0.9213
  183SLPC  C31121054   1.799   4.313   9.157  0.4982  0.3552  0.3138
  183SLPC  H11X21055   1.736   4.224   9.172  1.2827 -0.1728  0.5429
  183SLPC  H11Y21056   1.905   4.281   9.161  0.7270  1.0092 -0.1859
  183SLPC  C31221057   1.763   4.368   9.022  0.7630 -0.5012  0.3845
  183SLPC  H12X21058   1.724   4.472   9.027  0.3426 -0.6612  0.4655
  183SLPC  H12Y21059   1.686   4.299   8.979  0.1647  0.2494  0.2275
  183SLPC  C31321060   1.886   4.354   8.921  0.3890 -0.0811  0.1776
  183SLPC  H13X21061   1.918   4.247   8.921  1.2535  0.1020 -2.3354
  183SLPC  H13Y21062   1.959   4.429   8.958 -0.2159  0.1434  0.9398
  183SLPC  C31421063   1.861   4.394   8.785 -0.5891 -0.1309  0.4022
  183SLPC  H14X21064   1.798   4.486   8.776 -1.9739 -0.9200  1.4879
  183SLPC  H14Y21065   1.798   4.314   8.741  0.5407 -0.6904 -0.2100
  183SLPC  C31521066   1.982   4.420   8.692 -0.2961  0.0460 -0.2245
  183SLPC  H15X21067   2.036   4.323   8.693 -0.7038 -0.2381  2.2601
  183SLPC  H15Y21068   2.032   4.500   8.752 -1.0491 -2.2349  3.8424
  183SLPC  C31621069   1.935   4.458   8.556 -0.4967 -0.2257 -0.0078
  183SLPC  H16X21070   1.841   4.406   8.527 -0.5428 -0.4799  0.5989
  183SLPC  H16Y21071   2.004   4.417   8.479 -2.1703 -2.5873 -0.3658
  183SLPC  C31721072   1.919   4.611   8.541  0.4559 -0.1368 -0.7721
  183SLPC  H17X21073   2.023   4.647   8.558  1.2374 -1.8674 -1.5289
  183SLPC  H17Y21074   1.862   4.655   8.625 -0.2184  0.0105 -1.3025
  183SLPC  C31821075   1.859   4.654   8.412  0.5823  0.4139  0.4659
  183SLPC  H18X21076   1.821   4.758   8.404  1.2002  0.7128  1.2768
  183SLPC  H18Y21077   1.783   4.584   8.373 -0.9576  1.9531  0.5785
  183SLPC  H18Z21078   1.944   4.656   8.340  0.5551 -1.0792  0.3726
  184SLPC     N21079   3.756   2.200  10.487  0.4301  0.0737 -0.1092
  184SLPC   C1321080   3.706   2.156  10.620  0.4383  0.2787  0.4257
  184SLPC  H13A21081   3.788   2.104  10.668  1.5985  0.8541 -0.8455
  184SLPC  H13B21082   3.677   2.238  10.683 -0.4124  1.0594 -0.9288
  184SLPC  H13C21083   3.628   2.081  10.609  1.8379 -1.4710  1.7825
  184SLPC   C1421084   3.875   2.281  10.510  0.6759  0.0330  0.2284
  184SLPC  H14A21085   3.952   2.220  10.555  0.4494 -0.0575  0.4931
  184SLPC  H14B21086   3.911   2.321  10.416 -0.4128  0.7911  0.1199
  184SLPC  H14C21087   3.865   2.363  10.580 -0.8745  0.0673 -0.0031
  184SLPC   C1521088   3.642   2.282  10.429 -0.4235  0.0223 -0.4182
  184SLPC  H15A21089   3.610   2.354  10.503  1.9654  0.7070  0.0635
  184SLPC  H15B21090   3.665   2.351  10.349  2.8410  0.0682  0.4177
  184SLPC  H15C21091   3.568   2.209  10.399  1.0081 -0.2475 -3.7647
  184SLPC   C1221092   3.796   2.087  10.393  0.1237 -0.3501 -0.1834
  184SLPC  H12A21093   3.872   2.032  10.446 -1.0318  0.1433  2.1209
  184SLPC  H12B21094   3.846   2.123  10.304  1.0727  1.9356  1.1794
  184SLPC   C1121095   3.692   1.981  10.357  0.0430  0.5875 -0.1572
  184SLPC  H11A21096   3.730   1.916  10.275 -1.5017 -1.4441  0.6724
  184SLPC  H11B21097   3.601   2.021  10.308 -1.1342 -1.2119  0.4777
  184SLPC     P21098   3.750   1.763  10.496  0.0081  0.2750 -0.1439
  184SLPC   O1321099   3.886   1.817  10.479 -0.0586 -0.4851 -0.1807
  184SLPC   O1421100   3.722   1.692  10.623  0.2360  0.7884  0.0714
  184SLPC   O1221101   3.654   1.892  10.468  0.1477 -0.0884 -0.1225
  184SLPC   O1121102   3.716   1.672  10.379 -0.3751  0.5986  0.3703
  184SLPC    C121103   3.614   1.574  10.375  0.0942  1.3246 -0.9093
  184SLPC    HA21104   3.633   1.498  10.454  0.2304  1.7922 -0.4878
  184SLPC    HB21105   3.514   1.609  10.410  0.3932  0.6787  0.7119
  184SLPC    C221106   3.593   1.530  10.234  0.1215 -0.2518 -0.0666
  184SLPC    HS21107   3.515   1.452  10.237 -1.0866  0.9591  1.4501
  184SLPC   O2121108   3.716   1.498  10.167 -0.0666 -0.0098  0.1639
  184SLPC   C2121109   3.759   1.381  10.201 -0.1069  0.5484 -0.5572
  184SLPC   O2221110   3.700   1.289  10.257  0.3498 -0.0954 -1.0015
  184SLPC   C2221111   3.898   1.364  10.148  1.0172 -0.1592 -0.3268
  184SLPC   H2R21112   3.978   1.411  10.209  0.5645 -0.7231  0.7278
  184SLPC   H2S21113   3.910   1.254  10.159  0.1294 -0.1924  0.4337
  184SLPC    C321114   3.539   1.653  10.146 -0.3597  0.5105 -0.2693
  184SLPC    HX21115   3.595   1.747  10.164 -3.0606  1.8175  2.0522
  184SLPC    HY21116   3.437   1.685  10.173 -0.1962  0.2647  0.6556
  184SLPC   O3121117   3.533   1.614  10.005  0.5792  0.3100 -0.1194
  184SLPC   C3121118   3.627   1.658   9.923  0.5755 -0.0932  0.0872
  184SLPC   O3221119   3.713   1.745   9.946  0.0077 -0.5341  0.0791
  184SLPC   C3221120   3.613   1.575   9.797 -0.3756 -0.5547 -0.5713
  184SLPC   H2X21121   3.511   1.587   9.754 -0.9203 -1.9796  0.2612
  184SLPC   H2Y21122   3.636   1.471   9.827  3.1546  0.6490  1.4761
  184SLPC   C2321123   3.917   1.404   9.999  0.0366  0.2120  0.2531
  184SLPC   H3R21124   3.878   1.508   9.992 -1.4258 -0.0613  3.0804
  184SLPC   H3S21125   3.843   1.356   9.931  1.1763 -1.1817 -0.0456
  184SLPC   C2421126   4.056   1.394   9.940 -0.1957  0.2082 -0.9182
  184SLPC   H4R21127   4.084   1.286   9.935  0.5954  0.2868  1.0944
  184SLPC   H4S21128   4.119   1.448  10.014  3.7527 -2.7290 -1.8152
  184SLPC   C2521129   4.072   1.454   9.799  0.3512 -0.4050 -0.0975
  184SLPC   H5R21130   4.027   1.555   9.798 -3.1294 -1.8237  0.5594
  184SLPC   H5S21131   4.007   1.385   9.740  1.1008 -2.0830  0.9418
  184SLPC   C2621132   4.215   1.462   9.744  0.0316  0.4031 -0.5901
  184SLPC   H6R21133   4.255   1.360   9.761  0.9276  0.4270 -2.2718
  184SLPC   H6S21134   4.269   1.533   9.810 -1.6672  0.2475  1.0306
  184SLPC   C2721135   4.241   1.487   9.597 -0.2406 -0.0069 -0.0522
  184SLPC   H7R21136   4.349   1.508   9.584 -0.6199  2.3000 -0.0319
  184SLPC   H7S21137   4.201   1.587   9.568 -1.3015  0.1074  1.6540
  184SLPC   C2821138   4.201   1.379   9.496 -0.5159 -0.1418 -0.3891
  184SLPC   H8R21139   4.220   1.282   9.548 -0.6878  0.5134  0.9352
  184SLPC   H8S21140   4.283   1.385   9.421  0.5976 -1.4627  0.6495
  184SLPC   C2921141   4.071   1.385   9.427  1.1986 -0.1246  0.0979
  184SLPC   H9R21142   3.998   1.433   9.494  0.2407 -2.1512  0.5797
  184SLPC  C21021143   4.035   1.355   9.303 -0.0318  0.2400 -0.5592
  184SLPC  H10R21144   3.931   1.373   9.271 -0.3758 -1.0295 -0.2221
  184SLPC  C21121145   4.125   1.294   9.206 -0.2162 -0.3501  0.3478
  184SLPC  H11R21146   4.065   1.209   9.168  2.3062 -1.5218 -1.2583
  184SLPC  H11S21147   4.216   1.244   9.246  0.2766 -0.0265 -0.3409
  184SLPC  C21221148   4.171   1.386   9.091  0.5421 -0.8281  0.8433
  184SLPC  H12R21149   4.160   1.492   9.116 -3.1655 -0.8186 -0.1971
  184SLPC  C21321150   4.181   1.351   8.959 -0.1508 -0.8709 -0.2409
  184SLPC  H13R21151   4.195   1.423   8.877 -1.5450 -0.2468  0.0383
  184SLPC  C21421152   4.153   1.212   8.906 -0.2370  0.2885 -0.2781
  184SLPC  H14R21153   4.071   1.216   8.832 -1.2415  2.9569  0.8430
  184SLPC  H14S21154   4.104   1.151   8.985 -1.2349 -0.4455 -1.4357
  184SLPC  C21521155   4.274   1.133   8.858 -0.0770  0.2149 -0.0156
  184SLPC  H15R21156   4.243   1.027   8.849  0.2745  0.2161 -1.5491
  184SLPC  H15S21157   4.348   1.115   8.939 -3.6713 -3.2979  2.8837
  184SLPC  C21621158   4.338   1.192   8.734  0.7276 -0.6952  0.2125
  184SLPC  H16R21159   4.388   1.289   8.751  3.3294 -1.0931 -3.8613
  184SLPC  H16S21160   4.254   1.219   8.667  0.5755 -1.1906  0.2009
  184SLPC  C21721161   4.446   1.107   8.669 -0.0272  0.3056 -0.5686
  184SLPC  H17R21162   4.395   1.017   8.628 -2.5299  0.0623  2.6220
  184SLPC  H17S21163   4.521   1.086   8.748 -0.3569  1.1729 -0.0096
  184SLPC  C21821164   4.524   1.171   8.552 -0.1885 -0.1008  0.4010
  184SLPC  H18R21165   4.462   1.171   8.461 -1.4448  0.6928  1.2282
  184SLPC  H18S21166   4.619   1.114   8.538  0.0347  0.2105  0.6191
  184SLPC  H18T21167   4.537   1.279   8.572  0.4958 -0.2714  0.9462
  184SLPC   C3321168   3.706   1.615   9.684 -0.4404  0.1563  0.3824
  184SLPC   H3X21169   3.802   1.564   9.710  0.0228  1.3573  1.1284
  184SLPC   H3Y21170   3.733   1.723   9.681  0.1028  0.0722  1.7446
  184SLPC   C3421171   3.663   1.553   9.544  0.3553  0.2675 -0.7438
  184SLPC   H4X21172   3.556   1.577   9.528 -0.4814 -1.7307  1.3685
  184SLPC   H4Y21173   3.670   1.443   9.557 -2.6499  0.0449 -0.3170
  184SLPC   C3521174   3.750   1.610   9.434  0.0272  0.2997  0.3087
  184SLPC   H5X21175   3.857   1.592   9.458 -0.3048 -0.4662  1.2857
  184SLPC   H5Y21176   3.735   1.720   9.425  0.5338  0.3611  0.1448
  184SLPC   C3621177   3.706   1.562   9.292 -0.3066  0.8296  0.5564
  184SLPC   H6X21178   3.595   1.557   9.301 -0.2324 -3.1617  0.9953
  184SLPC   H6Y21179   3.722   1.453   9.286 -1.5435  0.5588  1.5648
  184SLPC   C3721180   3.766   1.640   9.176 -0.2223 -0.0526  0.1540
  184SLPC   H7X21181   3.876   1.651   9.189 -0.1341  2.4825 -1.9728
  184SLPC   H7Y21182   3.726   1.743   9.175 -0.8272 -0.2849 -0.1536
  184SLPC   C3821183   3.760   1.559   9.041 -0.4830  0.8608 -0.3846
  184SLPC   H8X21184   3.821   1.468   9.057 -2.6229 -0.5529  0.1370
  184SLPC   H8Y21185   3.818   1.615   8.964  1.1130 -1.8915 -1.3172
  184SLPC   C3921186   3.619   1.525   8.985  0.5149  0.1455  0.0104
  184SLPC   H9X21187   3.546   1.609   8.996 -1.4000 -1.2368 -1.4610
  184SLPC   H9Y21188   3.569   1.451   9.052 -2.0783  1.0443 -0.7909
  184SLPC  C31021189   3.627   1.475   8.838 -0.8982 -0.5491  0.5429
  184SLPC  H10X21190   3.725   1.506   8.797 -1.0034 -2.0608 -0.9408
  184SLPC  H10Y21191   3.553   1.517   8.767 -0.7368 -0.2092  0.5735
  184SLPC  C31121192   3.640   1.321   8.814 -0.2923 -0.2680 -0.2412
  184SLPC  H11X21193   3.565   1.262   8.871 -0.4655  0.7868  0.6588
  184SLPC  H11Y21194   3.746   1.296   8.837 -0.8396 -2.3287  0.2066
  184SLPC  C31221195   3.633   1.282   8.662 -0.3519  0.3058 -0.0720
  184SLPC  H12X21196   3.533   1.297   8.615 -0.6464 -1.7749 -0.2043
  184SLPC  H12Y21197   3.655   1.173   8.655  0.0715  0.4881 -2.6791
  184SLPC  C31321198   3.736   1.347   8.566 -0.0801  1.2086 -0.2676
  184SLPC  H13X21199   3.837   1.321   8.604 -0.9225  1.4516  2.3168
  184SLPC  H13Y21200   3.728   1.457   8.575  0.0177  1.2516 -0.6660
  184SLPC  C31421201   3.702   1.309   8.418  0.2574  0.3211  0.0159
  184SLPC  H14X21202   3.597   1.331   8.392 -0.0444 -1.6343 -0.6441
  184SLPC  H14Y21203   3.697   1.198   8.409 -2.2447  0.3691  0.3040
  184SLPC  C31521204   3.786   1.366   8.304  0.0804 -0.2335 -0.0629
  184SLPC  H15X21205   3.894   1.341   8.311 -0.0412 -0.7382  0.0483
  184SLPC  H15Y21206   3.762   1.474   8.315  1.2669 -0.0311  0.6996
  184SLPC  C31621207   3.747   1.312   8.165  0.4033  0.1747 -0.2152
  184SLPC  H16X21208   3.639   1.334   8.150  0.4061  0.3808  0.0495
  184SLPC  H16Y21209   3.752   1.201   8.161 -0.7565 -0.1139  3.1063
  184SLPC  C31721210   3.824   1.382   8.058 -0.1150  0.5074 -0.9951
  184SLPC  H17X21211   3.933   1.377   8.076 -0.1762 -0.5742 -0.8796
  184SLPC  H17Y21212   3.787   1.486   8.069 -2.6733 -0.3831 -0.4281
  184SLPC  C31821213   3.800   1.333   7.917  0.1196 -0.2263 -0.0294
  184SLPC  H18X21214   3.843   1.232   7.902 -0.8385 -0.8851  1.4170
  184SLPC  H18Y21215   3.849   1.404   7.847 -1.3541  1.9580  1.0077
  184SLPC  H18Z21216   3.690   1.337   7.904  0.1662  1.3484 -0.1603
  185SLPC     N21217   2.534   1.831   6.032 -0.1406 -0.0017  0.0288
  185SLPC   C1321218   2.603   1.708   6.078  0.3012 -0.3853 -0.9808
  185SLPC  H13A21219   2.624   1.713   6.183 -0.1100  0.8157 -0.9459
  185SLPC  H13B21220   2.547   1.618   6.055 -0.1265  0.0652 -1.7419
  185SLPC  H13C21221   2.693   1.690   6.021 -0.6433  0.4042 -2.8045
  185SLPC   C1421222   2.386   1.825   6.076  0.0406 -0.5257  0.5968
  185SLPC  H14A21223   2.323   1.759   6.018  0.7852 -0.9422  0.2425
  185SLPC  H14B21224   2.376   1.800   6.181  0.5993 -1.2808  0.4786
  185SLPC  H14C21225   2.345   1.922   6.053  1.3558  0.4962  2.2819
  185SLPC   C1521226   2.537   1.852   5.884  0.3831 -0.4264  0.8474
  185SLPC  H15A21227   2.473   1.783   5.830 -1.4735 -0.0124  2.4046
  185SLPC  H15B21228   2.509   1.952   5.857 -0.3720 -0.9806 -0.5714
  185SLPC  H15C21229   2.637   1.848   5.843  0.6687 -1.3433  1.5843
  185SLPC   C1221230   2.592   1.949   6.104 -0.5305  0.4796  0.7631
  185SLPC  H12A21231   2.590   1.938   6.212  0.5388 -2.2024  0.5781
  185SLPC  H12B21232   2.526   2.033   6.088  0.8727  1.5891  0.5905
  185SLPC   C1121233   2.740   1.992   6.074 -0.1656 -0.0208  1.0275
  185SLPC  H11A21234   2.751   2.093   6.120  1.4608  0.2127  0.1972
  185SLPC  H11B21235   2.762   2.017   5.968  2.5362  3.0339  2.1458
  185SLPC     P21236   2.864   1.890   6.273 -0.1161  0.4441 -0.2690
  185SLPC   O1321237   2.964   1.784   6.292  0.3409  0.3228  0.0402
  185SLPC   O1421238   2.898   2.029   6.320 -0.3066 -0.4468  0.0885
  185SLPC   O1221239   2.835   1.891   6.119  0.3969 -0.0412  0.4701
  185SLPC   O1121240   2.720   1.857   6.327 -0.0555 -0.7640 -0.1855
  185SLPC    C121241   2.710   1.760   6.435 -0.5101 -0.7470  0.1819
  185SLPC    HA21242   2.622   1.706   6.393 -1.0694  0.2809 -0.0072
  185SLPC    HB21243   2.796   1.692   6.452  0.4949  1.0563  2.9107
  185SLPC    C221244   2.663   1.820   6.567  0.5727  0.3647 -0.2614
  185SLPC    HS21245   2.594   1.906   6.555 -0.7914 -0.5338  0.7826
  185SLPC   O2121246   2.784   1.865   6.626  0.1787  0.2290 -0.1682
  185SLPC   C2121247   2.763   1.951   6.728  0.0436  0.1402  0.8426
  185SLPC   O2221248   2.656   1.996   6.759  0.1565  0.4111  0.2760
  185SLPC   C2221249   2.896   1.981   6.796 -0.0168  0.0240 -0.3113
  185SLPC   H2R21250   2.951   1.888   6.821  1.8012  0.8844 -0.8589
  185SLPC   H2S21251   2.954   2.046   6.726  2.6771 -1.5382  0.3235
  185SLPC    C321252   2.591   1.717   6.657 -0.0344  0.2301 -0.2148
  185SLPC    HX21253   2.496   1.699   6.604 -1.1072  1.5718  1.1539
  185SLPC    HY21254   2.562   1.766   6.753 -2.8548 -2.5038  0.4832
  185SLPC   O3121255   2.662   1.603   6.690  0.7131  0.2026 -0.5057
  185SLPC   C3121256   2.600   1.484   6.658 -0.5937 -0.0025 -0.2022
  185SLPC   O3221257   2.486   1.474   6.626  0.1077 -1.0115 -0.2072
  185SLPC   C3221258   2.686   1.363   6.694  0.2923 -0.8368  0.1136
  185SLPC   H2X21259   2.781   1.387   6.641  0.5976  1.8095  1.6707
  185SLPC   H2Y21260   2.648   1.263   6.663 -2.5136 -0.3571  1.6969
  185SLPC   C2321261   2.887   2.054   6.931 -1.1593 -0.2486 -0.5566
  185SLPC   H3R21262   2.792   2.112   6.930 -0.4831  0.8965 -0.6130
  185SLPC   H3S21263   2.975   2.122   6.940  1.3348 -2.7473 -3.7512
  185SLPC   C2421264   2.872   1.967   7.053  0.0266  0.6500  0.4622
  185SLPC   H4R21265   2.945   1.884   7.039  2.1877  2.0516  2.6403
  185SLPC   H4S21266   2.768   1.929   7.059  0.3962 -0.4192  0.3482
  185SLPC   C2521267   2.896   2.036   7.189 -0.2373  0.0393  0.4318
  185SLPC   H5R21268   2.805   2.096   7.210  0.0723  0.2676  1.1463
  185SLPC   H5S21269   2.992   2.091   7.180  0.5223 -1.4368 -1.2223
  185SLPC   C2621270   2.920   1.928   7.296  0.2768  0.4310  0.7348
  185SLPC   H6R21271   2.988   1.852   7.252  1.9415  1.9406  0.5661
  185SLPC   H6S21272   2.829   1.873   7.325  1.3049  0.2268  3.9041
  185SLPC   C2721273   2.982   1.981   7.429 -0.2069  0.2454 -0.2322
  185SLPC   H7R21274   2.907   2.056   7.461 -1.1503 -0.2207 -1.2599
  185SLPC   H7S21275   3.075   2.036   7.402 -0.7247  0.6485 -1.2454
  185SLPC   C2821276   2.996   1.873   7.536 -0.3969 -0.3308 -0.8624
  185SLPC   H8R21277   3.046   1.785   7.491  2.1798  0.4629  0.2332
  185SLPC   H8S21278   2.897   1.836   7.569  0.3122  0.2714  2.3019
  185SLPC   C2921279   3.072   1.917   7.665 -0.1586  0.4822 -0.2713
  185SLPC   H9R21280   3.098   2.024   7.661  1.5138  0.0677 -1.8199
  185SLPC  C21021281   3.116   1.844   7.775 -0.5457  0.0222  0.3825
  185SLPC  H10R21282   3.160   1.897   7.860 -1.2717  2.2694 -0.5861
  185SLPC  C21121283   3.099   1.694   7.788 -0.2466 -0.1904  0.3294
  185SLPC  H11R21284   3.022   1.665   7.713 -0.3687 -0.3480  0.5147
  185SLPC  H11S21285   3.053   1.663   7.884 -1.6841  0.8686  0.0190
  185SLPC  C21221286   3.241   1.641   7.748  0.2352  0.1192  0.2263
  185SLPC  H12R21287   3.271   1.656   7.644 -1.3856  0.4062 -0.2154
  185SLPC  C21321288   3.323   1.576   7.841 -0.7194 -0.5517  0.7209
  185SLPC  H13R21289   3.423   1.546   7.805 -0.3864  1.2735  0.0330
  185SLPC  C21421290   3.296   1.544   7.987 -0.4731  0.3069 -0.4932
  185SLPC  H14R21291   3.355   1.453   8.011  0.1006  0.3995 -1.4837
  185SLPC  H14S21292   3.189   1.522   8.006 -0.2570 -0.8194 -0.4764
  185SLPC  C21521293   3.347   1.647   8.085 -0.0356  0.3894 -0.1369
  185SLPC  H15R21294   3.314   1.742   8.039  0.3715  0.1453 -0.9661
  185SLPC  H15S21295   3.457   1.659   8.072  0.3272  0.0696  2.2432
  185SLPC  C21621296   3.289   1.639   8.231 -0.3723 -0.2873 -0.2593
  185SLPC  H16R21297   3.180   1.656   8.220 -0.1288  0.7173 -1.3196
  185SLPC  H16S21298   3.327   1.730   8.282  0.8491 -0.9817  0.1079
  185SLPC  C21721299   3.322   1.515   8.314  0.0692  0.2026 -0.7168
  185SLPC  H17R21300   3.433   1.511   8.316  0.1280 -4.6397  1.5237
  185SLPC  H17S21301   3.285   1.431   8.252  2.4017  0.8065 -3.0785
  185SLPC  C21821302   3.262   1.515   8.455  0.3321 -0.4664  0.7710
  185SLPC  H18R21303   3.292   1.421   8.507  1.1981 -1.1491 -0.8871
  185SLPC  H18S21304   3.153   1.509   8.438 -0.1986  1.2743  3.0453
  185SLPC  H18T21305   3.287   1.601   8.521 -0.1323 -0.5228  1.0197
  185SLPC   C3321306   2.707   1.352   6.846  0.6523 -0.2438 -0.4651
  185SLPC   H3X21307   2.721   1.452   6.891 -2.4131  0.0422  0.0688
  185SLPC   H3Y21308   2.799   1.290   6.850  1.7384  1.2746 -1.1807
  185SLPC   C3421309   2.596   1.282   6.931 -0.7115 -0.0101  0.6118
  185SLPC   H4X21310   2.540   1.205   6.872 -0.6179 -0.4350  1.0670
  185SLPC   H4Y21311   2.529   1.365   6.960 -0.1385  0.8359 -0.4467
  185SLPC   C3521312   2.646   1.218   7.060 -0.7362 -0.4474  0.6281
  185SLPC   H5X21313   2.737   1.278   7.084 -1.5703  0.1317  2.5075
  185SLPC   H5Y21314   2.665   1.110   7.044 -1.5543 -0.4029 -0.9037
  185SLPC   C3621315   2.556   1.260   7.180  0.5316 -0.0375  0.0931
  185SLPC   H6X21316   2.448   1.242   7.162  0.3968  0.4144  0.4289
  185SLPC   H6Y21317   2.562   1.370   7.182  0.1162 -0.0133  0.7013
  185SLPC   C3721318   2.603   1.213   7.324  0.5106  0.1885  0.2737
  185SLPC   H7X21319   2.703   1.258   7.343  1.2066 -1.1253 -0.1151
  185SLPC   H7Y21320   2.625   1.104   7.315 -0.2532  0.1063 -0.7286
  185SLPC   C3821321   2.493   1.240   7.437 -0.0367  0.7086 -0.5479
  185SLPC   H8X21322   2.401   1.218   7.380  1.4815 -2.4093 -2.0533
  185SLPC   H8Y21323   2.505   1.343   7.477 -2.7186  1.1996 -0.8127
  185SLPC   C3921324   2.479   1.145   7.559  0.0866 -0.2546 -0.7732
  185SLPC   H9X21325   2.463   1.037   7.542 -0.6019  0.2378 -3.8674
  185SLPC   H9Y21326   2.389   1.171   7.618 -1.7906 -0.2313 -3.4876
  185SLPC  C31021327   2.608   1.144   7.652 -0.2335  0.3744  0.0658
  185SLPC  H10X21328   2.626   1.237   7.710 -0.8840  0.5087  0.0566
  185SLPC  H10Y21329   2.696   1.129   7.585  0.8028 -1.8995  1.8014
  185SLPC  C31121330   2.621   1.025   7.757 -0.5315 -0.2331 -0.3649
  185SLPC  H11X21331   2.718   1.031   7.810 -0.3942  1.2755 -0.7404
  185SLPC  H11Y21332   2.606   0.927   7.707 -0.8230  0.3190 -1.4027
  185SLPC  C31221333   2.528   1.046   7.870  0.6033  0.4977 -0.1131
  185SLPC  H12X21334   2.427   1.023   7.831 -0.2721  2.1578  1.0393
  185SLPC  H12Y21335   2.535   1.152   7.905  3.8158  0.3840 -0.0636
  185SLPC  C31321336   2.552   0.952   7.991  0.0238  0.3947 -0.4042
  185SLPC  H13X21337   2.603   0.859   7.957  0.4540  0.3588  0.3221
  185SLPC  H13Y21338   2.455   0.922   8.037  0.5203 -0.1713  0.2951
  185SLPC  C31421339   2.633   1.027   8.107 -0.3247 -0.8859  0.4701
  185SLPC  H14X21340   2.568   1.115   8.127 -0.6966 -0.6279 -1.6434
  185SLPC  H14Y21341   2.735   1.049   8.068 -0.4924 -0.6296  0.1640
  185SLPC  C31521342   2.630   0.948   8.243  0.4803 -0.0009 -0.3591
  185SLPC  H15X21343   2.676   0.849   8.220  1.3513  0.0281  1.1443
  185SLPC  H15Y21344   2.526   0.934   8.277  0.7405  1.0641  0.9622
  185SLPC  C31621345   2.708   1.023   8.354  0.6782  0.2101 -0.1837
  185SLPC  H16X21346   2.672   1.127   8.366  0.1172  0.0961 -0.8180
  185SLPC  H16Y21347   2.815   1.035   8.327  0.7701  2.3099  0.9065
  185SLPC  C31721348   2.707   0.948   8.486  0.7458  0.0713  0.7117
  185SLPC  H17X21349   2.804   0.962   8.537  0.0792  2.7383  1.3976
  185SLPC  H17Y21350   2.702   0.838   8.472 -0.7326  0.3269 -1.3073
  185SLPC  C31821351   2.591   0.990   8.569  0.0579 -0.5217 -0.7025
  185SLPC  H18X21352   2.592   0.936   8.666 -1.4104  0.4484 -0.1026
  185SLPC  H18Y21353   2.494   0.981   8.516  0.6157  2.3316 -2.4215
  185SLPC  H18Z21354   2.604   1.099   8.586  0.6840 -0.6305 -0.4503
  186SLPC     N21355   5.282   3.596   6.183  0.2362  0.5540  0.1800
  186SLPC   C1321356   5.272   3.579   6.039 -0.2283 -0.7662 -0.7994
  186SLPC  H13A21357   5.331   3.655   5.990  3.9389 -2.6914  0.7422
  186SLPC  H13B21358   5.312   3.485   6.003  2.0751 -0.4105  0.6155
  186SLPC  H13C21359   5.168   3.596   6.015  0.1186  1.5267 -0.9375
  186SLPC   C1421360   5.258   3.738   6.211 -0.4102  0.1671 -0.6836
  186SLPC  H14A21361   5.154   3.760   6.190 -0.8990  1.0214  2.2465
  186SLPC  H14B21362   5.279   3.751   6.316 -0.5116 -0.7320 -0.5392
  186SLPC  H14C21363   5.326   3.802   6.157  2.8162 -0.4300  2.3206
  186SLPC   C1521364   5.419   3.554   6.217 -0.8324  0.7234  0.8858
  186SLPC  H15A21365   5.493   3.615   6.167 -0.1471 -0.9627 -0.2565
  186SLPC  H15B21366   5.428   3.570   6.324  1.4792 -0.1991  0.8987
  186SLPC  H15C21367   5.438   3.451   6.191 -0.3789  0.6958  1.2978
  186SLPC   C1221368   5.182   3.501   6.255  0.3228  0.1818  0.8542
  186SLPC  H12A21369   5.189   3.509   6.362  0.8793  0.2314  0.8144
  186SLPC  H12B21370   5.211   3.398   6.241  1.4409  0.4312  1.2836
  186SLPC   C1121371   5.041   3.485   6.200  0.2076  0.3776 -0.3234
  186SLPC  H11A21372   5.061   3.453   6.095 -0.2762 -1.3430  0.0849
  186SLPC  H11B21373   4.969   3.570   6.194  0.3979  0.4629 -2.5255
  186SLPC     P21374   4.833   3.340   6.252 -0.3604  0.1257 -0.1640
  186SLPC   O1321375   4.796   3.360   6.110 -0.2464 -0.2828 -0.2274
  186SLPC   O1421376   4.795   3.205   6.307 -0.0583  0.6042  0.1729
  186SLPC   O1221377   4.989   3.375   6.278  0.3673 -0.2482 -0.1498
  186SLPC   O1121378   4.768   3.458   6.333  0.5234 -0.0899  0.0090
  186SLPC    C121379   4.811   3.518   6.456  0.3233  0.0815  0.7680
  186SLPC    HA21380   4.916   3.555   6.451 -0.4088  2.1371 -0.1052
  186SLPC    HB21381   4.750   3.609   6.472  1.0292  0.4891  1.1977
  186SLPC    C221382   4.783   3.429   6.582 -0.3210 -0.8088  0.0076
  186SLPC    HS21383   4.869   3.360   6.595 -0.1999 -0.5968  0.3617
  186SLPC   O2121384   4.651   3.369   6.586 -0.4531  0.0721 -0.2670
  186SLPC   C2121385   4.650   3.246   6.641 -0.3709 -0.4497  0.0758
  186SLPC   O2221386   4.736   3.180   6.689 -0.4442  0.4394  0.8995
  186SLPC   C2221387   4.505   3.199   6.633 -0.1512  0.4492 -0.1636
  186SLPC   H2R21388   4.437   3.284   6.655 -1.6773 -0.4684 -1.1974
  186SLPC   H2S21389   4.498   3.177   6.525 -0.3793  0.7226 -0.2044
  186SLPC    C321390   4.794   3.519   6.713 -0.1779  0.4839 -0.2249
  186SLPC    HX21391   4.696   3.568   6.733 -0.1227  1.3937 -1.9984
  186SLPC    HY21392   4.865   3.604   6.712  1.3280 -0.7216 -1.6450
  186SLPC   O3121393   4.820   3.437   6.823 -0.3092 -0.1604  0.1552
  186SLPC   C3121394   4.943   3.410   6.865  0.3519  0.3968 -0.6593
  186SLPC   O3221395   5.044   3.467   6.825  0.4897 -0.3993 -0.4873
  186SLPC   C3221396   4.938   3.301   6.976  0.1954 -0.6312  0.7250
  186SLPC   H2X21397   4.982   3.206   6.941 -3.1174 -1.1461 -2.6923
  186SLPC   H2Y21398   4.831   3.290   7.006  0.5633  0.4380  2.5502
  186SLPC   C2321399   4.470   3.068   6.710  0.4184 -0.3065 -0.8529
  186SLPC   H3R21400   4.555   2.999   6.729 -0.2302 -1.5070 -2.1671
  186SLPC   H3S21401   4.401   3.019   6.638 -0.0754 -0.0770 -0.5368
  186SLPC   C2421402   4.390   3.102   6.826 -0.2126  0.2543 -0.0978
  186SLPC   H4R21403   4.292   3.144   6.795 -0.9868 -1.0562  0.4897
  186SLPC   H4S21404   4.440   3.183   6.884  0.0183  2.1790 -2.8192
  186SLPC   C2521405   4.373   2.978   6.911  0.1083  0.0791  0.3540
  186SLPC   H5R21406   4.471   2.930   6.936  1.3241  1.9280 -0.6198
  186SLPC   H5S21407   4.318   2.900   6.855 -0.7736  0.5457  0.5538
  186SLPC   C2621408   4.298   3.012   7.041  0.0405 -0.2306 -0.1043
  186SLPC   H6R21409   4.192   3.040   7.021  0.2565 -1.4331 -3.4717
  186SLPC   H6S21410   4.364   3.091   7.082 -0.8075  0.0382  0.8125
  186SLPC   C2721411   4.290   2.899   7.144  0.0508 -0.1326 -0.1870
  186SLPC   H7R21412   4.391   2.858   7.161  0.8021  1.5942 -0.2881
  186SLPC   H7S21413   4.211   2.830   7.108  0.9777 -2.3393  1.7599
  186SLPC   C2821414   4.232   2.940   7.279 -0.2721  0.2533 -0.0618
  186SLPC   H8R21415   4.129   2.978   7.260  0.2036 -0.0399 -4.3879
  186SLPC   H8S21416   4.290   3.020   7.328 -1.8726 -0.9402  4.2301
  186SLPC   C2921417   4.222   2.819   7.365 -0.1684  1.1687 -0.2856
  186SLPC   H9R21418   4.139   2.751   7.341  0.5769  0.4781 -0.9743
  186SLPC  C21021419   4.303   2.796   7.477 -0.0986  0.5636  0.0697
  186SLPC  H10R21420   4.282   2.708   7.539 -0.1840 -0.6331 -1.6042
  186SLPC  C21121421   4.414   2.891   7.524  0.1870  0.1179  0.2674
  186SLPC  H11R21422   4.378   2.996   7.530 -1.4623 -0.4718  1.5088
  186SLPC  H11S21423   4.494   2.874   7.449  1.4758  0.3982  1.5331
  186SLPC  C21221424   4.476   2.855   7.654 -0.1161 -0.5225  0.9186
  186SLPC  H12R21425   4.520   2.754   7.655  0.9398 -0.0841  2.1467
  186SLPC  C21321426   4.500   2.925   7.773 -0.3242  0.1758 -0.3281
  186SLPC  H13R21427   4.571   2.880   7.845  1.5315 -0.0019 -2.1463
  186SLPC  C21421428   4.462   3.069   7.804  0.3390 -0.0381 -0.0900
  186SLPC  H14R21429   4.411   3.127   7.724 -0.9215 -0.2285  0.5500
  186SLPC  H14S21430   4.557   3.120   7.832 -0.2372  0.0808  1.7307
  186SLPC  C21521431   4.366   3.089   7.921  0.1652 -0.2196 -0.7337
  186SLPC  H15R21432   4.264   3.058   7.889 -1.9686  1.2388  3.7945
  186SLPC  H15S21433   4.358   3.200   7.922  2.5634  0.0607  1.9301
  186SLPC  C21621434   4.409   3.046   8.059  0.2274 -0.5682 -0.2799
  186SLPC  H16R21435   4.505   3.100   8.073  1.0905 -1.1032 -3.2659
  186SLPC  H16S21436   4.421   2.936   8.072  2.9262 -0.1246  1.8782
  186SLPC  C21721437   4.308   3.086   8.159 -0.0751  0.2011 -0.1678
  186SLPC  H17R21438   4.288   3.195   8.150 -0.3155  0.3793  1.9586
  186SLPC  H17S21439   4.358   3.055   8.253 -0.2914 -1.9757 -0.7362
  186SLPC  C21821440   4.171   3.016   8.146  0.4932 -0.6563  0.1167
  186SLPC  H18R21441   4.099   3.065   8.215  1.1451  1.0080 -0.3257
  186SLPC  H18S21442   4.180   2.912   8.182 -2.7230 -1.1280 -0.1387
  186SLPC  H18T21443   4.131   3.018   8.042  1.6804  2.9636 -0.3949
  186SLPC   C3321444   5.013   3.336   7.106  0.1945  0.3670  0.2684
  186SLPC   H3X21445   5.119   3.339   7.072  0.0032 -2.1709 -0.8518
  186SLPC   H3Y21446   5.005   3.251   7.177  0.7552  0.8573  0.9234
  186SLPC   C3421447   4.962   3.465   7.172 -0.1189 -0.3885  0.6261
  186SLPC   H4X21448   4.851   3.454   7.175 -0.3446  1.5164  0.3217
  186SLPC   H4Y21449   4.990   3.559   7.120  0.6572 -0.1032  1.5290
  186SLPC   C3521450   5.009   3.472   7.315 -0.3758 -0.5424 -0.2106
  186SLPC   H5X21451   5.120   3.474   7.301 -0.2970  1.3685  0.3094
  186SLPC   H5Y21452   4.975   3.381   7.369  1.1301 -0.0204  1.7574
  186SLPC   C3621453   4.963   3.607   7.380  0.3126  0.0058 -0.0295
  186SLPC   H6X21454   4.854   3.612   7.361  0.8412  2.9138 -3.2362
  186SLPC   H6Y21455   5.012   3.696   7.335 -0.5213  1.0391  1.0330
  186SLPC   C3721456   4.992   3.608   7.530  0.4112  0.7682 -0.2064
  186SLPC   H7X21457   5.101   3.613   7.551  0.2902  0.4840  0.5536
  186SLPC   H7Y21458   4.947   3.519   7.581 -2.1957  0.7690 -2.2853
  186SLPC   C3821459   4.929   3.733   7.606 -0.0600 -0.6312 -0.0509
  186SLPC   H8X21460   4.944   3.715   7.714 -1.4692 -2.2569 -0.0808
  186SLPC   H8Y21461   4.820   3.747   7.585  0.3586 -1.4796 -3.3770
  186SLPC   C3921462   4.997   3.861   7.561 -0.3329 -1.0291 -0.3757
  186SLPC   H9X21463   4.962   3.888   7.459 -1.6874  2.9879  0.9653
  186SLPC   H9Y21464   5.108   3.852   7.558  0.2639  2.7657  2.5460
  186SLPC  C31021465   4.964   3.973   7.655  0.5543  0.4130 -0.3686
  186SLPC  H10X21466   5.004   3.956   7.758 -1.7961  0.0661  0.5385
  186SLPC  H10Y21467   4.855   3.993   7.656 -0.3244 -3.5062  0.3180
  186SLPC  C31121468   5.031   4.105   7.613 -0.5162  0.2259 -0.2493
  186SLPC  H11X21469   5.021   4.129   7.505  0.1097 -1.0399 -0.6076
  186SLPC  H11Y21470   5.140   4.093   7.630 -1.0999 -2.7951  2.2815
  186SLPC  C31221471   4.978   4.226   7.695  0.0283 -0.5569  0.4046
  186SLPC  H12X21472   5.063   4.295   7.710 -0.7080  1.0909 -2.3624
  186SLPC  H12Y21473   4.953   4.185   7.795  3.3828  1.1545  2.0936
  186SLPC  C31321474   4.860   4.306   7.636 -0.0635  0.3197 -0.3133
  186SLPC  H13X21475   4.827   4.375   7.717  2.1243  0.7891  0.2305
  186SLPC  H13Y21476   4.775   4.234   7.629  0.2275 -0.4208  2.3920
  186SLPC  C31421477   4.902   4.386   7.514  0.2385 -0.7855 -0.1856
  186SLPC  H14X21478   4.942   4.321   7.433  0.7547 -2.9137  1.6592
  186SLPC  H14Y21479   4.993   4.447   7.535  0.1502 -0.3029 -1.1536
  186SLPC  C31521480   4.791   4.478   7.459 -0.4127  0.9107 -0.4202
  186SLPC  H15X21481   4.706   4.424   7.413  0.8214  0.1158 -1.8728
  186SLPC  H15Y21482   4.839   4.534   7.375 -1.2500  1.7024 -0.3796
  186SLPC  C31621483   4.758   4.580   7.570 -0.1589 -0.6520  0.6295
  186SLPC  H16X21484   4.855   4.624   7.603  0.2561 -1.6872  0.8246
  186SLPC  H16Y21485   4.709   4.544   7.662 -0.1503 -0.5919  0.6578
  186SLPC  C31721486   4.657   4.688   7.511  0.4020 -0.4061 -0.4285
  186SLPC  H17X21487   4.564   4.630   7.492  0.3272 -0.8826  1.2470
  186SLPC  H17Y21488   4.705   4.733   7.421  0.5419 -0.1509 -0.2290
  186SLPC  C31821489   4.638   4.798   7.616 -0.4131 -0.9853  0.3727
  186SLPC  H18X21490   4.575   4.888   7.596  0.2984 -0.2416  1.3728
  186SLPC  H18Y21491   4.732   4.837   7.660  0.0823 -0.3515 -1.2004
  186SLPC  H18Z21492   4.589   4.741   7.698 -0.0693 -1.6834  0.1012
  187SLPC     N21493   1.744   1.131   6.186  0.0277  0.4574 -0.1468
  187SLPC   C1321494   1.863   1.073   6.253 -0.1146 -0.3231  0.6223
  187SLPC  H13A21495   1.836   0.994   6.322 -0.5928 -0.4982  0.2383
  187SLPC  H13B21496   1.932   1.030   6.182 -0.4566 -2.5208  1.5364
  187SLPC  H13C21497   1.908   1.151   6.313 -2.7046  0.0764  2.2165
  187SLPC   C1421498   1.674   1.040   6.086 -0.3424 -0.2509  0.0361
  187SLPC  H14A21499   1.639   0.950   6.134 -0.0941 -0.2101  0.2949
  187SLPC  H14B21500   1.591   1.096   6.046  0.3296  1.9902  1.5614
  187SLPC  H14C21501   1.739   1.011   6.005  1.6233  1.8973  0.7319
  187SLPC   C1521502   1.779   1.252   6.105  0.7294  0.1448 -0.2111
  187SLPC  H15A21503   1.696   1.277   6.041  0.4648 -0.0817  0.0348
  187SLPC  H15B21504   1.791   1.339   6.167  0.7793 -0.1186  0.1584
  187SLPC  H15C21505   1.865   1.238   6.041 -0.6830 -2.1028 -1.7717
  187SLPC   C1221506   1.641   1.164   6.291 -0.2701 -0.1300 -0.2114
  187SLPC  H12A21507   1.625   1.071   6.343 -3.6939  0.2995 -0.2656
  187SLPC  H12B21508   1.541   1.179   6.254 -1.5368 -1.4360  2.3744
  187SLPC   C1121509   1.666   1.276   6.389  0.1921  0.3778 -0.0634
  187SLPC  H11A21510   1.653   1.371   6.333  1.9401  0.2061 -0.8114
  187SLPC  H11B21511   1.772   1.271   6.423 -0.0821  0.6727  0.8661
  187SLPC     P21512   1.493   1.386   6.560  0.0729  0.0243  0.0843
  187SLPC   O1321513   1.404   1.454   6.458  0.0625 -0.2748 -0.0159
  187SLPC   O1421514   1.433   1.346   6.687 -0.0749  0.0179 -0.6557
  187SLPC   O1221515   1.570   1.258   6.498 -0.0925 -0.4537  0.0670
  187SLPC   O1121516   1.618   1.482   6.594  0.0103 -0.2016 -0.6895
  187SLPC    C121517   1.750   1.453   6.642  0.2502  0.8652  0.3228
  187SLPC    HA21518   1.783   1.355   6.601  0.5109  1.7944 -1.8103
  187SLPC    HB21519   1.823   1.529   6.608  1.2443 -0.2394 -0.1053
  187SLPC    C221520   1.745   1.444   6.798  0.2497  0.5977 -0.3949
  187SLPC    HS21521   1.847   1.440   6.841  0.0501 -0.4944  0.0107
  187SLPC   O2121522   1.676   1.322   6.841  0.3878  0.0028  0.8578
  187SLPC   C2121523   1.761   1.220   6.830  0.1008  0.1680 -0.5429
  187SLPC   O2221524   1.881   1.229   6.810  0.1610 -0.3947  0.1771
  187SLPC   C2221525   1.676   1.088   6.846  0.9425 -0.2769 -0.2720
  187SLPC   H2R21526   1.573   1.104   6.885  1.4733  1.1964  0.6090
  187SLPC   H2S21527   1.670   1.051   6.742 -0.8100 -0.7460 -0.0238
  187SLPC    C321528   1.666   1.568   6.852 -0.3272  0.2029  0.2128
  187SLPC    HX21529   1.559   1.548   6.830 -0.4536  0.4540  0.5837
  187SLPC    HY21530   1.701   1.660   6.802  0.4644  1.0624  2.2498
  187SLPC   O3121531   1.685   1.580   6.994  0.0475  0.5408 -0.2986
  187SLPC   C3121532   1.597   1.662   7.060  0.0401 -0.0951  0.3488
  187SLPC   O3221533   1.512   1.730   7.007  0.0128 -0.1567 -0.3042
  187SLPC   C3221534   1.612   1.661   7.208 -0.5987 -0.8191 -0.2468
  187SLPC   H2X21535   1.702   1.604   7.237 -1.5365 -2.0382  0.3480
  187SLPC   H2Y21536   1.527   1.603   7.249 -0.6468 -0.3168  0.3858
  187SLPC   C2321537   1.739   0.985   6.941  0.4377  0.1709  0.5007
  187SLPC   H3R21538   1.837   0.961   6.895 -0.5583  0.5059 -1.9603
  187SLPC   H3S21539   1.678   0.894   6.920  0.9875 -0.0857 -0.0121
  187SLPC   C2421540   1.728   1.005   7.091  0.2013 -0.2225 -0.5174
  187SLPC   H4R21541   1.625   1.041   7.110  0.7072  0.5617  0.8813
  187SLPC   H4S21542   1.798   1.084   7.128  0.0449  0.3281 -1.3888
  187SLPC   C2521543   1.744   0.878   7.163  0.3688  0.8919  0.0768
  187SLPC   H5R21544   1.848   0.846   7.140  1.0687  3.4997 -0.7505
  187SLPC   H5S21545   1.665   0.807   7.131 -0.1567  0.7795  1.5476
  187SLPC   C2621546   1.725   0.888   7.316 -0.7843 -0.3093  0.6740
  187SLPC   H6R21547   1.629   0.944   7.329 -1.4609 -1.6413  1.7223
  187SLPC   H6S21548   1.810   0.936   7.369  0.4686 -1.8004  0.0640
  187SLPC   C2721549   1.713   0.749   7.373 -0.3891 -0.0905  0.3939
  187SLPC   H7R21550   1.804   0.693   7.343 -0.2075 -0.1080  0.9653
  187SLPC   H7S21551   1.630   0.690   7.327 -0.5898 -2.5508  3.5202
  187SLPC   C2821552   1.704   0.735   7.534 -0.4249 -0.0847 -0.1192
  187SLPC   H8R21553   1.813   0.742   7.554 -0.3066  0.8784 -1.0080
  187SLPC   H8S21554   1.674   0.629   7.546 -1.9459  0.3501  0.0952
  187SLPC   C2921555   1.619   0.820   7.620 -0.4458 -0.4073 -0.8320
  187SLPC   H9R21556   1.535   0.870   7.569 -1.6803 -1.1296  0.4010
  187SLPC  C21021557   1.643   0.834   7.756 -0.2398  0.2691  0.7238
  187SLPC  H10R21558   1.588   0.913   7.808 -0.0230  0.3313  0.8584
  187SLPC  C21121559   1.749   0.774   7.835 -0.2837  0.0522 -0.4186
  187SLPC  H11R21560   1.843   0.764   7.776 -0.1147  0.0402 -0.1501
  187SLPC  H11S21561   1.705   0.675   7.858 -1.3547  0.4608 -0.6676
  187SLPC  C21221562   1.776   0.858   7.962 -0.1270 -0.4426  0.2392
  187SLPC  H12R21563   1.790   0.966   7.947  0.1002 -0.0847  2.5884
  187SLPC  C21321564   1.800   0.803   8.085  0.1948  0.9817  0.0544
  187SLPC  H13R21565   1.815   0.877   8.165 -0.1772  1.4617 -0.3067
  187SLPC  C21421566   1.812   0.660   8.131  0.1432 -0.5565 -0.0750
  187SLPC  H14R21567   1.906   0.651   8.190  1.9188  0.6626 -2.5256
  187SLPC  H14S21568   1.810   0.596   8.041 -0.4277  0.1784 -0.5979
  187SLPC  C21521569   1.700   0.608   8.221  0.2941 -0.5022  0.1860
  187SLPC  H15R21570   1.723   0.502   8.244 -0.7025 -0.2514  2.6898
  187SLPC  H15S21571   1.603   0.604   8.166 -0.7009 -4.1124  1.9025
  187SLPC  C21621572   1.669   0.693   8.349  0.1146 -0.3856 -0.0468
  187SLPC  H16R21573   1.628   0.790   8.313 -2.0388 -1.5280 -0.9168
  187SLPC  H16S21574   1.762   0.716   8.404 -0.1198  1.4863 -0.3640
  187SLPC  C21721575   1.570   0.619   8.441  0.4192  0.3767  0.0650
  187SLPC  H17R21576   1.621   0.533   8.490  0.0622 -0.7234 -1.4356
  187SLPC  H17S21577   1.491   0.570   8.380  1.1742  0.8013 -1.2917
  187SLPC  C21821578   1.528   0.716   8.553 -0.7492  0.1092  0.7537
  187SLPC  H18R21579   1.442   0.778   8.521 -1.3539 -0.0974  1.9113
  187SLPC  H18S21580   1.608   0.788   8.582 -1.4538  2.0205 -1.7300
  187SLPC  H18T21581   1.487   0.659   8.639 -0.5724  1.5587  1.8262
  187SLPC   C3321582   1.612   1.805   7.285 -0.7493 -0.2386  0.1006
  187SLPC   H3X21583   1.524   1.854   7.238  0.0948  1.6961  0.4455
  187SLPC   H3Y21584   1.710   1.854   7.268 -0.1469 -1.5659 -0.4097
  187SLPC   C3421585   1.592   1.789   7.436  0.0775 -0.2817  0.4361
  187SLPC   H4X21586   1.506   1.725   7.464  0.0592 -0.9150 -0.9833
  187SLPC   H4Y21587   1.575   1.894   7.465  1.0136 -0.1230  0.4419
  187SLPC   C3521588   1.721   1.734   7.505  0.8732  0.1611 -0.1047
  187SLPC   H5X21589   1.805   1.797   7.469  0.8981 -1.1098 -2.4417
  187SLPC   H5Y21590   1.742   1.626   7.493  0.8359  0.0902  0.4342
  187SLPC   C3621591   1.709   1.739   7.656 -0.2818  0.0049 -0.1796
  187SLPC   H6X21592   1.613   1.719   7.710 -1.4418 -3.0080 -3.0068
  187SLPC   H6Y21593   1.732   1.846   7.672  0.1379 -0.0132 -0.6373
  187SLPC   C3721594   1.826   1.651   7.716  0.1783 -0.7438  0.0192
  187SLPC   H7X21595   1.782   1.548   7.717  0.9074 -1.0573  0.6029
  187SLPC   H7Y21596   1.912   1.667   7.648  0.1659  0.4058  0.2508
  187SLPC   C3821597   1.853   1.690   7.857  0.2046  0.1476  0.2857
  187SLPC   H8X21598   1.921   1.778   7.853 -1.6347  1.6406 -3.6008
  187SLPC   H8Y21599   1.914   1.601   7.885 -1.0426 -0.7447  0.2071
  187SLPC   C3921600   1.736   1.705   7.959 -0.1155  0.2091  1.1706
  187SLPC   H9X21601   1.670   1.617   7.967 -0.6221  0.5736  1.0581
  187SLPC   H9Y21602   1.670   1.782   7.914 -0.2788 -0.9925 -0.7748
  187SLPC  C31021603   1.771   1.718   8.108 -0.8024 -0.0318  0.0780
  187SLPC  H10X21604   1.849   1.796   8.114 -1.1056  0.2634  0.1903
  187SLPC  H10Y21605   1.806   1.620   8.148  1.2650  0.8432  0.5133
  187SLPC  C31121606   1.649   1.747   8.196  0.2260 -0.1968  0.4146
  187SLPC  H11X21607   1.570   1.669   8.204 -0.7376  0.6555 -0.4838
  187SLPC  H11Y21608   1.588   1.821   8.139 -0.7073 -0.9106  0.4502
  187SLPC  C31221609   1.673   1.797   8.338 -0.8178 -0.4837  0.8967
  187SLPC  H12X21610   1.579   1.822   8.389 -2.1764 -0.9483 -1.2404
  187SLPC  H12Y21611   1.730   1.893   8.330 -0.8208 -0.4505  1.2628
  187SLPC  C31321612   1.744   1.704   8.427  0.1396  0.1386 -0.4912
  187SLPC  H13X21613   1.766   1.752   8.525  2.0911  0.1138 -0.8654
  187SLPC  H13Y21614   1.838   1.660   8.386  0.6266 -0.2288  0.9604
  187SLPC  C31421615   1.658   1.573   8.461  0.0153  0.4952  0.1655
  187SLPC  H14X21616   1.652   1.504   8.374  1.4975 -1.3765  1.4680
  187SLPC  H14Y21617   1.554   1.604   8.479 -0.9832 -1.8638 -1.0475
  187SLPC  C31521618   1.707   1.501   8.581 -0.8357 -0.2201 -0.3800
  187SLPC  H15X21619   1.815   1.479   8.570 -1.1971 -2.8733  0.5143
  187SLPC  H15Y21620   1.661   1.404   8.612  0.5973 -0.2693  1.8387
  187SLPC  C31621621   1.688   1.583   8.718 -0.1048 -0.1027 -0.1346
  187SLPC  H16X21622   1.580   1.607   8.723 -0.2725 -1.1252  2.1079
  187SLPC  H16Y21623   1.755   1.671   8.719 -0.0443 -0.1369  1.8892
  187SLPC  C31721624   1.716   1.502   8.851 -0.7965  0.1411 -0.3627
  187SLPC  H17X21625   1.697   1.395   8.826  0.5090  0.1374 -1.4173
  187SLPC  H17Y21626   1.661   1.542   8.939 -2.1470 -1.5562 -0.3803
  187SLPC  C31821627   1.872   1.493   8.889  0.2752 -0.2936 -0.5156
  187SLPC  H18X21628   1.894   1.415   8.965  1.0948  0.3052 -0.1257
  187SLPC  H18Y21629   1.906   1.593   8.923 -0.0221 -0.2513 -0.3390
  187SLPC  H18Z21630   1.919   1.474   8.790 -1.1183  0.9032 -1.4574
  188SLPC     N21631   5.918   2.377   6.040 -0.2207  0.5174 -0.0101
  188SLPC   C1321632   5.778   2.412   6.030  0.5717 -0.0620 -0.1956
  188SLPC  H13A21633   5.750   2.481   5.951 -1.5923 -0.7705 -0.1288
  188SLPC  H13B21634   5.730   2.318   6.009  1.9166 -1.0561  1.0553
  188SLPC  H13C21635   5.745   2.450   6.125 -3.6117 -0.5951 -1.2278
  188SLPC   C1421636   5.946   2.325   5.902  0.0828 -0.5337  0.7727
  188SLPC  H14A21637   6.044   2.282   5.889  0.0744  0.0837 -2.0490
  188SLPC  H14B21638   5.877   2.246   5.875 -1.1918  0.7244  0.1960
  188SLPC  H14C21639   5.929   2.394   5.821 -2.8991 -2.2616 -0.2360
  188SLPC   C1521640   5.930   2.266   6.139 -0.0757 -0.1904  0.2672
  188SLPC  H15A21641   5.911   2.303   6.239  2.0804  0.4038  0.5213
  188SLPC  H15B21642   5.873   2.177   6.115 -1.1334  0.5601 -0.0604
  188SLPC  H15C21643   6.035   2.242   6.149 -0.2872 -1.0315  0.5748
  188SLPC   C1221644   6.001   2.498   6.077  0.4396  0.1918 -0.5618
  188SLPC  H12A21645   5.974   2.575   6.007 -0.3237 -0.0447 -0.5373
  188SLPC  H12B21646   6.101   2.474   6.042 -0.0665 -2.8114 -0.2241
  188SLPC   C1121647   5.991   2.551   6.221  0.2657 -0.4925  0.1149
  188SLPC  H11A21648   6.066   2.631   6.232 -0.5885  1.0677 -3.7493
  188SLPC  H11B21649   6.007   2.466   6.292 -1.4963 -2.1204 -1.3149
  188SLPC     P21650   5.763   2.536   6.370 -0.0343 -0.2382 -0.0925
  188SLPC   O1321651   5.660   2.638   6.399  0.6245  0.3374  0.0295
  188SLPC   O1421652   5.709   2.405   6.326  0.5010 -0.5802  0.7511
  188SLPC   O1221653   5.860   2.600   6.253  0.4800  0.1315 -0.5379
  188SLPC   O1121654   5.861   2.523   6.488 -0.3067 -0.3593  0.0910
  188SLPC    C121655   5.937   2.633   6.539  0.4188  0.5873  0.0407
  188SLPC    HA21656   6.016   2.596   6.607  0.6560  0.1022 -0.4954
  188SLPC    HB21657   5.980   2.705   6.466 -1.0440  0.9888 -0.4593
  188SLPC    C221658   5.851   2.697   6.650  0.2468 -0.5619 -0.2670
  188SLPC    HS21659   5.765   2.746   6.600 -0.2139  0.0604  1.0945
  188SLPC   O2121660   5.932   2.793   6.717 -0.6748  0.3033 -0.1015
  188SLPC   C2121661   5.871   2.878   6.798 -0.3821  0.1308  0.3685
  188SLPC   O2221662   5.752   2.910   6.789  0.3377 -0.2368  0.0648
  188SLPC   C2221663   5.984   2.957   6.869  0.3880  0.4980  0.0514
  188SLPC   H2R21664   6.050   2.878   6.911 -2.6332 -1.0553  2.2662
  188SLPC   H2S21665   6.039   3.005   6.785  0.0801  1.0484  0.1613
  188SLPC    C321666   5.792   2.586   6.756 -0.1811  0.3573 -0.1450
  188SLPC    HX21667   5.807   2.489   6.705  0.4917 -0.0919  0.8768
  188SLPC    HY21668   5.685   2.610   6.771 -0.1793  1.1000 -1.1490
  188SLPC   O3121669   5.851   2.592   6.887  0.5352 -0.0516 -0.1963
  188SLPC   C3121670   5.947   2.499   6.913  0.8920 -0.7104 -0.2083
  188SLPC   O3221671   5.992   2.424   6.831  0.2644 -0.1821  0.1907
  188SLPC   C3221672   6.011   2.533   7.048  0.5999 -0.1453 -0.0423
  188SLPC   H2X21673   5.952   2.610   7.103  0.0956  1.4737 -2.6562
  188SLPC   H2Y21674   6.105   2.581   7.014  0.1414  1.0716  0.3470
  188SLPC   C2321675   5.935   3.062   6.969  0.9128  0.2641  0.0434
  188SLPC   H3R21676   5.868   3.133   6.916  1.1857  0.7247  0.3157
  188SLPC   H3S21677   6.025   3.098   7.022  1.1572 -0.1637 -0.0772
  188SLPC   C2421678   5.838   2.998   7.077  0.0858  0.7166 -0.5732
  188SLPC   H4R21679   5.771   2.925   7.027 -2.0889  0.8536  1.8965
  188SLPC   H4S21680   5.770   3.077   7.117 -1.4582 -0.9572  0.2690
  188SLPC   C2521681   5.900   2.933   7.199  0.6128 -0.0941  0.1890
  188SLPC   H5R21682   5.975   3.007   7.234 -0.1436  1.1565 -0.7533
  188SLPC   H5S21683   5.964   2.852   7.156 -0.6713 -0.4600 -1.0929
  188SLPC   C2621684   5.796   2.908   7.314  0.0231  0.0755 -0.0728
  188SLPC   H6R21685   5.787   2.797   7.315  1.3095 -0.0630 -1.2429
  188SLPC   H6S21686   5.695   2.938   7.278 -0.1592 -0.8458 -0.3609
  188SLPC   C2721687   5.824   2.964   7.455  0.2397  0.6155 -0.0658
  188SLPC   H7R21688   5.828   3.075   7.447 -1.9427  0.7549  0.3210
  188SLPC   H7S21689   5.923   2.920   7.481 -1.2467 -2.8239  0.2982
  188SLPC   C2821690   5.723   2.920   7.568  0.0956  0.6529  0.3504
  188SLPC   H8R21691   5.721   2.809   7.575 -0.8073  0.7458  3.2948
  188SLPC   H8S21692   5.627   2.956   7.526  1.7417  3.9372 -0.9242
  188SLPC   C2921693   5.747   2.985   7.700 -0.1788  0.0435  0.6346
  188SLPC   H9R21694   5.708   3.088   7.695 -2.0002 -0.6062  0.4499
  188SLPC  C21021695   5.774   2.926   7.811  0.1554 -0.0557  0.0920
  188SLPC  H10R21696   5.795   2.988   7.899  1.8713  0.7962 -0.8777
  188SLPC  C21121697   5.795   2.776   7.829  0.7241 -0.0487 -0.3597
  188SLPC  H11R21698   5.885   2.733   7.778 -0.6868 -0.8565 -2.3236
  188SLPC  H11S21699   5.703   2.730   7.786 -0.0752  0.9838  0.2181
  188SLPC  C21221700   5.808   2.730   7.976 -0.0887 -0.5707  0.3000
  188SLPC  H12R21701   5.897   2.667   7.990  0.3786 -0.1457 -0.6482
  188SLPC  C21321702   5.715   2.733   8.074  0.3028  0.4824 -0.0190
  188SLPC  H13R21703   5.746   2.681   8.166  0.5507 -0.1350 -0.4423
  188SLPC  C21421704   5.574   2.781   8.084  0.9217  0.0722  0.3931
  188SLPC  H14R21705   5.558   2.865   8.013 -1.7989 -0.9233 -0.3086
  188SLPC  H14S21706   5.553   2.821   8.185  2.0450  2.2872 -0.1828
  188SLPC  C21521707   5.468   2.668   8.048  0.3643  0.4387  0.4230
  188SLPC  H15R21708   5.487   2.572   8.102  1.0739 -0.5126 -1.4089
  188SLPC  H15S21709   5.474   2.648   7.939  2.0983  0.4523  0.4944
  188SLPC  C21621710   5.319   2.713   8.071 -0.3875 -0.4451  0.5944
  188SLPC  H16R21711   5.255   2.635   8.024  0.1783 -0.3886 -0.2867
  188SLPC  H16S21712   5.298   2.807   8.015 -1.0336 -0.5293  0.6811
  188SLPC  C21721713   5.269   2.722   8.220  0.4075  0.3338  0.0308
  188SLPC  H17R21714   5.160   2.703   8.215  0.2655  0.0371  2.7012
  188SLPC  H17S21715   5.293   2.824   8.257  0.8016  0.9128 -1.7548
  188SLPC  C21821716   5.328   2.619   8.327 -0.5304 -0.0388 -0.1678
  188SLPC  H18R21717   5.344   2.527   8.267 -1.5000  0.5480 -1.3725
  188SLPC  H18S21718   5.254   2.602   8.408 -1.0493  0.0089 -0.6338
  188SLPC  H18T21719   5.425   2.642   8.377 -0.7227  1.5687 -0.4703
  188SLPC   C3321720   6.033   2.409   7.138 -0.1608  0.0973  0.0325
  188SLPC   H3X21721   6.082   2.434   7.234 -1.3904  0.2725  0.6291
  188SLPC   H3Y21722   6.089   2.331   7.083 -0.9622 -0.5403  0.1037
  188SLPC   C3421723   5.898   2.341   7.170  0.0792 -0.1710 -0.6378
  188SLPC   H4X21724   5.906   2.253   7.238 -2.0242 -0.3432 -0.5680
  188SLPC   H4Y21725   5.857   2.314   7.070  0.1847 -0.4035 -0.6192
  188SLPC   C3521726   5.792   2.418   7.250  0.1590  0.3270 -0.5493
  188SLPC   H5X21727   5.704   2.353   7.266  0.5166  0.0321  0.3317
  188SLPC   H5Y21728   5.751   2.508   7.200  0.8904  1.5757  0.9735
  188SLPC   C3621729   5.847   2.492   7.378 -0.4112  0.0112 -0.7774
  188SLPC   H6X21730   5.770   2.554   7.428  0.8388 -0.4329  1.8601
  188SLPC   H6Y21731   5.932   2.552   7.341  0.1635 -1.4501 -1.9381
  188SLPC   C3721732   5.899   2.389   7.474  0.5404 -0.0786 -0.2056
  188SLPC   H7X21733   5.971   2.321   7.424  1.8056  2.5922 -2.2878
  188SLPC   H7Y21734   5.810   2.330   7.507  1.6386 -0.5147  2.2071
  188SLPC   C3821735   5.986   2.433   7.596 -0.1035  0.5553  0.3562
  188SLPC   H8X21736   6.028   2.527   7.553 -1.6108  0.7365 -0.8091
  188SLPC   H8Y21737   6.069   2.363   7.617 -2.3257 -2.3008  0.1342
  188SLPC   C3921738   5.913   2.459   7.731  0.0278  0.1067  0.3181
  188SLPC   H9X21739   5.827   2.521   7.699  1.5931  1.3779 -1.6632
  188SLPC   H9Y21740   5.979   2.523   7.793  0.5268  1.2284 -1.3102
  188SLPC  C31021741   5.878   2.332   7.807  0.6503 -0.3071  0.4106
  188SLPC  H10X21742   5.963   2.261   7.813  1.6241  0.9165  1.5995
  188SLPC  H10Y21743   5.794   2.287   7.751 -0.2616  0.9907  0.6788
  188SLPC  C31121744   5.811   2.367   7.940  0.1201 -0.6218 -0.0933
  188SLPC  H11X21745   5.725   2.436   7.922  0.9885  0.3097 -0.7232
  188SLPC  H11Y21746   5.886   2.420   8.002 -0.6745  2.1905 -1.3682
  188SLPC  C31221747   5.760   2.244   8.013 -0.0582 -0.3295 -0.7963
  188SLPC  H12X21748   5.854   2.196   8.049 -0.6495 -0.1013  1.1767
  188SLPC  H12Y21749   5.704   2.187   7.936  0.2288  0.0471 -1.2818
  188SLPC  C31321750   5.647   2.274   8.126  0.1482 -0.6545  0.0202
  188SLPC  H13X21751   5.618   2.171   8.157 -1.0076 -0.7835 -1.3871
  188SLPC  H13Y21752   5.557   2.316   8.077  0.6604 -0.0792 -0.4349
  188SLPC  C31421753   5.701   2.356   8.239 -0.5217 -1.0431  0.1481
  188SLPC  H14X21754   5.706   2.465   8.217  0.1963 -0.7852  1.4629
  188SLPC  H14Y21755   5.807   2.326   8.249 -0.7083 -1.0922  2.3870
  188SLPC  C31521756   5.625   2.339   8.371  0.3119  0.1316 -0.4408
  188SLPC  H15X21757   5.641   2.239   8.417  2.0603 -0.5717 -2.3920
  188SLPC  H15Y21758   5.520   2.355   8.341 -0.2890 -1.3782  0.7607
  188SLPC  C31621759   5.641   2.460   8.467 -0.3098 -0.2327  0.0347
  188SLPC  H16X21760   5.556   2.432   8.534 -1.6131  0.6831 -1.1757
  188SLPC  H16Y21761   5.616   2.558   8.421 -1.2786 -0.3769  0.2190
  188SLPC  C31721762   5.771   2.475   8.536 -0.6727 -0.1218 -0.6113
  188SLPC  H17X21763   5.844   2.506   8.458  1.3649  1.0281  1.6014
  188SLPC  H17Y21764   5.803   2.375   8.571 -0.7956 -1.0302 -2.9461
  188SLPC  C31821765   5.779   2.583   8.645  0.3050 -0.0139 -0.3114
  188SLPC  H18X21766   5.769   2.687   8.606  0.2228 -0.2020 -0.7912
  188SLPC  H18Y21767   5.881   2.574   8.688  0.4058 -0.9849 -0.7360
  188SLPC  H18Z21768   5.718   2.558   8.735  1.9425 -1.8994  0.3565
  189SLPC     N21769   0.801   5.760   6.040 -0.0891 -1.0113 -0.1637
  189SLPC   C1321770   0.794   5.839   5.911 -0.3340  0.5457  0.3974
  189SLPC  H13A21771   0.784   5.944   5.934 -2.1208  0.1817  1.4342
  189SLPC  H13B21772   0.889   5.826   5.860 -0.1451 -2.5662  1.3017
  189SLPC  H13C21773   0.715   5.814   5.842  0.7336 -0.9353 -0.3507
  189SLPC   C1421774   0.813   5.614   6.002 -0.4479  1.0153 -0.1143
  189SLPC  H14A21775   0.825   5.557   6.093  0.9436  0.3090 -0.7216
  189SLPC  H14B21776   0.723   5.578   5.953 -0.5972  1.6877 -0.3500
  189SLPC  H14C21777   0.897   5.605   5.935  0.6518  0.9297  1.2407
  189SLPC   C1521778   0.676   5.778   6.112  0.4771  0.2422 -0.3392
  189SLPC  H15A21779   0.672   5.884   6.131 -0.7005  0.0326  0.7367
  189SLPC  H15B21780   0.593   5.766   6.043 -0.1387  1.0241  0.2385
  189SLPC  H15C21781   0.663   5.732   6.209 -0.2270  1.2795  0.0787
  189SLPC   C1221782   0.919   5.804   6.120  0.1279  0.1379 -0.5062
  189SLPC  H12A21783   0.917   5.909   6.146 -0.6685  0.1156 -0.4354
  189SLPC  H12B21784   1.007   5.803   6.058  0.6695 -1.1037  0.2538
  189SLPC   C1121785   0.949   5.730   6.251  0.9125 -0.6507  0.2959
  189SLPC  H11A21786   0.857   5.724   6.313  0.1012  1.2030 -0.6259
  189SLPC  H11B21787   1.009   5.801   6.311  0.2301  0.9979 -0.8813
  189SLPC     P21788   0.997   5.487   6.312 -0.1103  0.3449 -0.2103
  189SLPC   O1321789   0.858   5.452   6.278 -0.4600  0.2620 -0.0813
  189SLPC   O1421790   1.103   5.392   6.279 -0.3998  0.1580  0.1422
  189SLPC   O1221791   1.035   5.616   6.234  0.0551  0.2991  0.7995
  189SLPC   O1121792   0.997   5.533   6.464 -0.1950  0.5253 -0.0238
  189SLPC    C121793   1.087   5.631   6.513  0.1114  0.1108  0.2899
  189SLPC    HA21794   1.161   5.668   6.438  2.1012 -0.0845  2.0810
  189SLPC    HB21795   1.026   5.717   6.549 -0.2674 -0.3727  0.8074
  189SLPC    C221796   1.167   5.584   6.643 -0.5439 -0.0015 -0.1334
  189SLPC    HS21797   1.198   5.480   6.622  1.7624  0.8403 -1.2423
  189SLPC   O2121798   1.070   5.585   6.752 -0.3952  0.3885  0.1151
  189SLPC   C2121799   1.067   5.476   6.833  0.6057 -0.9625  0.6629
  189SLPC   O2221800   1.149   5.386   6.829  0.8843 -0.2036 -0.6389
  189SLPC   C2221801   0.960   5.492   6.935 -0.8302  0.2647 -0.0465
  189SLPC   H2R21802   0.969   5.589   6.989 -0.9474  0.2730 -0.0410
  189SLPC   H2S21803   0.864   5.489   6.879 -0.8160  1.5873 -0.1764
  189SLPC    C321804   1.291   5.671   6.674 -0.9571  0.7598 -0.5961
  189SLPC    HX21805   1.252   5.775   6.683 -1.6525  0.4217  0.4583
  189SLPC    HY21806   1.361   5.664   6.588 -1.6252 -0.1543 -1.0771
  189SLPC   O3121807   1.354   5.639   6.806  0.0092 -0.0363  0.0556
  189SLPC   C3121808   1.426   5.533   6.798 -0.3373  0.5280 -0.1671
  189SLPC   O3221809   1.449   5.457   6.705  0.2563  0.0321  1.2483
  189SLPC   C3221810   1.478   5.502   6.946  0.7171 -0.3253  0.6343
  189SLPC   H2X21811   1.558   5.575   6.971  0.1475  1.1048 -1.4634
  189SLPC   H2Y21812   1.524   5.401   6.950  1.4615 -0.1535 -1.8372
  189SLPC   C2321813   0.953   5.378   7.035  0.4589 -0.4886 -0.6296
  189SLPC   H3R21814   1.050   5.371   7.088  0.3965 -2.6412 -0.7186
  189SLPC   H3S21815   0.930   5.288   6.974 -0.6421  0.2028 -1.2688
  189SLPC   C2421816   0.840   5.399   7.137  0.2913 -0.0504 -0.3775
  189SLPC   H4R21817   0.740   5.391   7.090  0.8579 -0.3924 -1.5483
  189SLPC   H4S21818   0.850   5.493   7.195 -0.4489 -0.1932 -0.0137
  189SLPC   C2521819   0.854   5.293   7.249  0.0166 -0.1347  0.1083
  189SLPC   H5R21820   0.950   5.299   7.304 -0.3343  1.4417  0.5818
  189SLPC   H5S21821   0.849   5.193   7.200 -0.6639  0.1320 -0.3914
  189SLPC   C2621822   0.744   5.301   7.358  0.0878 -1.4311  0.1655
  189SLPC   H6R21823   0.646   5.267   7.318  0.3626 -1.2085 -0.7067
  189SLPC   H6S21824   0.728   5.408   7.383 -2.3600 -1.3343 -1.4581
  189SLPC   C2721825   0.766   5.215   7.484  0.0058  0.3983  0.3205
  189SLPC   H7R21826   0.872   5.214   7.517 -0.2180  1.8546  1.1797
  189SLPC   H7S21827   0.737   5.110   7.463 -1.4542  0.8677 -0.0728
  189SLPC   C2821828   0.678   5.258   7.594 -0.6261 -0.3841  0.0177
  189SLPC   H8R21829   0.705   5.364   7.616 -0.5379 -0.8705  2.5442
  189SLPC   H8S21830   0.697   5.204   7.689 -3.6607 -0.5589  0.6256
  189SLPC   C2921831   0.529   5.266   7.570  0.4355 -0.2589 -0.6272
  189SLPC   H9R21832   0.501   5.360   7.521 -0.6074 -1.1988 -1.9001
  189SLPC  C21021833   0.441   5.176   7.626 -0.5054  0.1382 -0.2017
  189SLPC  H10R21834   0.336   5.208   7.616 -0.5045  0.5334  0.8518
  189SLPC  C21121835   0.472   5.056   7.713  0.3163  0.3143  0.1412
  189SLPC  H11R21836   0.443   5.075   7.818  0.0381  1.2343 -0.0993
  189SLPC  H11S21837   0.578   5.023   7.710  0.0928 -0.3310 -0.9318
  189SLPC  C21221838   0.396   4.940   7.655 -0.8318  0.0305 -0.4554
  189SLPC  H12R21839   0.404   4.926   7.546 -2.0816 -0.5782 -0.4888
  189SLPC  C21321840   0.317   4.852   7.725  0.0529 -0.2570  0.0758
  189SLPC  H13R21841   0.255   4.780   7.670 -1.1725  0.6271  0.2759
  189SLPC  C21421842   0.297   4.851   7.876  0.4051 -0.1108 -0.6177
  189SLPC  H14R21843   0.381   4.901   7.930  0.6144  1.4682 -2.3197
  189SLPC  H14S21844   0.299   4.747   7.916 -0.4719  0.0484 -0.1286
  189SLPC  C21521845   0.167   4.928   7.905  0.3821  0.1780 -0.0596
  189SLPC  H15R21846   0.141   4.895   8.008 -1.3216 -1.0680 -0.8282
  189SLPC  H15S21847   0.082   4.892   7.842  0.1466  0.7316 -0.0666
  189SLPC  C21621848   0.185   5.077   7.892 -0.3667  0.0399 -0.4218
  189SLPC  H16R21849   0.201   5.111   7.788  2.2850 -0.3548 -0.2188
  189SLPC  H16S21850   0.274   5.108   7.952  0.4301 -1.4161 -0.8100
  189SLPC  C21721851   0.067   5.157   7.951  0.6569 -0.6041 -0.0353
  189SLPC  H17R21852  -0.014   5.081   7.947  0.5524 -0.4821 -3.3577
  189SLPC  H17S21853   0.036   5.233   7.876 -2.3535  1.1943  2.7361
  189SLPC  C21821854   0.083   5.221   8.090  0.4678 -0.1300 -0.9703
  189SLPC  H18R21855   0.110   5.151   8.171 -0.1379  1.0256  0.2674
  189SLPC  H18S21856  -0.006   5.279   8.123 -0.1787 -0.7927 -1.5074
  189SLPC  H18T21857   0.163   5.298   8.088 -0.8399  1.4674  1.7819
  189SLPC   C3321858   1.374   5.523   7.055  0.2022  0.5091 -0.2054
  189SLPC   H3X21859   1.309   5.433   7.054 -0.2783  0.8585 -0.8616
  189SLPC   H3Y21860   1.316   5.618   7.052 -0.2671  0.3942  2.4759
  189SLPC   C3421861   1.435   5.516   7.204  0.4480  0.1823  0.2532
  189SLPC   H4X21862   1.522   5.585   7.200  1.4825 -1.0515  0.7626
  189SLPC   H4Y21863   1.481   5.416   7.218  0.1510 -0.6459 -3.6177
  189SLPC   C3521864   1.340   5.550   7.313 -0.1871 -0.1380  0.1065
  189SLPC   H5X21865   1.264   5.628   7.289 -2.0833 -1.6248  0.9498
  189SLPC   H5Y21866   1.395   5.572   7.407  0.2930  0.4257 -0.3035
  189SLPC   C3621867   1.260   5.421   7.347 -0.2199  0.0181  0.2673
  189SLPC   H6X21868   1.316   5.327   7.330 -0.0143  0.3988 -1.3567
  189SLPC   H6Y21869   1.180   5.417   7.270 -1.6899  0.2824  1.7165
  189SLPC   C3721870   1.193   5.414   7.487  0.0620  0.2031 -0.1767
  189SLPC   H7X21871   1.119   5.331   7.486 -1.1692  1.2676 -0.2843
  189SLPC   H7Y21872   1.140   5.511   7.500 -0.3123 -0.0875  0.5026
  189SLPC   C3821873   1.282   5.394   7.608  0.2285  0.1342 -0.5888
  189SLPC   H8X21874   1.380   5.447   7.597 -0.7733  2.1513 -0.2773
  189SLPC   H8Y21875   1.298   5.286   7.624  0.9977  0.1495 -1.1763
  189SLPC   C3921876   1.215   5.440   7.742  0.1481  1.1375 -0.7092
  189SLPC   H9X21877   1.191   5.547   7.721 -1.2107  1.1611  0.7709
  189SLPC   H9Y21878   1.277   5.426   7.833  0.9351  1.1432 -1.2316
  189SLPC  C31021879   1.079   5.366   7.762  0.3072 -0.3940  0.7315
  189SLPC  H10X21880   1.032   5.355   7.662  0.0083  0.9324  0.7001
  189SLPC  H10Y21881   1.013   5.440   7.811  0.4080  1.2353 -1.4122
  189SLPC  C31121882   1.107   5.236   7.836 -0.5135 -0.6583 -0.3297
  189SLPC  H11X21883   1.143   5.254   7.940 -1.8874 -0.4801  0.1335
  189SLPC  H11Y21884   1.195   5.190   7.787  1.0907  1.8703 -0.0430
  189SLPC  C31221885   0.993   5.136   7.832 -0.2476  0.9918 -0.4531
  189SLPC  H12X21886   1.025   5.043   7.882 -1.9031 -0.1557 -1.4294
  189SLPC  H12Y21887   0.972   5.124   7.723  3.5095  0.3768 -1.2495
  189SLPC  C31321888   0.858   5.176   7.904  0.0513  0.3333 -0.3419
  189SLPC  H13X21889   0.781   5.111   7.857 -0.1491  0.2236  0.1293
  189SLPC  H13Y21890   0.840   5.279   7.866 -2.0570  0.3781  0.6138
  189SLPC  C31421891   0.860   5.164   8.052 -0.1276  0.5484 -0.1417
  189SLPC  H14X21892   0.773   5.223   8.087  0.8638  1.8084  0.2807
  189SLPC  H14Y21893   0.948   5.211   8.100  0.3204 -1.4370  1.1188
  189SLPC  C31521894   0.855   5.014   8.094 -0.4322 -0.1240 -0.2749
  189SLPC  H15X21895   0.951   4.964   8.071 -0.5440 -0.3669 -0.2142
  189SLPC  H15Y21896   0.787   4.956   8.028  0.1104  0.7193 -1.6303
  189SLPC  C31621897   0.795   4.995   8.238  0.2978  0.2046 -0.1373
  189SLPC  H16X21898   0.793   4.885   8.252  1.0658 -0.0034 -1.5020
  189SLPC  H16Y21899   0.691   5.033   8.231  0.2014  0.7724  3.0217
  189SLPC  C31721900   0.850   5.075   8.352 -0.7239  0.4947 -0.1521
  189SLPC  H17X21901   0.859   5.180   8.320  3.9637  0.3711  0.0899
  189SLPC  H17Y21902   0.950   5.029   8.363 -1.6218 -2.1143 -1.7469
  189SLPC  C31821903   0.759   5.079   8.476  0.4765 -0.5010 -0.2273
  189SLPC  H18X21904   0.758   4.975   8.515  1.1518 -0.7370 -0.8021
  189SLPC  H18Y21905   0.658   5.109   8.442  0.4663  1.5051  1.3670
  189SLPC  H18Z21906   0.806   5.146   8.551 -1.2647 -0.7243  1.1248
  190SLPC     N21907   1.119   4.678   6.382  0.4493 -0.2533  0.8629
  190SLPC   C1321908   1.154   4.621   6.515 -0.5217  0.1581 -0.3011
  190SLPC  H13A21909   1.095   4.679   6.585  0.1080  0.0391  0.3421
  190SLPC  H13B21910   1.143   4.516   6.536  2.2797  0.1273  1.5807
  190SLPC  H13C21911   1.257   4.643   6.540 -0.6160  0.4061 -0.1265
  190SLPC   C1421912   0.985   4.629   6.341  0.2891  0.8257 -0.1297
  190SLPC  H14A21913   0.953   4.677   6.249  0.9121 -0.3403 -0.9803
  190SLPC  H14B21914   0.966   4.523   6.333 -0.2460  0.9750 -1.1058
  190SLPC  H14C21915   0.917   4.669   6.415  0.9534  1.6761  0.0372
  190SLPC   C1521916   1.223   4.634   6.273 -0.2424 -0.2098  0.1804
  190SLPC  H15A21917   1.221   4.698   6.186  1.9092 -2.6920 -1.8648
  190SLPC  H15B21918   1.322   4.641   6.316 -0.0455  2.0038 -0.4987
  190SLPC  H15C21919   1.206   4.532   6.241 -1.2214  0.3603 -1.2173
  190SLPC   C1221920   1.126   4.835   6.380  0.5817  0.6660 -0.1657
  190SLPC  H12A21921   1.224   4.859   6.419  0.4079 -1.8578  2.0963
  190SLPC  H12B21922   1.052   4.863   6.453  0.1560 -0.2975 -0.2183
  190SLPC   C1121923   1.103   4.908   6.248  0.9025 -0.4065 -0.4879
  190SLPC  H11A21924   1.182   4.876   6.177  0.9233 -1.6203  0.0608
  190SLPC  H11B21925   1.119   5.017   6.262 -0.3831 -0.4884  2.2038
  190SLPC     P21926   0.839   4.955   6.209  0.0798  0.7255 -0.1393
  190SLPC   O1321927   0.831   5.081   6.124 -0.1103 -0.2273  0.0321
  190SLPC   O1421928   0.730   4.861   6.190  0.1716  0.6612 -0.0231
  190SLPC   O1221929   0.976   4.878   6.184 -0.1231 -0.4319  0.2883
  190SLPC   O1121930   0.851   4.988   6.366  0.2237  0.0279  0.2079
  190SLPC    C121931   0.868   5.120   6.414 -0.5103  0.4779  0.4624
  190SLPC    HA21932   0.951   5.121   6.487 -0.3279  0.1919  0.2613
  190SLPC    HB21933   0.882   5.199   6.337 -1.0035  1.3769  1.2626
  190SLPC    C221934   0.739   5.167   6.497  0.4291  0.1392 -0.2805
  190SLPC    HS21935   0.764   5.272   6.523 -0.7902  1.5941 -4.1830
  190SLPC   O2121936   0.723   5.079   6.610  1.0512 -0.0303 -0.4075
  190SLPC   C2121937   0.708   5.144   6.729  0.1119  0.3935  0.4650
  190SLPC   O2221938   0.741   5.256   6.748  0.3705  0.2572  0.2203
  190SLPC   C2221939   0.633   5.066   6.828 -0.7055  0.1282 -0.2963
  190SLPC   H2R21940   0.533   5.058   6.779  0.4046 -1.9336 -2.3938
  190SLPC   H2S21941   0.673   4.963   6.832 -1.2628 -0.1370 -1.1152
  190SLPC    C321942   0.613   5.176   6.403 -0.3612 -0.7092 -0.7340
  190SLPC    HX21943   0.573   5.073   6.389  1.2186 -1.2487 -1.5447
  190SLPC    HY21944   0.652   5.211   6.305 -0.1580  0.5809 -0.2062
  190SLPC   O3121945   0.517   5.272   6.450  0.8767  0.5023  0.0247
  190SLPC   C3121946   0.416   5.230   6.525 -1.0811  0.1001 -0.3744
  190SLPC   O3221947   0.396   5.119   6.572 -0.9098 -0.4968  0.6159
  190SLPC   C3221948   0.317   5.347   6.550 -0.0092 -0.0950  0.5053
  190SLPC   H2X21949   0.241   5.302   6.617  0.2222 -0.0113  0.8249
  190SLPC   H2Y21950   0.274   5.374   6.451 -1.2855  0.3392  1.1588
  190SLPC   C2321951   0.626   5.130   6.965  0.0073  0.3655  0.6373
  190SLPC   H3R21952   0.620   5.240   6.978  0.1009  0.2251  1.9290
  190SLPC   H3S21953   0.720   5.092   7.009 -0.1980 -0.1264  0.6642
  190SLPC   C2421954   0.519   5.093   7.062  0.0549  0.0080  0.1662
  190SLPC   H4R21955   0.553   5.097   7.168 -0.1043  0.5635  0.2028
  190SLPC   H4S21956   0.501   4.985   7.047 -0.1044  0.2010 -1.1942
  190SLPC   C2521957   0.388   5.171   7.048 -0.4963 -0.6179  0.0124
  190SLPC   H5R21958   0.376   5.201   6.942  0.6322 -2.5968 -0.7331
  190SLPC   H5S21959   0.388   5.268   7.103  0.6673 -1.7282  2.1230
  190SLPC   C2621960   0.253   5.090   7.068 -0.1715  0.3890  0.3803
  190SLPC   H6R21961   0.264   5.001   7.003  0.3848  0.1936  0.7348
  190SLPC   H6S21962   0.173   5.146   7.016 -0.7801 -0.6237  0.2029
  190SLPC   C2721963   0.217   5.059   7.218 -1.0271 -0.2314 -0.5212
  190SLPC   H7R21964   0.246   5.153   7.269  0.3364 -0.0384 -1.5744
  190SLPC   H7S21965   0.289   4.986   7.261  0.1898  0.2188 -1.7224
  190SLPC   C2821966   0.072   5.005   7.239 -1.2006 -0.2513 -0.0692
  190SLPC   H8R21967   0.053   4.915   7.178 -0.5414  0.5769 -1.5387
  190SLPC   H8S21968  -0.014   5.070   7.215 -1.1109  0.1414  0.6378
  190SLPC   C2921969   0.045   4.996   7.383  0.1464 -0.3951 -0.0199
  190SLPC   H9R21970   0.046   5.090   7.439 -1.0851  1.1282 -2.3579
  190SLPC  C21021971   0.033   4.877   7.445  0.3339 -0.0310 -0.6629
  190SLPC  H10R21972   0.006   4.887   7.551 -1.4292  0.7656 -1.1626
  190SLPC  C21121973   0.048   4.742   7.377 -1.0218 -0.2564 -0.3559
  190SLPC  H11R21974   0.155   4.734   7.351 -0.3555 -2.7840  2.5448
  190SLPC  H11S21975   0.006   4.746   7.274  1.5270  0.1012 -1.4434
  190SLPC  C21221976   0.024   4.618   7.459  0.2575 -0.0042  0.0696
  190SLPC  H12R21977  -0.072   4.614   7.512 -0.1107 -1.1198 -0.6440
  190SLPC  C21321978   0.109   4.517   7.468 -0.5488  0.4307 -0.4621
  190SLPC  H13R21979   0.082   4.429   7.529  0.4267  0.3537 -0.1116
  190SLPC  C21421980   0.237   4.496   7.401 -0.1781  0.3918 -0.0448
  190SLPC  H14R21981   0.248   4.559   7.310  0.4933  0.4806  0.0912
  190SLPC  H14S21982   0.242   4.390   7.371 -1.8768 -0.3230  1.9105
  190SLPC  C21521983   0.362   4.529   7.488 -0.1837  0.1216 -0.8513
  190SLPC  H15R21984   0.357   4.631   7.531 -1.8383 -1.0275  1.9877
  190SLPC  H15S21985   0.453   4.519   7.425 -0.8724 -2.4537 -1.5847
  190SLPC  C21621986   0.396   4.430   7.606 -0.1464 -0.1212  0.5998
  190SLPC  H16R21987   0.418   4.326   7.573  0.9623  0.6061 -1.1271
  190SLPC  H16S21988   0.306   4.421   7.670  0.3961  0.2333  1.4316
  190SLPC  C21721989   0.502   4.467   7.696  0.3607 -0.4594  0.0854
  190SLPC  H17R21990   0.493   4.572   7.731 -2.0704 -0.4039 -0.5164
  190SLPC  H17S21991   0.598   4.462   7.641  0.4678  0.7782  0.1434
  190SLPC  C21821992   0.528   4.383   7.818  0.4108 -0.6065 -0.0815
  190SLPC  H18R21993   0.521   4.273   7.806 -2.2530 -0.3232 -1.8650
  190SLPC  H18S21994   0.462   4.412   7.903  0.7986 -0.0407  0.0341
  190SLPC  H18T21995   0.625   4.421   7.858  0.9115 -1.5112 -0.3951
  190SLPC   C3321996   0.379   5.463   6.631 -0.1977  0.7170  1.0546
  190SLPC   H3X21997   0.314   5.552   6.618  1.2728  1.6962  0.2349
  190SLPC   H3Y21998   0.471   5.495   6.578 -1.9095 -1.1128 -3.5399
  190SLPC   C3421999   0.390   5.434   6.779  0.1916 -0.0105 -0.6060
  190SLPC   H4X22000   0.443   5.338   6.791  1.2163  0.8517  2.9237
  190SLPC   H4Y22001   0.288   5.419   6.821  0.4413 -1.5296 -0.5032
  190SLPC   C3522002   0.474   5.545   6.844 -0.2202  0.2301  0.5939
  190SLPC   H5X22003   0.422   5.641   6.829 -0.0857  0.0535 -1.1334
  190SLPC   H5Y22004   0.572   5.547   6.793 -1.9505  2.1550 -3.0046
  190SLPC   C3622005   0.494   5.531   6.997  0.3968 -0.3340  1.1606
  190SLPC   H6X22006   0.561   5.443   7.003  0.4848 -0.7145 -2.8579
  190SLPC   H6Y22007   0.394   5.509   7.042 -1.0925 -1.0123 -2.1428
  190SLPC   C3722008   0.558   5.657   7.064  0.0816  0.1389  0.0830
  190SLPC   H7X22009   0.506   5.749   7.030  2.7059  0.7648 -2.7746
  190SLPC   H7Y22010   0.667   5.672   7.050 -0.0065  0.4629 -0.2877
  190SLPC   C3822011   0.531   5.641   7.218  0.3148 -0.6260  0.0391
  190SLPC   H8X22012   0.579   5.548   7.255  0.5007  0.4376  2.6752
  190SLPC   H8Y22013   0.421   5.652   7.226  0.4159  2.4765 -1.0218
  190SLPC   C3922014   0.584   5.761   7.297  0.3497 -0.6935  0.5529
  190SLPC   H9X22015   0.553   5.856   7.249 -0.3165 -1.6971 -1.0695
  190SLPC   H9Y22016   0.695   5.765   7.302  0.4516 -2.0730 -0.0590
  190SLPC  C31022017   0.547   5.759   7.446 -0.3713 -0.1825 -0.2503
  190SLPC  H10X22018   0.590   5.664   7.482 -0.2041 -0.2041 -0.5068
  190SLPC  H10Y22019   0.436   5.754   7.455 -0.3943  0.6604  0.0346
  190SLPC  C31122020   0.599   5.875   7.536 -0.4690  0.0679  0.5156
  190SLPC  H11X22021   0.552   5.968   7.495 -0.2317  0.3833  0.9552
  190SLPC  H11Y22022   0.709   5.884   7.542 -0.3175 -1.3407  0.1307
  190SLPC  C31222023   0.546   5.851   7.678 -0.3381  0.4992  0.0659
  190SLPC  H12X22024   0.437   5.870   7.686 -0.5690 -0.4679 -0.6906
  190SLPC  H12Y22025   0.596   5.921   7.749 -0.5504  0.4812  0.2357
  190SLPC  C31322026   0.564   5.715   7.742  0.1075  0.5486  0.4334
  190SLPC  H13X22027   0.673   5.693   7.738  0.1996  0.8843  1.0725
  190SLPC  H13Y22028   0.502   5.646   7.681  0.1590  0.1672  0.8044
  190SLPC  C31422029   0.513   5.698   7.888 -0.3398 -0.2914  0.0550
  190SLPC  H14X22030   0.414   5.743   7.909  0.2304  0.1182  2.0774
  190SLPC  H14Y22031   0.572   5.759   7.961 -0.4499 -0.7041  0.4963
  190SLPC  C31522032   0.513   5.548   7.924  0.1267 -0.2216  0.1191
  190SLPC  H15X22033   0.615   5.503   7.920  0.0698 -0.6583  2.4784
  190SLPC  H15Y22034   0.457   5.503   7.839 -3.5588  0.0954  2.1868
  190SLPC  C31622035   0.442   5.512   8.049 -0.3388  0.5009  0.7501
  190SLPC  H16X22036   0.334   5.530   8.027  0.2140 -0.4703 -3.8119
  190SLPC  H16Y22037   0.481   5.580   8.128  3.2778 -0.3310 -0.1628
  190SLPC  C31722038   0.479   5.366   8.099 -0.0082  0.1341 -0.2549
  190SLPC  H17X22039   0.590   5.361   8.108 -0.0772  1.9336  3.9566
  190SLPC  H17Y22040   0.443   5.288   8.029 -0.6107  1.4122 -1.4059
  190SLPC  C31822041   0.414   5.334   8.240 -0.0838  0.0816 -0.5548
  190SLPC  H18X22042   0.463   5.394   8.320  0.8994  1.2230 -1.9614
  190SLPC  H18Y22043   0.423   5.225   8.260  0.6409  0.0837 -0.8426
  190SLPC  H18Z22044   0.308   5.367   8.236  0.9243  3.6338 -3.7206
  191SLPC     N22045   5.183   0.083   5.577 -0.3918 -0.0115 -0.2230
  191SLPC   C1322046   5.055   0.037   5.524  0.0343  0.4252  0.0638
  191SLPC  H13A22047   4.980   0.111   5.501 -0.7375 -0.6398 -1.0117
  191SLPC  H13B22048   5.076  -0.017   5.432  2.3085 -0.8421  1.2505
  191SLPC  H13C22049   5.004  -0.031   5.591 -2.5840 -2.3864 -4.2665
  191SLPC   C1422050   5.262   0.167   5.477  0.1728  0.4191 -0.1228
  191SLPC  H14A22051   5.225   0.264   5.447 -0.3514  0.4436  0.5798
  191SLPC  H14B22052   5.362   0.178   5.516  1.1029 -2.6232 -1.2880
  191SLPC  H14C22053   5.273   0.109   5.386 -1.5044  2.7106 -1.9342
  191SLPC   C1522054   5.262  -0.036   5.611  0.8400 -0.1292 -0.5033
  191SLPC  H15A22055   5.275  -0.095   5.521 -0.0940 -0.4140 -0.4588
  191SLPC  H15B22056   5.356  -0.014   5.660 -0.5948 -0.2658  2.4853
  191SLPC  H15C22057   5.209  -0.104   5.675 -2.0814  1.2854 -1.2618
  191SLPC   C1222058   5.165   0.166   5.700 -0.1004 -0.3771 -0.0561
  191SLPC  H12A22059   5.081   0.234   5.692  0.9286  0.7735 -1.6859
  191SLPC  H12B22060   5.250   0.229   5.719 -2.0965  1.9462  1.7560
  191SLPC   C1122061   5.158   0.091   5.830  0.2776  0.4441 -0.4262
  191SLPC  H11A22062   5.132   0.167   5.907  1.4614  0.7634 -0.3312
  191SLPC  H11B22063   5.257   0.048   5.852  0.3622  0.3833 -0.9055
  191SLPC     P22064   5.057  -0.149   5.888 -0.1047  0.4337  0.1630
  191SLPC   O1322065   4.917  -0.194   5.893  0.1479  0.6422 -0.3710
  191SLPC   O1422066   5.151  -0.245   5.816  0.3488  0.5786  0.7278
  191SLPC   O1222067   5.053  -0.007   5.826  0.0724  0.1551  0.3681
  191SLPC   O1122068   5.108  -0.127   6.030  0.4068  0.4115  0.3662
  191SLPC    C122069   5.048  -0.047   6.124  0.3494  0.1486 -0.2266
  191SLPC    HA22070   5.021   0.055   6.089 -0.0180  0.8534  2.0010
  191SLPC    HB22071   4.960  -0.103   6.162  0.7059  0.0076  0.3954
  191SLPC    C222072   5.141  -0.025   6.241  0.2838  0.0291  0.2423
  191SLPC    HS22073   5.221   0.047   6.212 -1.2820  1.7456 -0.0497
  191SLPC   O2122074   5.190  -0.146   6.306 -0.2733 -0.3467  0.5416
  191SLPC   C2122075   5.312  -0.177   6.274  0.4839  0.3770 -0.2695
  191SLPC   O2222076   5.388  -0.110   6.208 -0.0933 -0.4426 -0.2316
  191SLPC   C2222077   5.342  -0.310   6.332  0.4317  0.4719  0.3981
  191SLPC   H2R22078   5.255  -0.343   6.392  0.8771  1.3086  1.5242
  191SLPC   H2S22079   5.352  -0.375   6.242  2.9560  1.7265 -0.3243
  191SLPC    C322080   5.063   0.049   6.347  0.2410  1.0187 -0.2500
  191SLPC    HX22081   4.967  -0.006   6.363  1.0923 -0.6427 -0.6578
  191SLPC    HY22082   5.038   0.147   6.301 -0.2382  1.4798  0.9541
  191SLPC   O3122083   5.128   0.054   6.478 -0.1836  0.2622  0.0017
  191SLPC   C3122084   5.177   0.168   6.514  0.5838 -0.3275  0.1487
  191SLPC   O3222085   5.179   0.269   6.445 -0.2153 -0.2492 -0.1842
  191SLPC   C3222086   5.230   0.152   6.656 -0.1376 -0.0698  0.1925
  191SLPC   H2X22087   5.322   0.091   6.641  1.4291  1.9239  1.1353
  191SLPC   H2Y22088   5.157   0.105   6.725  0.1988  0.2768  0.7872
  191SLPC   C2322089   5.477  -0.316   6.411 -0.3632  0.0513 -0.7736
  191SLPC   H3R22090   5.562  -0.292   6.344 -1.3322  3.0693 -1.0661
  191SLPC   H3S22091   5.482  -0.419   6.453 -0.4894  1.1786  2.2704
  191SLPC   C2422092   5.476  -0.230   6.541 -0.6045  0.0563 -0.5039
  191SLPC   H4R22093   5.376  -0.230   6.589  0.0849  0.9454  0.9823
  191SLPC   H4S22094   5.509  -0.126   6.522  1.4334 -0.6849 -1.2868
  191SLPC   C2522095   5.570  -0.287   6.651 -0.1332 -0.1219  0.1157
  191SLPC   H5R22096   5.668  -0.291   6.597  0.4387  1.3919  0.9778
  191SLPC   H5S22097   5.535  -0.391   6.667 -1.4963 -0.2297 -2.9555
  191SLPC   C2622098   5.572  -0.214   6.779 -1.1263 -0.7597  0.0296
  191SLPC   H6R22099   5.488  -0.248   6.844 -0.0257 -0.0756  1.8967
  191SLPC   H6S22100   5.577  -0.103   6.773 -2.5915 -0.6900 -0.1199
  191SLPC   C2722101   5.705  -0.250   6.851 -0.6884  0.0565  0.3897
  191SLPC   H7R22102   5.789  -0.182   6.825  1.2531 -2.4767 -0.3637
  191SLPC   H7S22103   5.748  -0.346   6.815  0.1357  1.1445 -1.7069
  191SLPC   C2822104   5.672  -0.277   7.000  0.3746  0.8776  0.3622
  191SLPC   H8R22105   5.766  -0.322   7.038 -0.3719  0.1970  1.4606
  191SLPC   H8S22106   5.590  -0.352   7.002  0.7422  0.2473 -3.0399
  191SLPC   C2922107   5.627  -0.153   7.076  0.2371 -0.0869 -0.3023
  191SLPC   H9R22108   5.573  -0.077   7.018  0.9986 -0.3777 -1.4276
  191SLPC  C21022109   5.651  -0.137   7.208 -0.2915 -0.6517 -0.1079
  191SLPC  H10R22110   5.633  -0.036   7.248 -0.4287 -1.2070  1.3173
  191SLPC  C21122111   5.724  -0.234   7.297 -0.4028  0.0444 -0.7050
  191SLPC  H11R22112   5.726  -0.336   7.253 -0.7986 -1.0940  1.7463
  191SLPC  H11S22113   5.683  -0.234   7.401  2.3246  0.6569  0.4873
  191SLPC  C21222114   5.869  -0.184   7.302  0.4521 -0.0904  0.5251
  191SLPC  H12R22115   5.921  -0.174   7.206 -3.4733 -1.2186 -1.9819
  191SLPC  C21322116   5.940  -0.135   7.405  0.3490  0.7095  0.4118
  191SLPC  H13R22117   6.042  -0.092   7.400  0.8937 -0.1236  2.9387
  191SLPC  C21422118   5.898  -0.130   7.554 -0.0261 -0.6685  0.1166
  191SLPC  H14R22119   5.886  -0.227   7.608 -1.8738 -0.1209  0.7651
  191SLPC  H14S22120   5.797  -0.085   7.544  1.1445  2.0632 -0.3907
  191SLPC  C21522121   5.972  -0.027   7.646 -0.1561  0.4333  0.0972
  191SLPC  H15R22122   5.967   0.069   7.590  0.5197  0.2722 -0.2469
  191SLPC  H15S22123   6.078  -0.059   7.645  0.4182  2.0547 -2.4627
  191SLPC  C21622124   5.916  -0.019   7.782  0.1185 -0.0722  0.2009
  191SLPC  H16R22125   5.893  -0.123   7.812 -0.6570 -0.5162 -1.8343
  191SLPC  H16S22126   5.830   0.052   7.781  0.0014 -0.2171 -1.5313
  191SLPC  C21722127   6.014   0.038   7.879 -0.6297 -0.3309  0.8612
  191SLPC  H17R22128   6.051   0.130   7.828 -1.5266 -1.6961 -2.5384
  191SLPC  H17S22129   6.096  -0.038   7.875  0.3552  0.7418  0.2349
  191SLPC  C21822130   5.965   0.054   8.012 -0.8265 -0.6845  0.4476
  191SLPC  H18R22131   5.877   0.120   8.021 -0.2654 -0.0239  1.1998
  191SLPC  H18S22132   6.035   0.114   8.073  0.7403 -1.8722 -0.1099
  191SLPC  H18T22133   5.957  -0.045   8.064  0.7850 -1.3099 -0.4063
  191SLPC   C3322134   5.267   0.290   6.707  0.0701 -0.1877  0.0579
  191SLPC   H3X22135   5.188   0.362   6.675  0.6012 -0.4984 -2.1059
  191SLPC   H3Y22136   5.366   0.329   6.677 -0.9623  1.3086 -1.6408
  191SLPC   C3422137   5.272   0.288   6.863 -0.1595 -0.2587  0.3999
  191SLPC   H4X22138   5.177   0.242   6.897  0.3269 -1.1166  0.6307
  191SLPC   H4Y22139   5.280   0.391   6.903  0.9588 -1.1630  2.6627
  191SLPC   C3522140   5.390   0.217   6.928 -0.0629 -0.2400 -0.0033
  191SLPC   H5X22141   5.468   0.293   6.907  0.4865 -0.7694  0.0917
  191SLPC   H5Y22142   5.410   0.132   6.858 -0.1105  0.2991 -0.6783
  191SLPC   C3622143   5.363   0.167   7.070 -0.0052  0.3875  0.4290
  191SLPC   H6X22144   5.335   0.247   7.142 -0.3535 -1.0887  2.0013
  191SLPC   H6Y22145   5.465   0.133   7.099  0.4330 -0.1401 -1.5546
  191SLPC   C3722146   5.255   0.048   7.079  0.3647 -0.9091 -0.0002
  191SLPC   H7X22147   5.303  -0.050   7.059  2.5711  0.0652  0.1959
  191SLPC   H7Y22148   5.176   0.064   7.003 -0.8261  1.3233  1.5906
  191SLPC   C3822149   5.200   0.038   7.226  0.2174  0.1625 -0.2683
  191SLPC   H8X22150   5.110  -0.026   7.217  0.9038 -0.8358 -0.1760
  191SLPC   H8Y22151   5.159   0.139   7.248  0.3602  0.0457  0.5482
  191SLPC   C3922152   5.301  -0.007   7.328 -0.2055  0.8574 -0.6699
  191SLPC   H9X22153   5.396   0.046   7.308  0.4281 -0.0233 -0.0681
  191SLPC   H9Y22154   5.310  -0.117   7.318  0.3251  0.7170  1.0262
  191SLPC  C31022155   5.272   0.014   7.476  0.4918 -0.1919 -0.3809
  191SLPC  H10X22156   5.177  -0.040   7.492 -0.2904  1.3481  0.4464
  191SLPC  H10Y22157   5.248   0.122   7.492 -0.0179 -0.2948 -0.4324
  191SLPC  C31122158   5.389  -0.056   7.558 -0.2565 -0.1053 -0.3261
  191SLPC  H11X22159   5.493  -0.027   7.531 -0.2532  3.3407  2.6475
  191SLPC  H11Y22160   5.380  -0.163   7.532 -1.3047  0.0586 -0.6979
  191SLPC  C31222161   5.384  -0.034   7.706 -0.1683 -0.3351  0.4256
  191SLPC  H12X22162   5.281  -0.047   7.744 -0.4526  1.8845  0.5434
  191SLPC  H12Y22163   5.416   0.070   7.728  3.5525 -1.4145  0.7775
  191SLPC  C31322164   5.483  -0.122   7.781 -0.3790  0.2783 -0.0942
  191SLPC  H13X22165   5.490  -0.086   7.886 -0.4693  0.6672 -0.2175
  191SLPC  H13Y22166   5.586  -0.120   7.740 -0.5816 -0.1893 -0.6311
  191SLPC  C31422167   5.444  -0.270   7.782 -0.1671 -0.4732 -0.2840
  191SLPC  H14X22168   5.452  -0.315   7.681 -0.7449  1.8952 -1.4647
  191SLPC  H14Y22169   5.338  -0.257   7.812  0.2277 -1.6659  1.8551
  191SLPC  C31522170   5.511  -0.361   7.892  0.1491 -0.8137 -0.0750
  191SLPC  H15X22171   5.492  -0.469   7.873  1.1560 -0.6901 -1.9760
  191SLPC  H15Y22172   5.475  -0.325   7.991  0.3895  3.1621 -1.2511
  191SLPC  C31622173   5.662  -0.346   7.897 -0.0958  1.2365 -0.2812
  191SLPC  H16X22174   5.678  -0.239   7.923  3.5459  0.3680  1.8017
  191SLPC  H16Y22175   5.705  -0.375   7.799  0.9503  1.5620  0.0722
  191SLPC  C31722176   5.724  -0.440   8.004  0.2081  0.0719 -0.0462
  191SLPC  H17X22177   5.730  -0.539   7.955  0.6312  0.9304 -1.8146
  191SLPC  H17Y22178   5.651  -0.445   8.088 -0.6943 -1.0799 -0.8660
  191SLPC  C31822179   5.857  -0.380   8.056  0.2169  0.0737  0.3613
  191SLPC  H18X22180   5.913  -0.451   8.121 -0.7554 -1.3279 -0.2651
  191SLPC  H18Y22181   5.837  -0.285   8.110 -0.2342  0.4440 -0.4457
  191SLPC  H18Z22182   5.924  -0.356   7.971  1.5850 -0.9230  1.1270
  192SLPC     N22183   6.382   0.247   6.305  0.4712 -0.0694 -0.1459
  192SLPC   C1322184   6.315   0.371   6.252 -0.4397 -0.0539  0.0360
  192SLPC  H13A22185   6.245   0.405   6.326 -2.2759 -0.2773 -1.5345
  192SLPC  H13B22186   6.387   0.451   6.243  0.4681 -0.7031  1.1176
  192SLPC  H13C22187   6.275   0.350   6.154 -0.0090 -0.8714  0.0217
  192SLPC   C1422188   6.496   0.228   6.216 -0.0693 -0.0269  0.1845
  192SLPC  H14A22189   6.464   0.210   6.114  0.0026 -0.4088  0.2248
  192SLPC  H14B22190   6.565   0.310   6.206  1.3364 -0.9354  1.8422
  192SLPC  H14C22191   6.553   0.140   6.244 -1.3320 -1.0597 -0.3299
  192SLPC   C1522192   6.284   0.136   6.311 -0.1053 -0.1983  0.0084
  192SLPC  H15A22193   6.243   0.112   6.214 -0.5253  1.3732 -0.2322
  192SLPC  H15B22194   6.327   0.043   6.345  0.5412 -0.8734 -2.4766
  192SLPC  H15C22195   6.199   0.173   6.367  0.7309 -1.6822  2.3936
  192SLPC   C1222196   6.434   0.271   6.443  0.3640  0.5360  0.1691
  192SLPC  H12A22197   6.455   0.176   6.491 -0.2038  0.9727  1.3240
  192SLPC  H12B22198   6.351   0.303   6.505 -0.7761 -0.1018 -0.9771
  192SLPC   C1122199   6.549   0.370   6.466 -0.4151 -0.9268  0.3394
  192SLPC  H11A22200   6.630   0.335   6.399 -0.2046 -0.2796  0.2472
  192SLPC  H11B22201   6.582   0.372   6.572 -1.8809 -1.1662  0.8193
  192SLPC     P22202   6.605   0.602   6.361  0.3233  0.1755 -0.2972
  192SLPC   O1322203   6.745   0.553   6.361 -0.2735  0.3897  0.1236
  192SLPC   O1422204   6.551   0.640   6.231 -0.2520  0.1939 -0.4197
  192SLPC   O1222205   6.501   0.506   6.429  0.0605 -0.2530  0.4067
  192SLPC   O1122206   6.604   0.723   6.461  0.7323 -0.3911  0.4095
  192SLPC    C122207   6.666   0.726   6.590  0.1087 -0.3384 -0.4119
  192SLPC    HA22208   6.742   0.644   6.596 -1.9623 -2.3398 -0.2320
  192SLPC    HB22209   6.701   0.824   6.629 -1.0750 -0.6731  1.6650
  192SLPC    C222210   6.570   0.668   6.697  0.1917 -0.4206  0.6358
  192SLPC    HS22211   6.538   0.574   6.646  0.3512 -0.5251  0.7277
  192SLPC   O2122212   6.465   0.766   6.712  0.0482  0.3698  0.0756
  192SLPC   C2122213   6.348   0.707   6.736  1.0652 -0.4958 -0.7121
  192SLPC   O2222214   6.325   0.588   6.759 -0.0879  0.7299 -0.1982
  192SLPC   C2222215   6.238   0.808   6.754 -0.4214 -0.4828 -0.2665
  192SLPC   H2R22216   6.250   0.879   6.838 -1.1931 -0.6601  0.0028
  192SLPC   H2S22217   6.248   0.863   6.658 -3.4253 -0.8603 -0.9002
  192SLPC    C322218   6.641   0.629   6.834  0.1008  0.1985  0.2614
  192SLPC    HX22219   6.693   0.532   6.846 -0.4194 -0.0525  0.5089
  192SLPC    HY22220   6.559   0.620   6.908  0.7537  0.5460  1.0369
  192SLPC   O3122221   6.715   0.736   6.888 -0.5849  0.3968 -0.2720
  192SLPC   C3122222   6.791   0.707   6.991 -1.0245 -0.9400 -0.7262
  192SLPC   O3222223   6.827   0.598   7.032  0.0372 -0.6897  0.2824
  192SLPC   C3222224   6.839   0.840   7.056 -0.2210 -0.1910  0.2080
  192SLPC   H2X22225   6.818   0.924   6.987  0.0989  0.1005  0.4636
  192SLPC   H2Y22226   6.948   0.839   7.076 -0.1849  1.9595  0.3003
  192SLPC   C2322227   6.099   0.750   6.771 -0.0214  0.2845  0.7404
  192SLPC   H3R22228   6.079   0.676   6.691 -1.0774  1.9277 -0.6029
  192SLPC   H3S22229   6.036   0.835   6.737  0.5534 -0.1519 -1.6095
  192SLPC   C2422230   6.078   0.688   6.907 -0.2067  0.4429 -0.0286
  192SLPC   H4R22231   6.164   0.624   6.936  0.1489  1.1341  0.4642
  192SLPC   H4S22232   5.996   0.615   6.888 -0.7675  0.7713  1.0527
  192SLPC   C2522233   6.039   0.776   7.029  0.9444  0.0215 -0.2520
  192SLPC   H5R22234   5.944   0.817   6.989  0.8772  1.2993  1.1016
  192SLPC   H5S22235   6.107   0.864   7.022  1.6260 -0.6282 -2.9286
  192SLPC   C2622236   6.024   0.702   7.161  0.1064 -0.3290 -0.6444
  192SLPC   H6R22237   6.120   0.652   7.186 -0.1917 -0.9127 -0.6629
  192SLPC   H6S22238   5.946   0.626   7.140  0.3797 -0.8664  0.2261
  192SLPC   C2722239   5.979   0.807   7.261 -0.1974 -1.1822  0.4272
  192SLPC   H7R22240   5.893   0.866   7.223 -0.5204 -1.1385  1.2119
  192SLPC   H7S22241   6.068   0.867   7.288 -1.3176  0.2308  1.1374
  192SLPC   C2822242   5.951   0.749   7.401  0.3232  0.1926  0.2634
  192SLPC   H8R22243   6.025   0.673   7.431 -0.3395  0.1059  1.7467
  192SLPC   H8S22244   5.861   0.683   7.403  1.3294 -1.2656  3.3561
  192SLPC   C2922245   5.942   0.845   7.514 -0.3989  0.2844  0.9025
  192SLPC   H9R22246   5.970   0.950   7.499  2.3291  0.1889  4.1412
  192SLPC  C21022247   5.894   0.807   7.633  0.4745 -0.3643 -0.0373
  192SLPC  H10R22248   5.921   0.877   7.713  0.3609  1.0975 -1.2352
  192SLPC  C21122249   5.841   0.672   7.672  0.4622  0.6710 -0.2614
  192SLPC  H11R22250   5.791   0.613   7.592 -0.5433  0.4989  0.4712
  192SLPC  H11S22251   5.763   0.676   7.751  1.3931  0.7401  0.6748
  192SLPC  C21222252   5.954   0.588   7.740  0.3797  0.6408  0.3409
  192SLPC  H12R22253   6.052   0.637   7.740 -0.4351  2.4281 -1.4636
  192SLPC  C21322254   5.942   0.479   7.815  0.6532  0.1319  0.5467
  192SLPC  H13R22255   6.031   0.423   7.847  0.5327  0.7994  2.1367
  192SLPC  C21422256   5.811   0.407   7.851 -0.0027 -0.5016 -0.0054
  192SLPC  H14R22257   5.822   0.297   7.839 -1.1252 -0.6513  0.2527
  192SLPC  H14S22258   5.728   0.446   7.789  0.1555 -0.1968 -0.0319
  192SLPC  C21522259   5.763   0.437   7.998  0.0887 -0.2816  0.9039
  192SLPC  H15R22260   5.840   0.403   8.071  0.5548  1.0934  1.0843
  192SLPC  H15S22261   5.674   0.371   8.005  0.9345 -1.5381  0.1363
  192SLPC  C21622262   5.736   0.585   8.022 -0.1124  0.2289  0.4734
  192SLPC  H16R22263   5.669   0.620   7.941  1.2891  0.0506 -0.8142
  192SLPC  H16S22264   5.833   0.638   8.012 -0.5174  1.1057  1.0450
  192SLPC  C21722265   5.677   0.596   8.164 -0.0707 -0.5662  0.4144
  192SLPC  H17R22266   5.574   0.556   8.179  0.4138 -1.6294  1.0013
  192SLPC  H17S22267   5.732   0.544   8.245 -1.6596 -1.0431  1.2375
  192SLPC  C21822268   5.655   0.736   8.223 -0.1210 -0.2403 -0.1819
  192SLPC  H18R22269   5.597   0.725   8.317 -1.2214  0.7733 -0.7099
  192SLPC  H18S22270   5.607   0.812   8.158 -2.1977 -0.0383  1.4783
  192SLPC  H18T22271   5.746   0.785   8.263  0.0665  1.1227 -2.1171
  192SLPC   C3322272   6.775   0.872   7.196 -0.1505  1.0689 -0.2956
  192SLPC   H3X22273   6.664   0.875   7.194 -0.2606  0.4090  1.8053
  192SLPC   H3Y22274   6.803   0.976   7.223 -0.0352  0.9853 -0.0845
  192SLPC   C3422275   6.814   0.765   7.306 -0.5641  0.5359  0.2202
  192SLPC   H4X22276   6.925   0.756   7.305 -0.7559 -3.3682  0.0171
  192SLPC   H4Y22277   6.786   0.662   7.275  0.4079  0.3626 -0.1236
  192SLPC   C3522278   6.763   0.799   7.451 -0.1292  0.0445  0.3112
  192SLPC   H5X22279   6.770   0.715   7.523  0.1427  0.1804  0.4492
  192SLPC   H5Y22280   6.657   0.821   7.426 -0.7953 -0.9651  2.0749
  192SLPC   C3622281   6.839   0.921   7.503 -0.2795 -0.5316 -0.1216
  192SLPC   H6X22282   6.818   1.012   7.443  0.7385 -0.6997 -0.7614
  192SLPC   H6Y22283   6.949   0.902   7.495 -0.2750 -1.6162  1.9013
  192SLPC   C3722284   6.792   0.962   7.649 -0.0552 -0.0680 -0.4256
  192SLPC   H7X22285   6.683   0.946   7.652 -0.1504  0.2937 -1.7163
  192SLPC   H7Y22286   6.827   1.065   7.674 -0.3577  0.0814 -0.6194
  192SLPC   C3822287   6.857   0.876   7.761 -0.3295 -0.2243  0.1339
  192SLPC   H8X22288   6.965   0.902   7.767  0.3731 -2.8105 -0.2408
  192SLPC   H8Y22289   6.861   0.766   7.744  3.0819 -0.9517  3.9623
  192SLPC   C3922290   6.781   0.894   7.892  0.3218 -0.2838  0.8130
  192SLPC   H9X22291   6.670   0.889   7.883  0.4422 -1.5393 -0.2850
  192SLPC   H9Y22292   6.806   0.993   7.935  2.5609 -0.3713 -0.1425
  192SLPC  C31022293   6.817   0.791   7.997  0.7534 -0.3433  0.6357
  192SLPC  H10X22294   6.927   0.780   7.995  0.8586  0.4590 -1.4171
  192SLPC  H10Y22295   6.790   0.686   7.974  0.7669 -0.1244 -0.4271
  192SLPC  C31122296   6.765   0.830   8.132  0.2893 -0.2190  0.6282
  192SLPC  H11X22297   6.771   0.940   8.146  0.5366 -0.1230 -0.1519
  192SLPC  H11Y22298   6.836   0.802   8.213 -0.2681 -1.5300  0.6798
  192SLPC  C31222299   6.632   0.771   8.160  0.1488 -0.1062 -0.6650
  192SLPC  H12X22300   6.644   0.661   8.164  0.4513 -0.0908 -1.0664
  192SLPC  H12Y22301   6.557   0.807   8.085  1.9669 -0.4412 -2.7526
  192SLPC  C31322302   6.588   0.818   8.303 -0.4797  0.4434 -0.0010
  192SLPC  H13X22303   6.568   0.927   8.302  0.6886  0.7112  1.6702
  192SLPC  H13Y22304   6.668   0.786   8.373 -0.4309  0.3496 -0.0990
  192SLPC  C31422305   6.457   0.747   8.345  0.4549 -0.0704  0.7970
  192SLPC  H14X22306   6.429   0.764   8.451  1.5009 -2.1544  1.4556
  192SLPC  H14Y22307   6.479   0.639   8.333 -1.3103 -0.1791 -3.2553
  192SLPC  C31522308   6.338   0.796   8.252 -0.0004  0.4152  0.7014
  192SLPC  H15X22309   6.366   0.780   8.145  0.1756 -1.2776  0.9820
  192SLPC  H15Y22310   6.307   0.902   8.263 -3.2288 -0.2696 -0.7145
  192SLPC  C31622311   6.212   0.716   8.273 -0.9744  0.0645  0.8455
  192SLPC  H16X22312   6.173   0.734   8.376 -1.0401  0.5188  0.7450
  192SLPC  H16Y22313   6.244   0.609   8.276  2.2864  0.9319  3.4463
  192SLPC  C31722314   6.097   0.739   8.168 -0.2060 -0.9966 -0.1935
  192SLPC  H17X22315   6.045   0.833   8.196  1.0329 -0.7379  1.3568
  192SLPC  H17Y22316   6.026   0.655   8.187 -1.1921 -0.3727 -1.0286
  192SLPC  C31822317   6.131   0.751   8.019  0.0901 -0.3901  0.3708
  192SLPC  H18X22318   6.193   0.842   8.004 -0.2234  0.2749  2.7157
  192SLPC  H18Y22319   6.034   0.749   7.965 -0.1431  2.2962  0.5574
  192SLPC  H18Z22320   6.185   0.658   7.991 -1.1188 -0.8893 -0.3681
  193SOD    SOD22321   3.982   2.558  10.805 -0.5057 -0.1412 -0.0365
  194SOD    SOD22322   6.178   3.307  15.682 -0.1487  0.0647  0.1259
  195SOD    SOD22323   3.330   2.410  12.581 -0.1461 -0.3393  0.2840
  196SOD    SOD22324   0.913   5.509   0.887  0.0419  0.1658 -0.7427
  197SOD    SOD22325   1.630   5.080  12.463  0.3843  0.0802 -0.0894
  198SOD    SOD22326   1.698   2.361   2.915  0.4509 -0.3206 -0.0772
  199SOD    SOD22327   6.852   1.921   1.866 -0.4806 -0.3002 -0.6653
  200SOD    SOD22328   5.355   0.342   6.295  0.3938 -0.6530  0.6481
  201SOD    SOD22329   6.514   3.611  11.485  0.0724 -0.3676  0.0133
  202SOD    SOD22330   5.794   1.080  15.046 -0.0470  0.3351  0.1534
  203SOD    SOD22331   6.306   3.744  14.551 -0.4545  0.3883 -0.1539
  204SOD    SOD22332   4.424   6.375   5.534  0.1075 -0.0055 -0.3147
  205SOD    SOD22333   4.376   1.719  14.715 -0.2306 -0.0345  0.4035
  206SOD    SOD22334   5.057   2.612   1.355  0.1256  0.6002 -0.1003
  207SOD    SOD22335   6.750   2.638   1.278 -0.6891  0.4483  0.1389
  208SOD    SOD22336   5.799   6.671   4.639 -0.2040  0.3454 -0.0367
  209SOD    SOD22337   0.908   0.108   0.682 -0.0545 -0.4927 -0.2417
  210SOD    SOD22338   3.451   4.503  16.795 -0.1355  0.2381  0.0418
  211SOD    SOD22339   6.791   6.577  12.559  0.2939 -0.1919 -0.3389
  212SOD    SOD22340   2.762   2.389   6.380 -0.0525 -0.6672  0.3118
  213SOD    SOD22341   0.958   4.962   3.667 -0.3964 -0.0241  0.4174
  214SOD    SOD22342   5.945   5.980   1.253  0.7981  0.3539  0.1044
  215SOD    SOD22343   3.680   0.735  10.736 -0.1813  0.0182  0.7959
  216SOD    SOD22344   3.761   6.199   5.197 -0.5866 -0.0933  0.1984
  217SOD    SOD22345   6.538   6.413  14.722 -0.3927  0.6826  0.7790
  218SOD    SOD22346   2.360   3.981  12.933 -0.2038 -0.4846  0.0866
  219SOD    SOD22347   4.260   5.545  10.101  0.4562 -0.6002 -0.3651
  220SOD    SOD22348   1.503   6.356   4.288  0.2675  0.2497  0.0096
  221SOD    SOD22349   5.694   6.343  16.821  0.4227 -0.4242  0.3561
  222SOD    SOD22350   3.221   3.448   5.535  0.3370  0.3042  0.3577
  223SOD    SOD22351   0.475   1.588  11.139  0.0485  0.4097  0.3630
  224SOD    SOD22352   2.457   1.787   4.193 -0.3714  0.3806 -0.5943
  225SOD    SOD22353   2.500   6.571  10.786 -0.2307 -0.0721  0.1388
  226SOD    SOD22354   6.723   0.192  11.270  0.1280 -0.3036  0.3733
  227SOD    SOD22355   5.035   6.878  14.780 -0.4125 -0.1481 -0.0023
  228SOD    SOD22356   3.952   0.601  15.980  0.6438  0.2346  0.2516
  229SOD    SOD22357   0.247   5.799  14.112  0.1619  0.0043 -0.1403
  230SOD    SOD22358   5.568   6.528   2.390 -0.0005  0.2706 -0.3632
  231SOD    SOD22359   0.913   5.371  16.143  0.5910 -0.5517 -0.4123
  232SOD    SOD22360   2.269   5.933  15.061  0.0351 -0.1251 -0.1407
  233SOD    SOD22361   2.060   3.144   4.220  0.8456  0.2372  0.4185
  234SOD    SOD22362   4.476   4.773   5.584  0.1175  0.3916 -0.4924
  235SOD    SOD22363   2.551   4.880   1.350  0.1607 -0.6621 -0.4336
  236SOD    SOD22364   3.657   1.624   4.443  0.3737 -0.3897 -0.2271
  237SOD    SOD22365   0.433   2.318  13.774 -0.0663  0.3347 -0.3730
  238SOD    SOD22366   3.333   2.295   5.605  0.2624  0.4596  0.3316
  239SOD    SOD22367   0.486   5.488   2.426 -0.2227  0.3093  0.5527
  240SOD    SOD22368   4.559   5.455   3.442 -0.1033 -0.9109  0.3609
  241SOD    SOD22369   1.569   0.369  12.571 -0.4094 -0.3479  0.2377
  242SOD    SOD22370   4.404   6.524   0.122 -0.2360  0.1625  0.2071
  243SOD    SOD22371   4.276   3.599   5.205 -0.1071  0.6308  0.1004
  244SOD    SOD22372   1.950   2.118  15.649  0.0970  0.2849 -0.0655
  245SOD    SOD22373   3.671   0.701   5.153  0.4578  0.1155  0.0237
  246SOD    SOD22374   4.279   6.829  13.508  0.0735 -0.1478 -0.3590
  247SOD    SOD22375   2.007   6.762   5.621 -0.4669  0.0929  0.0659
  248SOD    SOD22376   6.110   1.799   4.309 -0.0947 -0.2482 -0.2254
  249SOD    SOD22377   1.221   4.060  15.188 -0.5257  0.3160  0.4305
  250SOD    SOD22378   3.395   2.043  10.912 -0.5122 -0.0890 -0.0188
  251SOD    SOD22379   1.313   6.762   1.050 -0.3592  0.1113  0.3835
  252SOD    SOD22380   0.361   1.275  10.522 -0.5849 -0.0826 -0.1093
  253SOD    SOD22381   2.297   2.908   3.744  0.0768  0.4720 -0.0689
  254SOD    SOD22382   4.721   1.176   4.238 -0.1681 -0.2007 -0.0909
  255SOD    SOD22383   5.495   5.873  15.482 -0.2749  0.0707  0.6736
  256SOD    SOD22384   2.752   6.363  15.731  0.1977  0.1940  0.5648
  257SOD    SOD22385   6.366   4.057  16.096 -0.4043 -0.0484  0.1260
  258SOD    SOD22386   6.350   5.860  13.294 -0.4426 -0.0797 -0.2766
  259SOD    SOD22387   3.778   1.489  16.734  0.2466  0.1418 -0.5503
  260SOD    SOD22388   5.735   3.001   6.149  0.3706 -0.0550  0.2822
  261SOD    SOD22389   0.922   1.795   3.341 -0.1622  0.0876  0.4834
  262SOD    SOD22390   3.433   2.841  16.809  0.3516  0.4284  0.5282
  263SOD    SOD22391   0.679   1.536   0.433 -0.0934  0.2016 -0.0989
  264SOD    SOD22392   4.480   0.320   4.738 -0.1439 -0.8191  0.2478
  265SOD    SOD22393   6.584   3.260  14.590  0.0822  0.6167 -0.1499
  266CLA    CLA22394   2.523   6.283  11.158 -0.5209 -0.0265  0.1052
  267CLA    CLA22395   3.393   2.792   3.138  0.5006  0.3813 -0.3472
  268CLA    CLA22396   3.211   5.823  12.561  0.5924 -0.4959  0.0343
  269CLA    CLA22397   1.495   3.470   3.560 -0.1141  0.0179  0.1424
  270CLA    CLA22398   3.540   3.746  15.792  0.3399 -0.0888  0.1023
  271CLA    CLA22399   2.442   2.298   2.594  0.0019  0.1340 -0.2821
  272CLA    CLA22400   4.819   3.892  16.211  0.1785 -0.1973  0.4834
  273CLA    CLA22401   4.430   3.731   1.342 -0.3433 -0.3139 -0.3587
  274CLA    CLA22402   5.028   6.043  12.360  0.3117  0.5050  0.2564
  275CLA    CLA22403   4.823   1.028   2.061 -0.0306 -0.1471 -0.5348
  276CLA    CLA22404   5.058   0.110   4.049 -0.0694 -0.1225 -0.1948
  277CLA    CLA22405   4.278   0.656   3.144  0.1406 -0.2705 -0.3147
  278CLA    CLA22406   3.884   5.159   1.020 -0.0278  0.3731 -0.3407
  279CLA    CLA22407   3.052   2.317  15.808  0.1144  0.1433  0.5671
  280CLA    CLA22408   6.759   1.243  12.750  0.0771  0.0869 -0.1173
  281CLA    CLA22409   1.168   5.100   3.751  0.4413 -0.2168 -0.0373
  282CLA    CLA22410   0.437   1.111  16.374 -0.5587 -0.2754  0.3054
  283CLA    CLA22411   3.004   4.369  13.734  0.4487 -0.1329  0.1793
  284CLA    CLA22412   3.497   6.761   0.457  0.0942 -0.4899 -0.0627
  285CLA    CLA22413   1.176   5.971   3.499 -0.5079 -0.0744  0.1705
  286CLA    CLA22414   5.288   5.713  15.957  0.0096 -0.2882 -0.3167
  287CLA    CLA22415   6.419   6.389  12.382  0.0006 -0.3278 -0.2033
  288CLA    CLA22416   0.806   5.768  15.870  0.1958  0.2110 -0.4498
  289CLA    CLA22417   5.444   5.335   0.671 -0.0856 -0.0048  0.0326
  290CLA    CLA22418   1.531   2.453   2.441 -0.1855 -0.2204  0.3326
  291CLA    CLA22419   5.744   4.032   0.347 -0.5177 -0.1298  0.0043
  292CLA    CLA22420   6.530   2.503   2.813 -0.1894 -0.2097  0.0444
  293CLA    CLA22421   0.259   1.000   1.507  0.0650  0.2561 -0.0905
  294CLA    CLA22422   0.953   6.544   1.222  0.1464  0.0169 -0.4527
  295CLA    CLA22423   1.431   0.831   0.904 -0.0473 -0.0470 -0.0474
  296CLA    CLA22424   6.143   1.320  13.275 -0.2756  0.1279 -0.0192
  297CLA    CLA22425   6.756   2.561  16.660  0.3691 -0.0821  0.2866
  298CLA    CLA22426   6.152   5.450   3.910  0.2605  0.0778 -0.1059
  299CLA    CLA22427   5.044   0.941  14.791 -0.2918 -0.1906  0.0397
  300CLA    CLA22428   1.566   0.962   4.952 -0.1255  0.5286  0.2480
  301CLA    CLA22429   1.557   5.675  16.869 -0.4671  0.1464 -0.1211
  302CLA    CLA22430   2.784   0.293  15.030  0.0431 -0.1450  0.3663
  303CLA    CLA22431   2.889   0.929   5.380 -0.2345  0.3733 -0.2256
  304CLA    CLA22432   4.649   0.300   2.841  0.2126  0.1600 -0.2263
  305CLA    CLA22433   5.238   0.440  13.818  0.1118 -0.2593 -0.2841
  306CLA    CLA22434   5.400   4.962   0.920  0.2956 -0.0761 -0.1386
  307CLA    CLA22435   3.091   6.801  13.118 -0.3097  0.1902  0.3867
  308CLA    CLA22436   3.841   5.947  16.067 -0.0241 -0.2681 -0.1755
  309CLA    CLA22437   1.113   2.767  14.538  0.1783 -0.0728 -0.4860
  310CLA    CLA22438   1.249   3.945  14.470 -0.6875 -0.0474  0.4535
  311CLA    CLA22439   1.349   0.517   0.220  0.3070 -0.0921  0.2335
  312CLA    CLA22440   0.398   1.125  13.826 -0.3625 -0.4017 -0.2895
  313CLA    CLA22441   6.263   2.945   2.271  0.6011  0.0413 -0.1517
  314CLA    CLA22442   6.591   5.765   1.136 -0.4806 -0.3408  0.2316
  315CLA    CLA22443   2.640   3.524  16.573  0.0857 -0.2235 -0.6215
  316CLA    CLA22444   4.966   6.526   0.871 -0.2348  0.1749  0.5017
  317CLA    CLA22445   4.702   0.945  16.397  0.0910  0.0527 -0.1709
  318CLA    CLA22446   6.117   0.430  16.006  0.4264  0.3815 -0.0376
  319TIP3   OH222447   4.143   5.393  13.441  0.2834 -0.5962 -0.1465
  319TIP3    H122448   4.113   5.442  13.365  0.7888  2.1124  1.2355
  319TIP3    H222449   4.239   5.398  13.436  0.3328  0.5667  1.1198
  320TIP3   OH222450   4.830   0.974  14.360 -0.1130 -0.0013 -0.4393
  320TIP3    H122451   4.873   1.057  14.379 -0.7153  0.4810 -1.1468
  320TIP3    H222452   4.895   0.907  14.386  0.4101  0.6785  0.0371
  321TIP3   OH222453   6.078   1.989  12.888 -0.3594 -0.2367 -0.5208
  321TIP3    H122454   6.135   2.009  12.963 -1.4464 -0.2000  0.3203
  321TIP3    H222455   6.139   1.959  12.820  0.5849 -1.2716  0.7096
  322TIP3   OH222456   6.723   1.173   1.884  0.2647 -0.1468  0.3083
  322TIP3    H122457   6.733   1.078   1.894 -1.4069 -0.5547 -1.4876
  322TIP3    H222458   6.796   1.199   1.827 -0.2307 -0.6471 -0.5734
  323TIP3   OH222459   3.665   6.487  11.323 -0.2109  0.0835 -0.6531
  323TIP3    H122460   3.686   6.411  11.376 -1.3912 -0.4954 -0.9831
  323TIP3    H222461   3.625   6.451  11.244  0.7938  0.9686 -1.5883
  324TIP3   OH222462   1.547   5.664   2.838 -0.5425 -0.1178  0.4283
  324TIP3    H122463   1.616   5.599   2.855  0.7514  0.9708 -0.4286
  324TIP3    H222464   1.542   5.715   2.918  1.4660  1.3646 -0.3089
  325TIP3   OH222465   1.700   6.666   2.461  0.1919  0.1508  0.2469
  325TIP3    H122466   1.741   6.749   2.437  2.3768 -0.9449 -0.0914
  325TIP3    H222467   1.700   6.614   2.381 -1.2901 -0.1633  0.4131
  326TIP3   OH222468   6.645   3.466  14.055  0.1534 -0.2850  0.2620
  326TIP3    H122469   6.633   3.376  14.084 -1.2086  0.3078  1.7002
  326TIP3    H222470   6.719   3.462  13.995 -0.1972 -2.4321 -0.1116
  327TIP3   OH222471   0.303   4.755  16.600  0.5841  0.2848 -0.4513
  327TIP3    H122472   0.395   4.754  16.573  1.0003  0.4727  0.9128
  327TIP3    H222473   0.290   4.673  16.647  0.2192  0.5312 -0.1075
  328TIP3   OH222474   4.588   1.306  16.493  0.2176 -0.3718  0.5216
  328TIP3    H122475   4.634   1.226  16.469 -0.2084 -0.6859  0.7346
  328TIP3    H222476   4.554   1.341  16.411 -1.1547 -1.3903  0.6113
  329TIP3   OH222477   1.366   3.211   4.923 -0.1552  0.3064 -0.0416
  329TIP3    H122478   1.388   3.202   5.016  0.1754 -0.8940 -0.2184
  329TIP3    H222479   1.442   3.175   4.876 -1.0741 -0.8345 -0.7251
  330TIP3   OH222480   4.398   4.750   2.427  0.1012 -0.5335 -0.1597
  330TIP3    H122481   4.487   4.769   2.399  0.7444 -0.0271  2.0462
  330TIP3    H222482   4.404   4.667   2.474 -0.3137  0.1743  1.1810
  331TIP3   OH222483   5.359   6.004   1.519  0.0090  0.3146 -0.5540
  331TIP3    H122484   5.406   5.920   1.520 -0.4685 -0.0015 -1.9758
  331TIP3    H222485   5.408   6.059   1.581 -1.0499 -1.6803  2.2560
  332TIP3   OH222486   6.065   2.748  15.297 -0.3464  0.3964 -0.3303
  332TIP3    H122487   6.095   2.819  15.240  1.8813 -1.8233 -2.1423
  332TIP3    H222488   6.006   2.697  15.241 -1.1691  0.2777  0.6330
  333TIP3   OH222489   5.537   6.346   5.631  0.1316 -0.1836  0.6455
  333TIP3    H122490   5.541   6.308   5.719 -1.0356  0.1307  0.8503
  333TIP3    H222491   5.534   6.441   5.646  1.3184 -0.0548  0.2008
  334TIP3   OH222492   0.432   6.677  12.003 -0.7194 -0.3504 -0.6893
  334TIP3    H122493   0.357   6.680  12.062  0.2065 -0.4768  0.5337
  334TIP3    H222494   0.500   6.633  12.054  1.4768  3.2007 -0.2123
  335TIP3   OH222495   2.054   1.726   0.904  0.4834 -0.0850  0.2882
  335TIP3    H122496   2.030   1.635   0.918  1.9191 -0.4526  0.4578
  335TIP3    H222497   2.137   1.723   0.857  1.2273  1.1095  1.4403
  336TIP3   OH222498   2.672   3.937  10.708 -0.2769  0.5774  0.5254
  336TIP3    H122499   2.607   4.006  10.715 -1.0284  0.0264 -0.6964
  336TIP3    H222500   2.622   3.856  10.714  0.7280  0.0562  3.2548
  337TIP3   OH222501   2.352   3.488   4.274 -0.2915  0.2684  0.2254
  337TIP3    H122502   2.263   3.485   4.240  0.1617  2.8313 -1.4633
  337TIP3    H222503   2.352   3.559   4.338  0.2903 -0.5054  1.1156
  338TIP3   OH222504   2.089   3.179  13.627  0.0081  0.6090 -0.0519
  338TIP3    H122505   2.129   3.132  13.554 -0.1785 -0.9931  0.8457
  338TIP3    H222506   2.000   3.197  13.598  0.1747  0.6930 -0.5214
  339TIP3   OH222507   5.618   1.307   0.644 -0.4443  0.4338 -0.5846
  339TIP3    H122508   5.687   1.360   0.685  0.0754 -1.2112  0.7805
  339TIP3    H222509   5.539   1.333   0.691  0.3578 -2.5149  2.8412
  340TIP3   OH222510   4.726   0.850  12.889  0.3021 -0.5585  0.0953
  340TIP3    H122511   4.649   0.879  12.840 -0.4048 -1.7870  0.4552
  340TIP3    H222512   4.691   0.809  12.968  1.3868  0.2809  1.0476
  341TIP3   OH222513   2.800   5.798  13.623 -0.3157  0.1147 -0.1402
  341TIP3    H122514   2.888   5.786  13.660  0.2958  0.1018 -1.5177
  341TIP3    H222515   2.802   5.750  13.540 -1.3686  0.7594 -0.5624
  342TIP3   OH222516   6.646   6.442  15.029 -0.3238  0.1678  0.6577
  342TIP3    H122517   6.588   6.382  14.982  0.7206 -0.3458 -0.0009
  342TIP3    H222518   6.734   6.409  15.013  0.2244  1.4000  0.9718
  343TIP3   OH222519   6.555   2.208  13.564  0.6146 -0.5290  0.2410
  343TIP3    H122520   6.530   2.158  13.486  0.4148  0.1811 -0.1610
  343TIP3    H222521   6.565   2.298  13.532 -0.3710 -0.0511  1.2063
  344TIP3   OH222522   4.133   0.366   2.236  0.7936 -0.2553 -0.1266
  344TIP3    H122523   4.217   0.334   2.202  0.5512 -0.7388 -0.2824
  344TIP3    H222524   4.145   0.461   2.244  0.8620 -0.1270 -1.5623
  345TIP3   OH222525   0.781   0.125  15.481 -0.3604 -0.2507 -0.6008
  345TIP3    H122526   0.730   0.045  15.497 -1.8786  0.7445 -0.2562
  345TIP3    H222527   0.858   0.116  15.537 -1.6241 -0.4705  1.1574
  346TIP3   OH222528   5.318   4.620  12.843 -0.3986  0.6288  0.0442
  346TIP3    H122529   5.281   4.586  12.762  0.1251 -1.9793  0.8155
  346TIP3    H222530   5.242   4.644  12.896 -0.9573 -1.8567  0.4573
  347TIP3   OH222531   6.468   2.693  13.636 -0.3245 -0.6075 -0.5996
  347TIP3    H122532   6.418   2.723  13.559  0.2282 -1.5865 -1.3653
  347TIP3    H222533   6.507   2.610  13.608 -0.5431 -1.2579  0.9290
  348TIP3   OH222534   1.483   1.958  12.923  0.0996  0.1451 -0.7156
  348TIP3    H122535   1.520   1.957  12.835  1.0173  0.1284 -0.3403
  348TIP3    H222536   1.549   1.916  12.977  0.0451  1.1764  0.1770
  349TIP3   OH222537   4.597   4.817  16.633 -0.2246 -0.3360  0.1677
  349TIP3    H122538   4.643   4.901  16.641 -1.9002  0.6240  0.3451
  349TIP3    H222539   4.558   4.803  16.719 -0.5515 -0.9316 -0.0751
  350TIP3   OH222540   2.837   5.151  15.571 -0.9701  0.8191  0.2633
  350TIP3    H122541   2.759   5.098  15.556  0.9281 -2.7423  1.5939
  350TIP3    H222542   2.838   5.165  15.666  1.0729 -1.4086  0.6937
  351TIP3   OH222543   2.783   1.226   5.537  0.0968 -0.2970 -0.0003
  351TIP3    H122544   2.711   1.268   5.489  1.0349  1.7075  0.2451
  351TIP3    H222545   2.804   1.148   5.485 -0.5780  0.4492 -1.4529
  352TIP3   OH222546   5.924   2.657  13.960  0.0416  0.3003 -0.5162
  352TIP3    H122547   5.866   2.725  13.993 -0.0890  0.0037 -0.1234
  352TIP3    H222548   6.008   2.673  14.004 -0.4019 -0.6969  0.7867
  353TIP3   OH222549   6.733   0.900  11.693  0.8032  0.1796  0.1646
  353TIP3    H122550   6.811   0.955  11.689  1.3730 -0.3397  2.5304
  353TIP3    H222551   6.738   0.846  11.614  1.3566  1.9821 -1.1077
  354TIP3   OH222552   3.169   6.638   2.760 -0.5190 -0.1462  0.1840
  354TIP3    H122553   3.213   6.565   2.717  0.3638  1.9617 -2.8139
  354TIP3    H222554   3.077   6.612   2.763 -0.1708 -1.5414 -0.4060
  355TIP3   OH222555   4.133   3.512  14.788  0.1744  0.5355  0.0430
  355TIP3    H122556   4.147   3.418  14.776  1.2140  0.7036 -0.1333
  355TIP3    H222557   4.038   3.523  14.777 -0.0365 -0.5617  0.6109
  356TIP3   OH222558   5.942   3.115  16.133  0.3025 -0.4961  0.0959
  356TIP3    H122559   6.023   3.153  16.167  0.9282 -1.9940  0.3735
  356TIP3    H222560   5.890   3.097  16.211 -0.9396  1.7395 -0.1513
  357TIP3   OH222561   6.759   1.307   1.291  0.2656 -0.4376 -0.4537
  357TIP3    H122562   6.723   1.263   1.367 -1.9173  0.0015 -1.1772
  357TIP3    H222563   6.836   1.354   1.325 -0.1707 -0.9078  1.2820
  358TIP3   OH222564   2.059   3.622  16.538  0.4920  0.2952  1.0232
  358TIP3    H122565   2.041   3.537  16.497 -0.2268  0.1273  1.6547
  358TIP3    H222566   2.154   3.632  16.531  0.4288  0.1245 -0.3665
  359TIP3   OH222567   1.605   2.670   1.120  0.5394 -0.3542 -0.2761
  359TIP3    H122568   1.657   2.596   1.090 -0.7468 -0.7942 -1.5716
  359TIP3    H222569   1.661   2.716   1.182  1.9578 -1.5120 -0.6517
  360TIP3   OH222570   0.565   3.890  11.335 -0.5829 -0.5490  0.3753
  360TIP3    H122571   0.621   3.967  11.329 -1.4649  0.3148  2.4017
  360TIP3    H222572   0.493   3.908  11.274 -0.7668  0.2280  0.8114
  361TIP3   OH222573   6.630   2.722   3.606  0.9052  0.1794 -0.0840
  361TIP3    H122574   6.677   2.644   3.634 -1.4134 -1.1291  0.4047
  361TIP3    H222575   6.624   2.713   3.511  0.7838 -0.1616 -0.0458
  362TIP3   OH222576   2.259   3.752  11.170  0.1782  0.0610 -0.1571
  362TIP3    H122577   2.349   3.768  11.198 -0.0590 -0.2936  0.8634
  362TIP3    H222578   2.206   3.806  11.229 -0.4020 -1.4271  0.7481
  363TIP3   OH222579   3.069   5.259  12.018 -0.3427  0.2432  0.6977
  363TIP3    H122580   3.128   5.223  11.951 -1.5633 -1.7673  0.6153
  363TIP3    H222581   3.127   5.281  12.091  0.6769 -0.5240  0.1556
  364TIP3   OH222582   1.122   5.659   1.313 -0.4940 -0.0535  0.3160
  364TIP3    H122583   1.059   5.730   1.300 -0.2344 -0.1043 -1.5523
  364TIP3    H222584   1.207   5.702   1.320 -0.5086 -0.0904  0.6985
  365TIP3   OH222585   1.346   4.099   0.651 -1.3320  0.9540 -0.0539
  365TIP3    H122586   1.382   4.180   0.617  1.9669 -0.4825 -0.3111
  365TIP3    H222587   1.360   4.035   0.580 -0.9996 -0.4960  1.2677
  366TIP3   OH222588   2.854   6.818   0.158 -0.6298 -0.6670 -0.9024
  366TIP3    H122589   2.843   6.902   0.203 -1.9717 -0.5025 -1.4991
  366TIP3    H222590   2.802   6.756   0.209  2.6877 -1.9083  1.3295
  367TIP3   OH222591   0.976   1.252   2.275 -0.4759 -0.4096  0.1501
  367TIP3    H122592   1.008   1.300   2.352  1.4893 -1.2720 -0.0850
  367TIP3    H222593   1.055   1.227   2.227 -1.6289 -0.5318 -1.7898
  368TIP3   OH222594   2.129   5.773   3.041 -0.0104 -0.6220  0.1193
  368TIP3    H122595   2.216   5.749   3.073  0.2853  1.3561  1.0093
  368TIP3    H222596   2.068   5.736   3.106  0.5140  2.1043  2.3989
  369TIP3   OH222597   1.420   2.831   3.610  0.0889 -0.2926  0.5195
  369TIP3    H122598   1.511   2.841   3.582 -0.4454  1.7279 -0.6879
  369TIP3    H222599   1.410   2.737   3.625  2.1306 -0.6705 -0.1526
  370TIP3   OH222600   6.237   4.533   3.149  0.4660 -0.7078 -0.9537
  370TIP3    H122601   6.290   4.532   3.229 -1.3339 -1.3885  0.2707
  370TIP3    H222602   6.220   4.626   3.133 -1.2570 -0.6481  0.9316
  371TIP3   OH222603   1.953   0.713   2.327 -0.0146 -0.3909 -0.1102
  371TIP3    H122604   1.969   0.698   2.234  1.0680 -2.4869  0.3266
  371TIP3    H222605   1.860   0.696   2.339  0.1576 -1.7869 -0.5802
  372TIP3   OH222606   5.489   4.231  14.650  0.5177  0.6171  0.0825
  372TIP3    H122607   5.577   4.226  14.687  0.3802 -0.8193  0.2835
  372TIP3    H222608   5.432   4.199  14.720  0.0307 -0.1393 -0.6404
  373TIP3   OH222609   6.765   4.102  13.760 -0.7309  0.0760 -0.2190
  373TIP3    H122610   6.692   4.127  13.816 -1.9553 -0.8693 -1.3225
  373TIP3    H222611   6.789   4.014  13.788 -0.4357  0.1350 -0.2808
  374TIP3   OH222612   6.139   1.691   3.463 -0.1019 -0.4837  0.0735
  374TIP3    H122613   6.070   1.628   3.441 -2.3867  1.4110  1.2432
  374TIP3    H222614   6.184   1.708   3.380 -0.5046 -2.3623 -0.5796
  375TIP3   OH222615   3.132   5.292   3.544 -0.4677 -0.0912 -0.0513
  375TIP3    H122616   3.166   5.346   3.472  6.0656  1.2727  3.2026
  375TIP3    H222617   3.067   5.347   3.587  0.2429  1.8250 -1.2970
  376TIP3   OH222618   0.814   6.565  16.260 -0.0414  0.5035 -0.5835
  376TIP3    H122619   0.850   6.617  16.331 -0.8114  0.1130  0.1082
  376TIP3    H222620   0.890   6.518  16.224  0.3621  0.7396 -0.0538
  377TIP3   OH222621   2.470   1.771  14.667 -0.2406  0.6796 -0.3803
  377TIP3    H122622   2.543   1.750  14.609 -1.4871  1.6117 -2.3830
  377TIP3    H222623   2.392   1.756  14.615 -1.3743  3.4462  0.3424
  378TIP3   OH222624   0.105   3.783  14.447 -0.0359  0.0532 -0.4398
  378TIP3    H122625   0.201   3.788  14.451 -0.1139  0.9007  0.8579
  378TIP3    H222626   0.086   3.777  14.353  1.2655  0.2002 -0.7418
  379TIP3   OH222627   2.167   2.418   4.060 -0.3137  0.0765 -0.8145
  379TIP3    H122628   2.089   2.460   4.024 -0.0692  0.7854 -0.5308
  379TIP3    H222629   2.170   2.332   4.018 -0.5062  0.5654 -1.8526
  380TIP3   OH222630   3.122   0.952   2.266 -0.1653 -0.5566 -0.2772
  380TIP3    H122631   3.055   0.884   2.272 -0.3726 -0.3743 -0.4907
  380TIP3    H222632   3.184   0.932   2.336  0.0697 -1.2843 -0.6905
  381TIP3   OH222633   0.954   3.073  11.899 -0.0670  0.0749  0.5410
  381TIP3    H122634   0.926   3.043  11.985  0.7248 -1.2145  0.3712
  381TIP3    H222635   0.912   3.159  11.889 -0.6446 -0.0145  1.9500
  382TIP3   OH222636   4.961   6.392   0.276 -0.3382  0.6853  0.3157
  382TIP3    H122637   5.044   6.440   0.288 -1.3793  2.3362  1.3609
  382TIP3    H222638   4.983   6.320   0.216  2.0463  0.5175  1.2928
  383TIP3   OH222639   0.384   3.588  13.199  0.2095  0.4353  0.2428
  383TIP3    H122640   0.409   3.561  13.111 -0.5798 -1.2657  0.4833
  383TIP3    H222641   0.288   3.592  13.197  0.2487  2.6694  0.4468
  384TIP3   OH222642   2.034   0.248  16.033 -0.0584  0.0198 -0.4377
  384TIP3    H122643   2.030   0.173  15.974  0.0773 -0.7989  0.5510
  384TIP3    H222644   2.127   0.261  16.050 -0.1412 -0.9066  0.9570
  385TIP3   OH222645   4.010   3.171   1.960 -0.2090 -0.4500 -0.0016
  385TIP3    H122646   3.956   3.169   1.882 -2.5217  1.9796  1.3860
  385TIP3    H222647   4.004   3.082   1.995 -0.1783 -1.2261 -1.8446
  386TIP3   OH222648   1.768   1.244   0.802  0.1761  0.4317 -0.1862
  386TIP3    H122649   1.822   1.166   0.814 -0.4725  0.1712  1.1404
  386TIP3    H222650   1.687   1.211   0.762 -0.4535  0.2650  1.1724
  387TIP3   OH222651   3.141   6.169  13.913  0.3274  0.0999 -0.0736
  387TIP3    H122652   3.099   6.181  13.827 -0.8314 -1.0085  0.2991
  387TIP3    H222653   3.229   6.204  13.902  0.2989 -0.2746 -1.8175
  388TIP3   OH222654   6.646   2.022   1.631  0.5977  0.3949 -0.3690
  388TIP3    H122655   6.737   2.049   1.614  0.5104  2.1474  1.5693
  388TIP3    H222656   6.597   2.104   1.634 -0.5499 -0.2922  1.1552
  389TIP3   OH222657   6.730   1.488  14.241 -0.1487 -0.1104 -0.0983
  389TIP3    H122658   6.818   1.505  14.275  1.0660 -2.9016 -1.4749
  389TIP3    H222659   6.741   1.489  14.146 -2.2293  1.9437 -0.4069
  390TIP3   OH222660   2.894   1.708  15.952 -0.0149  0.0993 -0.6630
  390TIP3    H122661   2.833   1.781  15.966  0.8124  0.5977  0.5023
  390TIP3    H222662   2.845   1.647  15.897 -1.7225  0.3130  0.5262
  391TIP3   OH222663   0.886   0.183   1.399 -0.0379  0.1456 -0.2787
  391TIP3    H122664   0.868   0.091   1.416 -0.7914  0.1583 -0.9627
  391TIP3    H222665   0.801   0.226   1.405 -0.3031  0.2413 -3.4141
  392TIP3   OH222666   1.157   4.253  14.891  0.2247 -0.0486  0.3514
  392TIP3    H122667   1.213   4.211  14.825  1.6205 -0.3505  1.6757
  392TIP3    H222668   1.077   4.200  14.892  0.4013 -0.3576 -0.7039
  393TIP3   OH222669   5.689   0.414  11.116  0.3318 -0.2378 -0.6809
  393TIP3    H122670   5.603   0.373  11.108  0.4734 -0.8253  0.4518
  393TIP3    H222671   5.729   0.403  11.030  0.0543 -1.8100 -0.6476
  394TIP3   OH222672   6.673   6.366  15.855 -0.1279  0.5003  0.4004
  394TIP3    H122673   6.732   6.303  15.896 -0.2842 -0.3293 -0.6155
  394TIP3    H222674   6.604   6.380  15.921  0.2114  0.0489  0.8593
  395TIP3   OH222675   6.315   2.582  11.335 -0.3767 -0.2545 -0.0376
  395TIP3    H122676   6.380   2.543  11.276 -0.0834  1.5734 -0.9657
  395TIP3    H222677   6.233   2.537  11.313  0.2375 -1.5234  0.1202
  396TIP3   OH222678   5.181   4.056   0.428 -0.1873 -0.1261 -0.5837
  396TIP3    H122679   5.274   4.037   0.434 -0.1997 -0.1734 -0.5433
  396TIP3    H222680   5.176   4.152   0.434 -0.3048 -0.2150  1.8289
  397TIP3   OH222681   6.475   3.518  11.084  0.1474 -0.2129  0.2216
  397TIP3    H122682   6.447   3.504  10.994  1.9276 -0.3141 -0.3412
  397TIP3    H222683   6.425   3.595  11.113 -0.2458 -0.0296 -0.9210
  398TIP3   OH222684   2.276   1.158   4.186 -0.0835 -0.5244 -0.7787
  398TIP3    H122685   2.218   1.123   4.253  0.1785  0.2585 -0.1167
  398TIP3    H222686   2.274   1.253   4.200  1.2949 -0.4699 -0.7765
  399TIP3   OH222687   2.905   6.279   1.938  0.4669 -0.3564 -0.4145
  399TIP3    H122688   2.994   6.315   1.941 -0.0050  0.8460 -0.1135
  399TIP3    H222689   2.875   6.284   2.029 -0.1020 -0.2150 -0.6048
  400TIP3   OH222690   5.442   0.646  10.959  0.2856 -0.3719 -0.0088
  400TIP3    H122691   5.438   0.569  10.902 -0.8483 -1.9932  2.1056
  400TIP3    H222692   5.388   0.711  10.914 -1.1091 -1.8023 -0.4939
  401TIP3   OH222693   3.728   2.017   6.864  0.6210 -0.1268  0.3361
  401TIP3    H122694   3.645   2.010   6.817 -1.0051  1.0820  2.8248
  401TIP3    H222695   3.788   2.057   6.800 -0.8656 -0.4403 -1.3339
  402TIP3   OH222696   3.974   0.464  10.933 -0.2825 -0.2298  0.4940
  402TIP3    H122697   3.904   0.517  10.895 -0.9540 -1.7266 -0.4767
  402TIP3    H222698   4.016   0.521  10.996 -0.0458  1.9400 -1.4887
  403TIP3   OH222699   2.861   6.245   5.899 -0.5151 -0.1068  0.3084
  403TIP3    H122700   2.824   6.168   5.943  0.7860 -1.5134 -0.9715
  403TIP3    H222701   2.785   6.290   5.861 -1.1631 -1.6512 -0.3010
  404TIP3   OH222702   3.930   0.815  14.335  0.1098  0.1256 -0.2987
  404TIP3    H122703   3.888   0.845  14.254 -0.1085  2.1149  0.4993
  404TIP3    H222704   3.860   0.818  14.400 -0.0049 -2.5606 -0.2192
  405TIP3   OH222705   1.752   4.967   5.886  0.1044 -0.2187 -0.4948
  405TIP3    H122706   1.760   4.932   5.797 -1.1447 -0.9142 -0.3547
  405TIP3    H222707   1.793   4.901   5.942 -1.6996 -1.2285 -0.2930
  406TIP3   OH222708   4.779   4.507   3.113  0.2041 -0.2047  0.4399
  406TIP3    H122709   4.824   4.454   3.047 -0.6236 -1.2104  0.6524
  406TIP3    H222710   4.704   4.454   3.139 -0.6679  1.0923  0.6637
  407TIP3   OH222711   6.657   2.782  15.129  0.3614 -0.1901 -0.1033
  407TIP3    H122712   6.685   2.776  15.220  1.1663  0.0046 -0.3288
  407TIP3    H222713   6.612   2.700  15.112 -0.1410 -0.0665  0.5820
  408TIP3   OH222714   5.462   0.957  11.800 -0.3869  0.1661  0.6062
  408TIP3    H122715   5.467   0.960  11.704 -1.4403 -1.5304  0.4525
  408TIP3    H222716   5.411   1.035  11.823 -0.2506  0.5193 -0.2262
  409TIP3   OH222717   2.985   3.136   4.923  0.4117  0.6698  0.4516
  409TIP3    H122718   2.963   3.044   4.909 -1.4607  1.2040 -0.4498
  409TIP3    H222719   2.901   3.177   4.943  1.2558  2.1601  1.0583
  410TIP3   OH222720   3.122   1.595   0.199  0.1205 -0.5573  0.2342
  410TIP3    H122721   3.108   1.517   0.144  0.6615 -0.3294 -0.2331
  410TIP3    H222722   3.040   1.644   0.192  0.2812 -0.3864 -0.6180
  411TIP3   OH222723   3.209   1.606  16.472 -0.3864  0.0459  0.7674
  411TIP3    H122724   3.263   1.645  16.404  1.9438  0.1332  2.5414
  411TIP3    H222725   3.157   1.539  16.427  1.9850 -0.7743 -0.9140
  412TIP3   OH222726   6.235   4.135  13.081  0.2411 -0.7926  0.0339
  412TIP3    H122727   6.242   4.058  13.137 -1.5326  0.1860  1.7560
  412TIP3    H222728   6.163   4.185  13.119  0.2643  0.9251 -1.9979
  413TIP3   OH222729   2.522   3.360  15.996 -0.2883 -0.3407  0.1232
  413TIP3    H122730   2.456   3.327  15.936 -0.8354 -0.6706  0.8927
  413TIP3    H222731   2.594   3.298  15.989  0.7124  0.9507 -2.0121
  414TIP3   OH222732   5.400   0.589   1.970  0.7025  0.3136  0.0412
  414TIP3    H122733   5.349   0.516   1.935  1.0568  0.1029 -0.0428
  414TIP3    H222734   5.489   0.571   1.940  0.8409  0.6254  0.2725
  415TIP3   OH222735   5.976   2.959   5.502 -0.7951 -0.4533 -0.1385
  415TIP3    H122736   5.921   3.033   5.526  0.1298 -0.7421  3.5617
  415TIP3    H222737   6.050   2.998   5.455 -1.0138  0.7976  0.5141
  416TIP3   OH222738   0.252   6.773   6.452  0.2034 -0.4114  0.1384
  416TIP3    H122739   0.324   6.818   6.408  0.2500  0.1135  0.7320
  416TIP3    H222740   0.200   6.736   6.381 -0.4727  1.5652 -0.4632
  417TIP3   OH222741   2.868   5.451  11.858 -0.7736  0.7431  0.6792
  417TIP3    H122742   2.903   5.428  11.943 -0.2434 -1.1309 -0.0096
  417TIP3    H222743   2.774   5.433  11.865 -0.3371 -2.3351  0.0377
  418TIP3   OH222744   3.046   3.142   2.405  0.1406  0.0254  0.1809
  418TIP3    H122745   3.095   3.223   2.390  1.1572 -0.4724  0.7399
  418TIP3    H222746   3.072   3.114   2.492  0.5306 -1.4151 -0.3762
  419TIP3   OH222747   0.770   0.248   2.611  0.2893 -0.0048 -0.0122
  419TIP3    H122748   0.731   0.234   2.525  1.8496 -3.5648 -0.2933
  419TIP3    H222749   0.738   0.177   2.665  0.9884  0.9561  1.7697
  420TIP3   OH222750   2.391   2.543   3.940  0.4700  0.0877  0.8228
  420TIP3    H122751   2.318   2.493   3.976 -0.7015  2.2124  1.6233
  420TIP3    H222752   2.457   2.543   4.009  0.9056 -1.1429  0.4250
  421TIP3   OH222753   6.056   4.336  14.314 -0.6105 -0.1610  0.2912
  421TIP3    H122754   6.030   4.269  14.251  1.5604  0.1287 -1.0150
  421TIP3    H222755   6.149   4.319  14.331  0.0608  2.5180 -0.1922
  422TIP3   OH222756   2.120   5.481  11.394  0.3196  0.0869 -0.1967
  422TIP3    H122757   2.187   5.432  11.347  0.8240  0.7673 -0.1990
  422TIP3    H222758   2.056   5.506  11.326 -0.2250 -1.0155 -0.1059
  423TIP3   OH222759   6.738   2.758  16.351 -0.0442  0.0806 -0.6128
  423TIP3    H122760   6.714   2.691  16.288 -1.4249 -1.1063  1.0568
  423TIP3    H222761   6.732   2.714  16.436 -0.8335  2.2419  0.5460
  424TIP3   OH222762   0.224   2.867  13.295 -0.5082  0.7537  0.1295
  424TIP3    H122763   0.213   2.859  13.200 -0.3861 -0.2878  0.1949
  424TIP3    H222764   0.136   2.881  13.328 -0.3054  3.9621 -0.3485
  425TIP3   OH222765   5.918   5.607   0.659  0.0522  0.4764  0.0919
  425TIP3    H122766   5.922   5.517   0.692  0.2273  0.3504 -0.2686
  425TIP3    H222767   5.895   5.660   0.736 -3.7275 -0.2697 -0.3482
  426TIP3   OH222768   5.345   2.738   1.103  0.5458 -0.4158 -1.0489
  426TIP3    H122769   5.439   2.723   1.110  0.7304  0.9268 -0.2723
  426TIP3    H222770   5.335   2.833   1.113 -0.9749 -0.6442 -0.0897
  427TIP3   OH222771   5.965   0.908  11.050  0.5258  0.9541  0.2339
  427TIP3    H122772   5.960   0.892  11.144 -1.8887 -0.8463 -0.1064
  427TIP3    H222773   5.920   0.834  11.011  2.3397  1.1299 -2.4395
  428TIP3   OH222774   3.172   2.515   4.521 -0.0681  0.4762  0.6535
  428TIP3    H122775   3.147   2.545   4.433  1.7536 -0.2493 -0.1608
  428TIP3    H222776   3.232   2.581   4.553 -0.4462  0.5509  1.2137
  429TIP3   OH222777   5.319   2.366  11.837 -0.2779  0.0601 -0.6474
  429TIP3    H122778   5.234   2.387  11.875 -0.6832 -0.2726 -1.3307
  429TIP3    H222779   5.326   2.271  11.846 -0.5150 -0.0664 -1.6331
  430TIP3   OH222780   4.238   0.232  11.739 -0.7495  0.0193  0.3645
  430TIP3    H122781   4.255   0.187  11.656  1.1674 -0.3852  0.9128
  430TIP3    H222782   4.160   0.285  11.722  0.0658  0.6105 -1.9771
  431TIP3   OH222783   4.444   3.072   3.624  0.1549 -0.6710 -0.4845
  431TIP3    H122784   4.521   3.121   3.595 -0.3341  0.0581 -0.5662
  431TIP3    H222785   4.380   3.084   3.554 -0.4230 -0.3310  0.0887
  432TIP3   OH222786   3.604   2.438  14.182 -0.0971 -0.2887  0.0170
  432TIP3    H122787   3.619   2.488  14.262 -0.0063  4.5191 -2.6258
  432TIP3    H222788   3.690   2.432  14.141 -0.7641  1.5865 -1.8082
  433TIP3   OH222789   0.135   3.258   5.384  0.0051 -0.5229 -0.7285
  433TIP3    H122790   0.100   3.338   5.424 -1.6930 -1.0727 -1.0227
  433TIP3    H222791   0.222   3.248   5.422  0.8307  2.1780 -1.6629
  434TIP3   OH222792   0.588   5.867   2.083 -0.1205 -0.3460 -0.2673
  434TIP3    H122793   0.673   5.842   2.048 -0.0839  0.3035 -0.6531
  434TIP3    H222794   0.602   5.955   2.118 -0.5007 -0.4492  0.1443
  435TIP3   OH222795   0.518   1.899   3.172  0.0184  0.2084  0.8084
  435TIP3    H122796   0.428   1.901   3.140  0.0148  0.2097  0.8185
  435TIP3    H222797   0.572   1.905   3.093  0.0363 -2.1177  0.5700
  436TIP3   OH222798   5.515   5.578  10.900 -0.1970 -0.0467 -0.1327
  436TIP3    H122799   5.591   5.567  10.957 -0.3877 -0.6804  0.0128
  436TIP3    H222800   5.543   5.543  10.815 -0.2523 -0.0828 -0.1362
  437TIP3   OH222801   0.409   0.289   2.982 -0.2721 -0.1118  0.0316
  437TIP3    H122802   0.321   0.260   3.005 -0.6276  0.6196 -0.3575
  437TIP3    H222803   0.464   0.261   3.055 -0.3802 -2.6781 -0.7845
  438TIP3   OH222804   5.832   2.455   0.060 -0.5060  0.8991  0.8347
  438TIP3    H122805   5.753   2.504   0.041 -1.7163 -1.6184 -1.2697
  438TIP3    H222806   5.807   2.394   0.130 -1.1283 -1.1603 -1.0566
  439TIP3   OH222807   3.363   5.915  16.096 -0.1560 -0.8020  0.2954
  439TIP3    H122808   3.434   5.949  16.151 -0.1058  0.6935 -0.6539
  439TIP3    H222809   3.404   5.849  16.041  0.6873  0.5691 -0.7603
  440TIP3   OH222810   1.079   4.443  11.983 -0.1071  0.2012 -0.3604
  440TIP3    H122811   1.140   4.370  11.998 -0.1828  0.3197  0.6472
  440TIP3    H222812   0.995   4.410  12.017 -0.2002  0.6607 -0.1417
  441TIP3   OH222813   3.584   5.970  13.988  0.2964 -0.7612  0.4729
  441TIP3    H122814   3.502   5.940  13.950 -0.2587  1.3612 -0.1671
  441TIP3    H222815   3.650   5.953  13.920 -0.2800  0.7965 -0.5358
  442TIP3   OH222816   0.653   6.109   5.694 -0.0803  0.1806 -0.2711
  442TIP3    H122817   0.571   6.158   5.683 -1.3897 -1.5273  1.2055
  442TIP3    H222818   0.702   6.159   5.758 -0.9122  0.1914  0.3849
  443TIP3   OH222819   2.796   3.378   1.183 -0.3234  0.1381  0.2915
  443TIP3    H122820   2.866   3.376   1.118 -0.3560  0.9100  0.2242
  443TIP3    H222821   2.772   3.471   1.190 -0.7837 -0.0195  0.9079
  444TIP3   OH222822   6.425   0.296   3.314 -0.5461 -0.0539 -0.4787
  444TIP3    H122823   6.336   0.296   3.279 -0.9434  0.6605  0.4966
  444TIP3    H222824   6.481   0.309   3.237 -1.3785  1.2451 -0.8960
  445TIP3   OH222825   2.385   2.422  16.784 -0.0203  0.1587  0.3443
  445TIP3    H122826   2.478   2.437  16.801 -0.1804  1.7712 -0.0639
  445TIP3    H222827   2.342   2.439  16.868 -0.1786  1.9442 -0.0665
  446TIP3   OH222828   1.505   2.716   6.589 -0.2107 -0.0518  0.0553
  446TIP3    H122829   1.520   2.626   6.560  0.1507 -0.5400  1.6498
  446TIP3    H222830   1.584   2.763   6.564 -0.3623 -0.1906 -0.7071
  447TIP3   OH222831   3.663   4.958  16.718 -0.2821  0.4705  0.1662
  447TIP3    H122832   3.701   4.938  16.803 -1.3400 -1.1929  0.2761
  447TIP3    H222833   3.679   5.052  16.707 -0.0836  0.7182  2.1631
  448TIP3   OH222834   4.838   6.818   4.189  0.1134 -0.3909  0.0836
  448TIP3    H122835   4.879   6.783   4.268  1.0101  0.7320  0.1266
  448TIP3    H222836   4.908   6.863   4.143 -0.5086 -0.6223 -1.1329
  449TIP3   OH222837   3.854   1.277   4.874 -0.0589  0.1756  0.5602
  449TIP3    H122838   3.786   1.306   4.814 -0.5527 -0.5514  0.7600
  449TIP3    H222839   3.843   1.182   4.880  1.2988 -0.0262  0.1906
  450TIP3   OH222840   5.311   2.699  15.823  0.2898 -0.0268  0.0068
  450TIP3    H122841   5.335   2.650  15.901 -0.3858 -0.0616  0.1966
  450TIP3    H222842   5.249   2.642  15.777  1.6329 -0.5605 -1.2046
  451TIP3   OH222843   2.843   0.237   0.962  0.0699 -0.2700  0.2690
  451TIP3    H122844   2.814   0.282   0.882 -1.1623 -1.3194  0.0996
  451TIP3    H222845   2.798   0.283   1.033  0.4215  0.0650  0.2740
  452TIP3   OH222846   0.212   6.257   5.293 -0.2334 -0.8349 -0.6599
  452TIP3    H122847   0.286   6.210   5.331 -1.9554 -2.5561  0.8145
  452TIP3    H222848   0.248   6.301   5.216  2.9360  0.8838  1.5910
  453TIP3   OH222849   5.160   6.015  13.298 -0.1596 -0.0026  0.2767
  453TIP3    H122850   5.255   6.009  13.303 -0.0376 -1.4710 -2.1370
  453TIP3    H222851   5.142   6.017  13.204 -2.5666 -1.0652  0.6542
  454TIP3   OH222852   3.340   3.236   3.618 -0.1230  0.0589 -0.5303
  454TIP3    H122853   3.325   3.193   3.534  0.6400 -1.1131 -0.0889
  454TIP3    H222854   3.256   3.230   3.663 -0.4715  0.4868 -1.0955
  455TIP3   OH222855   5.712   1.159   3.751 -0.2415  0.1104 -0.2193
  455TIP3    H122856   5.766   1.238   3.743 -1.3750  0.9168 -0.2321
  455TIP3    H222857   5.622   1.192   3.755 -0.8069 -1.2317 -1.0671
  456TIP3   OH222858   5.423   4.402  14.066  0.2937 -0.1611 -0.0527
  456TIP3    H122859   5.420   4.306  14.073  0.4502 -0.2290 -0.7884
  456TIP3    H222860   5.447   4.432  14.153 -1.4379 -0.6950  0.6522
  457TIP3   OH222861   4.296   3.523  16.386  0.5004  0.3335  0.3386
  457TIP3    H122862   4.344   3.441  16.383  0.4935  0.3347  0.1990
  457TIP3    H222863   4.204   3.498  16.386  0.4811  0.3610 -0.5662
  458TIP3   OH222864   2.332   4.724  15.504 -0.5988  0.3069 -0.9148
  458TIP3    H122865   2.329   4.649  15.444 -1.6171 -1.2666  0.9610
  458TIP3    H222866   2.284   4.694  15.581  1.8433  1.6514  1.3029
  459TIP3   OH222867   1.101   5.733  14.742 -0.1398  0.3040  0.1542
  459TIP3    H122868   1.187   5.694  14.756  0.3303  0.2450 -2.3560
  459TIP3    H222869   1.039   5.671  14.780  0.7170 -1.9444 -1.8415
  460TIP3   OH222870   2.717   0.707  11.268 -0.7136 -0.0211 -0.0068
  460TIP3    H122871   2.747   0.705  11.177  0.4780 -2.2981  0.3752
  460TIP3    H222872   2.789   0.668  11.318 -0.7704  2.3611  2.1355
  461TIP3   OH222873   3.294   6.353  10.670  0.0554  0.0760 -0.4222
  461TIP3    H122874   3.247   6.279  10.633  1.1525  0.2215 -2.2115
  461TIP3    H222875   3.384   6.342  10.641  0.7980  0.7512  1.4502
  462TIP3   OH222876   2.582   3.756   2.215  0.2445  0.3317  0.4271
  462TIP3    H122877   2.620   3.698   2.281 -0.0789 -1.1708 -0.6564
  462TIP3    H222878   2.491   3.766   2.242  0.0436 -0.4937  0.1002
  463TIP3   OH222879   5.430   5.796  15.271 -0.1559 -0.2849  0.0003
  463TIP3    H122880   5.341   5.830  15.278 -0.4536 -0.9360 -0.5235
  463TIP3    H222881   5.426   5.734  15.199  0.8492  0.0645 -0.3685
  464TIP3   OH222882   4.009   0.584   2.564 -0.6769 -0.3779  0.1859
  464TIP3    H122883   4.085   0.538   2.598 -0.2826  0.7675  0.8950
  464TIP3    H222884   3.961   0.612   2.642 -1.7083 -0.8700 -0.2491
  465TIP3   OH222885   3.149   1.239   1.639  0.0605 -0.5365 -0.4268
  465TIP3    H122886   3.146   1.171   1.706 -1.6200  0.9248  1.0538
  465TIP3    H222887   3.179   1.317   1.685 -2.7527  0.9289 -0.8879
  466TIP3   OH222888   5.281   5.769  12.486  0.0033  0.1228  0.4773
  466TIP3    H122889   5.216   5.824  12.530  0.4854 -0.9659  2.6535
  466TIP3    H222890   5.358   5.826  12.477  0.1229  0.1680  1.6823
  467TIP3   OH222891   2.146   0.574  16.152 -0.3063  0.0411  0.3244
  467TIP3    H122892   2.198   0.502  16.185 -0.1782  1.1812  2.8626
  467TIP3    H222893   2.177   0.650  16.202 -2.7979  1.1738  0.2797
  468TIP3   OH222894   2.277   3.393   5.093 -0.1267 -0.2855 -0.5179
  468TIP3    H122895   2.350   3.366   5.149 -1.8254 -0.4033  1.7801
  468TIP3    H222896   2.202   3.344   5.127 -1.1973 -0.6966 -3.2386
  469TIP3   OH222897   0.785   4.216  15.883 -0.2821  0.3543 -0.2842
  469TIP3    H122898   0.690   4.205  15.875 -0.1677 -0.1867 -1.0071
  469TIP3    H222899   0.805   4.189  15.972 -0.7628  0.1292 -0.2411
  470TIP3   OH222900   1.358   4.611  13.598  0.6189  0.3216  0.0587
  470TIP3    H122901   1.310   4.676  13.649  0.5976 -0.5884  1.2227
  470TIP3    H222902   1.410   4.664  13.537 -1.2428  1.3607 -0.7447
  471TIP3   OH222903   1.978   6.341   0.035  0.0475 -0.6146  0.5722
  471TIP3    H122904   2.020   6.258   0.057 -0.6806 -1.2541 -0.3797
  471TIP3    H222905   1.955   6.332  -0.058 -0.3707  0.5040  0.5614
  472TIP3   OH222906   5.483   1.997   4.816 -0.2223 -0.2119  0.0819
  472TIP3    H122907   5.393   2.008   4.847  0.1669  0.7428  0.9288
  472TIP3    H222908   5.487   2.046   4.734 -1.2996 -2.8729 -1.7131
  473TIP3   OH222909   0.029   4.388   0.898 -0.2585  0.0071 -0.0044
  473TIP3    H122910   0.010   4.371   0.806  1.8612  0.6309 -0.6156
  473TIP3    H222911   0.107   4.335   0.917  0.3601  1.1789  0.9194
  474TIP3   OH222912   2.995   2.836  15.692  0.3235  0.3907  1.1003
  474TIP3    H122913   3.008   2.875  15.606 -0.0622  0.7169  1.1891
  474TIP3    H222914   2.964   2.908  15.747 -2.3855 -0.4390  0.7792
  475TIP3   OH222915   0.788   0.478  13.749 -0.1942  0.2350  0.2142
  475TIP3    H122916   0.789   0.554  13.691  0.8137 -0.5296 -0.8260
  475TIP3    H222917   0.878   0.473  13.783 -0.0123 -0.9368 -0.3815
  476TIP3   OH222918   1.296   5.228   0.410 -0.2792 -0.1998 -0.5205
  476TIP3    H122919   1.332   5.284   0.342  0.1904  1.1658  0.7970
  476TIP3    H222920   1.212   5.268   0.433 -0.3569 -0.5405 -0.1923
  477TIP3   OH222921   6.656   5.724  15.229  0.1324  0.4855 -0.4742
  477TIP3    H122922   6.651   5.679  15.313  2.2445  0.2606 -0.4190
  477TIP3    H222923   6.694   5.810  15.250 -0.6746  0.9919 -1.0249
  478TIP3   OH222924   0.425   2.539  14.976 -0.0661 -0.6178  0.0724
  478TIP3    H122925   0.371   2.516  15.051 -0.7219 -1.1609 -0.5584
  478TIP3    H222926   0.389   2.489  14.904  0.2162  0.3135 -0.7326
  479TIP3   OH222927   1.663   2.159  16.048  0.1174  0.3879 -0.7985
  479TIP3    H122928   1.691   2.075  16.012 -0.4750 -0.6742  1.1042
  479TIP3    H222929   1.677   2.151  16.142 -0.3429  2.2843 -0.5305
  480TIP3   OH222930   2.884   5.003   5.751 -0.5382 -0.8224  0.2608
  480TIP3    H122931   2.809   5.037   5.703  1.1497  0.7226 -1.4423
  480TIP3    H222932   2.948   5.075   5.750  0.4531 -1.5519  2.9122
  481TIP3   OH222933   5.974   4.096  14.184 -0.5674 -0.5028  0.0774
  481TIP3    H122934   5.975   4.069  14.092  1.1384  1.6616 -0.6535
  481TIP3    H222935   5.988   4.016  14.233 -0.9762 -1.6429 -1.5862
  482TIP3   OH222936   6.785   1.181  14.364 -0.4633 -0.0652 -0.1927
  482TIP3    H122937   6.803   1.164  14.272 -1.6173  1.3073 -0.7021
  482TIP3    H222938   6.849   1.127  14.411  0.8103 -0.0266 -1.7944
  483TIP3   OH222939   5.753   3.330  12.931 -0.5441 -0.7352  0.1848
  483TIP3    H122940   5.679   3.382  12.963 -1.2037 -0.9792 -0.8801
  483TIP3    H222941   5.782   3.376  12.853  0.7990 -0.3546  0.8749
  484TIP3   OH222942   1.209   6.018   0.345 -0.5688 -0.0608 -0.8053
  484TIP3    H122943   1.124   6.027   0.388  0.1422 -2.2247  1.3421
  484TIP3    H222944   1.191   5.968   0.266 -1.2826 -0.8026 -0.1965
  485TIP3   OH222945   4.510   4.010   2.934 -0.3681  0.3693  0.0420
  485TIP3    H122946   4.431   3.961   2.959 -0.6021 -1.1993 -3.1890
  485TIP3    H222947   4.477   4.091   2.896 -0.5680 -0.4857 -1.7334
  486TIP3   OH222948   4.148   4.348  14.896 -0.2111  0.0142 -0.1300
  486TIP3    H122949   4.101   4.299  14.829 -1.8275  0.4816  0.6042
  486TIP3    H222950   4.088   4.350  14.971  0.6357  1.3668  0.5624
  487TIP3   OH222951   5.209   4.397   0.765  0.2155  0.5751  0.0522
  487TIP3    H122952   5.127   4.369   0.805  0.8128 -1.0050  0.2125
  487TIP3    H222953   5.228   4.482   0.805 -0.2181 -0.0610  1.6506
  488TIP3   OH222954   0.292   6.841  14.586 -0.6698 -0.3856 -0.2069
  488TIP3    H122955   0.365   6.871  14.532 -1.3108 -1.0769 -1.5023
  488TIP3    H222956   0.300   6.746  14.586  0.2452 -0.4005  2.2973
  489TIP3   OH222957   6.832   1.278  16.258  0.6182 -0.0682  0.5879
  489TIP3    H122958   6.795   1.193  16.237  1.4835 -0.8349  2.0199
  489TIP3    H222959   6.925   1.270  16.238  0.9514  0.0800  2.0094
  490TIP3   OH222960   5.737   4.135  14.691  0.1929  0.3794 -0.1304
  490TIP3    H122961   5.743   4.208  14.752  1.1936  0.6222 -0.5084
  490TIP3    H222962   5.780   4.166  14.611 -2.1548  0.5248 -1.4342
  491TIP3   OH222963   1.161   4.297  15.165 -0.1557  0.1365  0.4851
  491TIP3    H122964   1.140   4.298  15.072 -1.9772 -0.3773  0.8437
  491TIP3    H222965   1.103   4.363  15.203  0.4861  0.2616  1.2753
  492TIP3   OH222966   0.038   4.810   1.569 -0.0027  0.0191  0.7251
  492TIP3    H122967  -0.029   4.773   1.626 -1.4128 -0.2788 -1.0353
  492TIP3    H222968   0.108   4.838   1.629  1.4472 -5.6380  2.3090
  493TIP3   OH222969   1.729   5.108  15.875  0.2616  0.3525 -0.0184
  493TIP3    H122970   1.655   5.055  15.904 -1.0489  1.3639 -1.3712
  493TIP3    H222971   1.806   5.061  15.908 -0.8905 -1.5345  0.1542
  494TIP3   OH222972   1.661   3.024   4.093  0.3111 -0.0367 -0.7688
  494TIP3    H122973   1.635   3.108   4.055 -0.2923 -0.0579 -0.4076
  494TIP3    H222974   1.729   2.991   4.033  2.2359  1.7660  0.3003
  495TIP3   OH222975   3.028   0.086  16.197 -0.2710 -0.5599  0.0306
  495TIP3    H122976   3.026   0.024  16.124 -3.0725 -0.6695  0.1085
  495TIP3    H222977   3.012   0.031  16.275  0.2304 -0.1035  0.4670
  496TIP3   OH222978   3.232   1.798  10.325  0.8177 -0.0317 -0.0569
  496TIP3    H122979   3.317   1.810  10.368  0.7994 -0.5509  0.1321
  496TIP3    H222980   3.169   1.834  10.387  1.0443  2.2335 -1.0641
  497TIP3   OH222981   2.285   0.899   5.634  0.4070 -0.1018  0.6948
  497TIP3    H122982   2.239   0.981   5.615  0.4625 -0.5443 -1.6544
  497TIP3    H222983   2.290   0.896   5.730  0.6450  2.7468  0.8576
  498TIP3   OH222984   3.802   0.769  14.976  0.2781  0.3455 -0.0705
  498TIP3    H122985   3.804   0.855  15.018 -0.0584  0.0927  0.4628
  498TIP3    H222986   3.776   0.708  15.045 -0.9458  0.0205 -0.7883
  499TIP3   OH222987   1.805   5.209   4.765  0.6970  0.7044  0.0855
  499TIP3    H122988   1.879   5.239   4.713  1.9876  0.6063  1.7669
  499TIP3    H222989   1.810   5.260   4.846 -1.0410  0.6288  0.2933
  500TIP3   OH222990   2.890   0.807  14.540  0.2431 -0.3714  0.2169
  500TIP3    H122991   2.941   0.764  14.608  0.5041 -0.9321 -0.3239
  500TIP3    H222992   2.844   0.736  14.495  0.3826 -0.0540 -0.4427
  501TIP3   OH222993   5.756   6.037   1.116 -0.2770 -0.2604  0.4333
  501TIP3    H122994   5.770   6.058   1.024 -0.3701 -0.7831  0.2919
  501TIP3    H222995   5.664   6.010   1.121  0.2528 -2.2987  0.2432
  502TIP3   OH222996   6.268   4.750   4.161  0.8294  0.6224  0.0121
  502TIP3    H122997   6.339   4.750   4.096  0.1421  1.5926 -0.7821
  502TIP3    H222998   6.233   4.839   4.156 -0.6306  0.0713  0.1863
  503TIP3   OH222999   5.414   6.472  15.677 -0.6476  0.4036  0.4611
  503TIP3    H123000   5.457   6.526  15.743 -0.5781  1.4310 -0.4029
  503TIP3    H223001   5.423   6.521  15.596  0.1474 -1.2921 -0.5309
  504TIP3   OH223002   0.081   2.726  16.937 -0.3359  0.4177 -0.0970
  504TIP3    H123003   0.035   2.724  16.853 -0.2723  0.6833 -0.1361
  504TIP3    H223004   0.168   2.693  16.918 -0.1748  0.9168 -0.2226
  505TIP3   OH223005   2.491   1.763  16.395 -0.1867  0.6917 -0.2996
  505TIP3    H123006   2.519   1.771  16.304  0.9923  1.5558  0.1175
  505TIP3    H223007   2.556   1.812  16.445 -0.3603 -0.4277  1.0999
  506TIP3   OH223008   4.307   4.281  11.203 -0.0640 -0.4068  0.5398
  506TIP3    H123009   4.258   4.294  11.122 -0.7975  2.8590  1.3467
  506TIP3    H223010   4.399   4.287  11.178 -0.2970  2.7629  0.1112
  507TIP3   OH223011   1.349   0.034   0.641 -0.0582 -0.0533 -0.0838
  507TIP3    H123012   1.338   0.023   0.547 -0.6324  1.6176 -0.2550
  507TIP3    H223013   1.361   0.129   0.652 -0.9890 -0.0997  1.5968
  508TIP3   OH223014   3.648   2.376   4.963 -0.7962  0.0261 -0.2754
  508TIP3    H123015   3.718   2.402   4.904  0.9339 -0.6260  1.3981
  508TIP3    H223016   3.639   2.448   5.024 -0.9004 -0.3138  0.1180
  509TIP3   OH223017   1.638   6.816  11.217  0.8355 -0.5350  0.5144
  509TIP3    H123018   1.725   6.830  11.179  0.3583 -0.3846 -0.5551
  509TIP3    H223019   1.584   6.886  11.181  0.4530 -0.1245  1.8310
  510TIP3   OH223020   2.767   6.755  15.193 -0.2870 -0.7545  0.5451
  510TIP3    H123021   2.835   6.798  15.244 -1.6871  0.5876  1.3811
  510TIP3    H223022   2.812   6.684  15.147  1.9185  0.9505 -0.0754
  511TIP3   OH223023   5.185   5.179   4.453  0.4907  1.0005  0.6327
  511TIP3    H123024   5.261   5.122   4.454  0.6361  1.1934  0.6803
  511TIP3    H223025   5.217   5.263   4.486 -0.0422  0.7047  1.9708
  512TIP3   OH223026   4.943   1.179   2.957  0.2902 -0.1811  0.1305
  512TIP3    H123027   4.973   1.188   3.048  3.2104 -2.3358 -0.4566
  512TIP3    H223028   4.863   1.127   2.963  0.6297 -0.5931  1.4552
  513TIP3   OH223029   1.261   5.672   2.826  0.3859  0.5701  0.4099
  513TIP3    H123030   1.350   5.649   2.800  0.5803  1.0902  0.5910
  513TIP3    H223031   1.263   5.673   2.922 -0.3719 -1.5122  0.5017
  514TIP3   OH223032   4.220   6.356  12.675  0.2152  0.1868  0.3804
  514TIP3    H123033   4.263   6.370  12.591  0.4697 -2.3168  0.0179
  514TIP3    H223034   4.146   6.416  12.675 -0.0872 -0.1069 -1.8688
  515TIP3   OH223035   1.093   5.056   3.254 -0.1024 -0.3028 -0.0978
  515TIP3    H123036   1.125   5.115   3.186 -0.8698  2.3195  1.6966
  515TIP3    H223037   1.014   5.017   3.217 -0.3440  0.8517 -0.8492
  516TIP3   OH223038   0.721   0.777  13.875 -0.0275 -0.3285 -0.2749
  516TIP3    H123039   0.631   0.765  13.907 -0.0088  0.3006  0.0089
  516TIP3    H223040   0.719   0.740  13.787 -0.3417 -1.1155  0.0434
  517TIP3   OH223041   4.499   6.324  14.604  0.2458 -0.6715  0.5324
  517TIP3    H123042   4.464   6.326  14.693  0.0020  1.1366  0.4181
  517TIP3    H223043   4.441   6.380  14.554 -0.1030 -2.2861 -0.9916
  518TIP3   OH223044   3.079   5.889  13.743  0.2038  0.6044  0.0965
  518TIP3    H123045   3.160   5.922  13.782  0.5085 -1.4697  1.3144
  518TIP3    H223046   3.040   5.967  13.703  1.8898  2.0194  1.0161
  519TIP3   OH223047   1.112   3.696   3.630  0.1692 -0.0316  0.5252
  519TIP3    H123048   1.138   3.626   3.571  0.1493  1.0827 -0.8576
  519TIP3    H223049   1.187   3.756   3.632  0.2110 -0.0944  1.7290
  520TIP3   OH223050   2.347   3.741   2.342  0.2470 -0.1129 -0.1909
  520TIP3    H123051   2.284   3.677   2.309  1.3482 -0.8661 -0.8814
  520TIP3    H223052   2.379   3.703   2.424 -0.8133  0.6953  0.6424
  521TIP3   OH223053   2.773   2.144   5.510 -0.2270 -0.4240  0.0420
  521TIP3    H123054   2.813   2.069   5.466 -0.3753  0.7365 -2.1865
  521TIP3    H223055   2.689   2.156   5.466 -1.1576 -0.1892  1.7794
  522TIP3   OH223056   0.481   5.579   0.553  0.1107  0.3348 -0.1457
  522TIP3    H123057   0.537   5.512   0.593  0.8098  0.2420 -1.2373
  522TIP3    H223058   0.538   5.656   0.546 -0.1999  0.5436 -0.3910
  523TIP3   OH223059   4.831   6.652   1.122  0.4099  0.0950 -0.3707
  523TIP3    H123060   4.878   6.620   1.045 -0.9215 -2.5359 -0.2067
  523TIP3    H223061   4.891   6.637   1.195  0.8090  0.4665 -0.6190
  524TIP3   OH223062   0.200   3.788   4.022 -0.2124  0.5323  0.3271
  524TIP3    H123063   0.267   3.799   3.953 -0.1577 -0.6743  0.1678
  524TIP3    H223064   0.250   3.776   4.102 -0.1363 -1.8332  0.0031
  525TIP3   OH223065   5.762   4.814  15.850 -0.3397  0.1404  0.4512
  525TIP3    H123066   5.690   4.789  15.908 -0.7383 -1.4484 -0.6471
  525TIP3    H223067   5.737   4.780  15.764  1.2231  0.5065 -0.1922
  526TIP3   OH223068   2.004   3.250   4.908 -0.7154  0.1577 -0.4097
  526TIP3    H123069   2.027   3.241   5.000  0.7877 -2.3790 -0.9386
  526TIP3    H223070   2.088   3.257   4.863 -1.4357  1.9671 -1.6021
  527TIP3   OH223071   4.421   4.944  15.855 -0.0383  0.2845  0.4206
  527TIP3    H123072   4.368   4.864  15.860 -1.0437  0.8353 -0.7555
  527TIP3    H223073   4.386   5.001  15.924 -1.2555  0.7642 -0.5415
  528TIP3   OH223074   5.265   5.503  13.961  0.1314 -0.2220  0.3851
  528TIP3    H123075   5.242   5.451  13.884 -0.5277 -1.3235  1.3018
  528TIP3    H223076   5.287   5.590  13.926 -0.8788 -0.4914 -0.9644
  529TIP3   OH223077   3.215   2.390  11.862 -0.9694 -0.4363  0.2133
  529TIP3    H123078   3.284   2.404  11.927 -1.6619  0.9764  0.6849
  529TIP3    H223079   3.180   2.304  11.883 -0.0633 -0.7195  0.6300
  530TIP3   OH223080   4.953   1.922   6.686  0.1070  0.0308 -0.3226
  530TIP3    H123081   4.859   1.906   6.700  0.1456 -0.7347 -0.8796
  530TIP3    H223082   4.963   2.016   6.700 -0.6479  0.0370  0.2733
  531TIP3   OH223083   3.978   6.480  12.932  0.3826  0.3092 -0.3616
  531TIP3    H123084   4.042   6.414  12.960  0.0807  0.9285  2.0736
  531TIP3    H223085   4.001   6.499  12.841  2.3514 -0.9671 -0.2017
  532TIP3   OH223086   3.724   2.495   5.722  0.2030  0.0416 -0.1709
  532TIP3    H123087   3.682   2.564   5.774 -0.4152 -1.3574  1.2968
  532TIP3    H223088   3.815   2.494   5.752  0.6227  1.2223 -1.3319
  533TIP3   OH223089   3.973   0.008   1.017 -0.2432  0.7132 -0.1418
  533TIP3    H123090   4.025  -0.016   1.094  0.0719  0.4405 -0.4309
  533TIP3    H223091   3.989  -0.064   0.955  0.5764  1.5757 -0.9629
  534TIP3   OH223092   4.341   1.586   2.364  0.4884 -0.4696  0.1445
  534TIP3    H123093   4.288   1.509   2.343  0.3914 -0.5222  0.5817
  534TIP3    H223094   4.384   1.608   2.281 -1.7442  0.7694 -0.7620
  535TIP3   OH223095   6.062   5.938   2.327  0.1689 -0.1254  0.1648
  535TIP3    H123096   6.154   5.941   2.299  0.0118 -0.0598 -0.3486
  535TIP3    H223097   6.023   5.867   2.275  0.3719 -1.4648  1.7481
  536TIP3   OH223098   6.846   6.358  16.379  0.0164  0.2746  0.4513
  536TIP3    H123099   6.901   6.427  16.417 -0.0865 -0.1143  1.3239
  536TIP3    H223100   6.764   6.363  16.427 -1.0453  1.3634 -1.3594
  537TIP3   OH223101   1.047   1.366   2.530  0.7829 -0.0644 -0.0982
  537TIP3    H123102   0.978   1.378   2.595  1.6363  1.5367  0.5591
  537TIP3    H223103   1.102   1.296   2.566 -0.2350 -1.0620 -0.4314
  538TIP3   OH223104   2.891   0.415  12.842  0.0741  0.3300 -0.2555
  538TIP3    H123105   2.965   0.413  12.902  0.8804  1.6229 -1.1411
  538TIP3    H223106   2.922   0.467  12.767 -1.0002 -0.9114 -1.6421
  539TIP3   OH223107   1.766   4.842  15.736  0.0967  0.2109  0.0542
  539TIP3    H123108   1.790   4.880  15.820 -1.3120 -0.6974  0.9169
  539TIP3    H223109   1.679   4.875  15.718  0.7678  1.2159 -1.6058
  540TIP3   OH223110   1.558   0.647   2.967  0.5122 -0.4138  0.3204
  540TIP3    H123111   1.653   0.656   2.962  0.6629 -1.4588  1.0049
  540TIP3    H223112   1.536   0.585   2.897  0.1760  0.7575 -0.6368
  541TIP3   OH223113   2.391   0.609   5.017 -0.1671  0.0961 -1.2626
  541TIP3    H123114   2.317   0.584   5.073  0.3145 -0.6194 -0.9210
  541TIP3    H223115   2.352   0.632   4.933 -0.8218  0.2758 -0.9162
  542TIP3   OH223116   2.050   1.831  13.283 -0.2849 -0.2596 -0.0295
  542TIP3    H123117   2.063   1.743  13.248  1.0533 -0.8503  1.7800
  542TIP3    H223118   2.137   1.868  13.287 -0.8003  1.0448 -0.4400
  543TIP3   OH223119   6.641   3.467   5.366 -0.4934  0.1800 -0.1023
  543TIP3    H123120   6.669   3.557   5.385 -0.8346  0.2649 -0.0058
  543TIP3    H223121   6.664   3.454   5.274 -1.7890  0.8717 -0.5384
  544TIP3   OH223122   4.333   3.845   3.081  0.0390  0.0730 -0.2430
  544TIP3    H123123   4.341   3.814   3.171  1.3211 -0.6913 -0.5965
  544TIP3    H223124   4.285   3.775   3.035  0.1036  0.0908 -0.3374
  545TIP3   OH223125   5.047   4.344  12.851 -0.6474  0.2691  0.8947
  545TIP3    H123126   5.027   4.283  12.779 -0.3997 -1.9966  2.6159
  545TIP3    H223127   5.039   4.431  12.812 -0.3991 -0.8412 -1.8992
  546TIP3   OH223128   4.835   2.270  14.441 -0.6161 -0.2126  0.4342
  546TIP3    H123129   4.745   2.240  14.449 -0.4220 -0.6879  0.9224
  546TIP3    H223130   4.856   2.306  14.527 -0.4552  0.2330  0.2137
  547TIP3   OH223131   3.288   2.086   0.059  0.0621  0.5350 -0.2636
  547TIP3    H123132   3.276   2.100   0.153 -1.7181 -1.5896 -0.1031
  547TIP3    H223133   3.381   2.100   0.045  1.0547 -2.2331  2.4707
  548TIP3   OH223134   5.896   2.561  11.097 -0.1654 -0.2676 -0.1623
  548TIP3    H123135   5.909   2.551  11.003 -1.2004 -0.6750 -0.2742
  548TIP3    H223136   5.801   2.561  11.109 -0.0917  1.3661  0.7218
  549TIP3   OH223137   5.744   3.442   0.389 -0.4081  0.1857 -0.0478
  549TIP3    H123138   5.825   3.458   0.341 -0.3556  0.2759  0.0707
  549TIP3    H223139   5.756   3.486   0.473 -0.7312  0.5230 -0.1760
  550TIP3   OH223140   2.543   5.605   5.332 -0.5062  0.3951 -0.7261
  550TIP3    H123141   2.466   5.553   5.310 -0.3621  0.5749 -1.7066
  550TIP3    H223142   2.609   5.579   5.268  0.2448  0.2789  0.0713
  551TIP3   OH223143   1.537   0.169   3.320  0.1865 -0.1489 -0.4265
  551TIP3    H123144   1.447   0.151   3.295 -0.0647 -0.7365  0.8304
  551TIP3    H223145   1.557   0.252   3.277 -1.0272  0.1074 -0.5373
  552TIP3   OH223146   0.161   3.876   5.910 -0.4556  0.4035  0.7454
  552TIP3    H123147   0.240   3.931   5.914  0.6069 -1.1158  1.4900
  552TIP3    H223148   0.172   3.825   5.830  0.2445 -1.0977  1.7549
  553TIP3   OH223149   5.509   4.895  12.879 -0.0327  0.7107 -0.0502
  553TIP3    H123150   5.603   4.900  12.895 -0.3166 -0.2965  2.2875
  553TIP3    H223151   5.496   4.811  12.835  0.0890  0.5334  0.2545
  554TIP3   OH223152   2.929   1.666  11.121  0.5740 -0.5843  0.3171
  554TIP3    H123153   2.946   1.759  11.138  0.1194 -0.7987  2.1821
  554TIP3    H223154   2.835   1.656  11.136  0.9176 -1.6618  2.0349
  555TIP3   OH223155   6.167   6.602  10.634 -0.2277 -0.4595  0.4385
  555TIP3    H123156   6.221   6.529  10.664  1.3901 -0.4201 -2.0806
  555TIP3    H223157   6.119   6.567  10.559 -1.6069  0.3214  0.9163
  556TIP3   OH223158   3.301   0.189   3.646 -0.2526  0.1938 -0.7978
  556TIP3    H123159   3.320   0.182   3.553  1.8180  0.0169 -0.4146
  556TIP3    H223160   3.313   0.282   3.665  0.9078 -0.0100 -0.4406
  557TIP3   OH223161   0.523   1.697   0.359  0.1835 -0.2328  0.0673
  557TIP3    H123162   0.431   1.695   0.383  0.5215 -1.5696  1.3940
  557TIP3    H223163   0.532   1.775   0.304 -1.6433  0.1262  0.2237
  558TIP3   OH223164   6.556   2.291   5.213 -0.5402 -0.2592  0.2918
  558TIP3    H123165   6.580   2.206   5.250  0.9779 -0.1205 -0.3170
  558TIP3    H223166   6.571   2.353   5.285 -2.1302 -0.5345  0.8978
  559TIP3   OH223167   1.286   4.755  11.746  0.0592  0.2632 -0.0538
  559TIP3    H123168   1.347   4.827  11.762 -0.2036  0.5899 -0.5235
  559TIP3    H223169   1.235   4.749  11.827  0.3759  0.3103  0.1530
  560TIP3   OH223170   1.429   6.227  11.902  0.1081  1.0887  0.4942
  560TIP3    H123171   1.368   6.294  11.934  1.2845  1.6680  1.5859
  560TIP3    H223172   1.458   6.259  11.817 -2.3547 -0.0203 -0.8792
  561TIP3   OH223173   4.540   5.119   0.675 -0.3335 -0.0196 -0.9712
  561TIP3    H123174   4.547   5.040   0.729 -0.0689  0.1231 -0.7925
  561TIP3    H223175   4.607   5.108   0.607  0.5015  0.5684 -0.2689
  562TIP3   OH223176   0.926   5.026  11.959 -0.0699 -0.3451 -0.5366
  562TIP3    H123177   0.864   5.094  11.985 -2.3087 -1.1794 -3.1037
  562TIP3    H223178   1.011   5.058  11.989 -1.3937  2.0572  1.0431
  563TIP3   OH223179   4.185   4.126   4.573 -0.4623 -0.1595 -0.4229
  563TIP3    H123180   4.153   4.163   4.655  1.6372 -0.6778  0.7138
  563TIP3    H223181   4.113   4.139   4.511 -0.8471  3.4942  0.5204
  564TIP3   OH223182   2.499   1.225   2.134  0.4010  0.2031 -0.0706
  564TIP3    H123183   2.440   1.176   2.076  0.8460 -1.6113  0.9044
  564TIP3    H223184   2.505   1.312   2.095 -0.3986 -0.5240 -1.9526
  565TIP3   OH223185   2.963   6.522  15.346  0.2350  0.2473 -0.3087
  565TIP3    H123186   3.024   6.506  15.274  0.7063  3.1241 -0.6950
  565TIP3    H223187   3.018   6.557  15.416 -0.3515 -1.6804  1.1736
  566TIP3   OH223188   4.603   3.809  15.499  0.4820 -0.0314 -0.0702
  566TIP3    H123189   4.543   3.757  15.553  1.2710 -0.6412  0.2395
  566TIP3    H223190   4.581   3.900  15.521 -3.4946  0.0954 -3.3385
  567TIP3   OH223191   2.894   4.367  11.362 -0.5094  0.0420  0.3379
  567TIP3    H123192   2.815   4.340  11.315 -0.4166 -0.1952  0.3143
  567TIP3    H223193   2.964   4.313  11.325 -0.1383  0.9764 -0.3669
  568TIP3   OH223194   4.344   1.479  12.126  0.3150  0.4225 -0.1907
  568TIP3    H123195   4.331   1.388  12.100 -2.5579  0.6210  0.2573
  568TIP3    H223196   4.399   1.474  12.204  0.0581 -0.9424 -0.0737
  569TIP3   OH223197   6.085   4.674   4.394 -0.7594 -0.1034 -0.2851
  569TIP3    H123198   6.139   4.666   4.316 -0.0094  0.7419  0.1334
  569TIP3    H223199   6.093   4.590   4.438  1.3680  0.4637  0.4932
  570TIP3   OH223200   1.204   3.269  13.278 -0.3326 -0.2576  0.1498
  570TIP3    H123201   1.287   3.247  13.237 -0.9355  1.0503 -1.9714
  570TIP3    H223202   1.183   3.194  13.334  1.8389 -0.9627  0.1127
  571TIP3   OH223203   2.506   3.225   1.300 -0.0801 -0.1867 -0.1344
  571TIP3    H123204   2.551   3.143   1.280 -1.3929 -0.8073 -0.6205
  571TIP3    H223205   2.513   3.234   1.395  2.1790  0.4202 -0.2892
  572TIP3   OH223206   1.758   2.657  15.602 -0.3706  0.2939 -0.1750
  572TIP3    H123207   1.746   2.576  15.651  0.9010 -0.3316 -0.8286
  572TIP3    H223208   1.674   2.701  15.607 -1.1898 -1.2115 -0.0535
  573TIP3   OH223209   3.434   3.099   5.245 -0.1106 -0.2142  0.3521
  573TIP3    H123210   3.444   3.032   5.313 -0.4383 -0.2969  0.3232
  573TIP3    H223211   3.339   3.108   5.235 -0.0779  0.8523  0.9471
  574TIP3   OH223212   3.483   5.949  14.519 -1.0682 -0.2384 -0.1284
  574TIP3    H123213   3.387   5.950  14.509 -0.9517 -0.7053 -1.4675
  574TIP3    H223214   3.516   5.950  14.430  0.1485 -2.6517  0.2238
  575TIP3   OH223215   4.884   6.071   4.760 -0.2985  0.2876  0.3475
  575TIP3    H123216   4.919   6.066   4.671 -1.1449  0.4039 -0.0005
  575TIP3    H223217   4.793   6.099   4.748 -1.6037 -3.1696  0.9690
  576TIP3   OH223218   0.209   0.884  15.216  0.1721 -0.3049  0.3858
  576TIP3    H123219   0.181   0.975  15.221 -3.3616 -1.0875 -1.6664
  576TIP3    H223220   0.152   0.838  15.277 -0.5135 -1.4975 -1.0641
  577TIP3   OH223221   2.728   0.138  15.967  0.0871 -0.2606 -0.1308
  577TIP3    H123222   2.689   0.225  15.963 -0.5039 -0.5261 -0.3486
  577TIP3    H223223   2.761   0.122  15.879  1.1671  0.1655  0.1802
  578TIP3   OH223224   2.974   4.311  12.321 -0.3281 -0.2367  0.0127
  578TIP3    H123225   3.060   4.278  12.344  0.2708  1.0860 -0.2185
  578TIP3    H223226   2.974   4.313  12.225 -0.0635  1.0530  0.0133
  579TIP3   OH223227   0.991   3.143  16.214  0.0964 -0.1058  0.8526
  579TIP3    H123228   0.916   3.100  16.172 -0.4076 -0.7154  2.3053
  579TIP3    H223229   0.952   3.195  16.284  0.9482  0.4791  0.9029
  580TIP3   OH223230   3.729   1.488  15.199  0.5924  0.2856  0.6646
  580TIP3    H123231   3.771   1.508  15.283  0.6981  3.7063 -0.0651
  580TIP3    H223232   3.641   1.458  15.223  0.9318  0.2965  1.9931
  581TIP3   OH223233   0.463   4.718  14.222 -0.1551 -0.2821  0.4526
  581TIP3    H123234   0.423   4.767  14.150 -0.0351  1.4957  1.5307
  581TIP3    H223235   0.547   4.761  14.236  0.3527 -1.3844  0.8781
  582TIP3   OH223236   4.792   6.029   0.140 -0.4377 -0.0255  0.3069
  582TIP3    H123237   4.726   6.090   0.108  0.6872  1.4715  0.7522
  582TIP3    H223238   4.752   5.989   0.217 -0.5000  1.5843  1.1547
  583TIP3   OH223239   0.014   5.725   4.652 -0.2409  0.1174 -0.4835
  583TIP3    H123240  -0.031   5.698   4.731  0.0903  1.8886  0.3571
  583TIP3    H223241  -0.053   5.725   4.584 -0.9439  0.3689  0.2045
  584TIP3   OH223242   3.395   0.352  16.167 -0.6985  0.2142 -0.1263
  584TIP3    H123243   3.485   0.372  16.143 -0.3906  0.6259  1.2861
  584TIP3    H223244   3.383   0.391  16.253 -1.9801 -0.5204  0.0688
  585TIP3   OH223245   1.344   4.419  13.815  0.0853  0.0885 -0.2269
  585TIP3    H123246   1.390   4.472  13.750  1.1056 -1.1770 -0.5905
  585TIP3    H223247   1.384   4.332  13.807  0.4432 -0.0363  2.2715
  586TIP3   OH223248   1.754   2.107   2.433  0.3000 -0.3765 -0.3379
  586TIP3    H123249   1.688   2.054   2.387  1.8088 -1.4282 -1.3546
  586TIP3    H223250   1.765   2.185   2.379 -0.2122 -0.1067 -0.0670
  587TIP3   OH223251   6.155   5.118   4.987 -0.3770  0.4625 -0.4201
  587TIP3    H123252   6.171   5.171   5.065 -0.0329 -0.3260  0.0693
  587TIP3    H223253   6.193   5.168   4.915 -0.0880  0.8916  0.0216
  588TIP3   OH223254   6.286   1.975  15.274  0.5477 -0.1952  0.2429
  588TIP3    H123255   6.260   1.898  15.326  0.4754 -0.6267 -0.4184
  588TIP3    H223256   6.204   2.007  15.237  0.8675 -1.4037 -1.6390
  589TIP3   OH223257   6.437   2.776  16.519 -1.1437  0.3805 -0.2067
  589TIP3    H123258   6.401   2.747  16.603  0.8658 -0.5765  0.3805
  589TIP3    H223259   6.466   2.866  16.535  1.2646 -0.5169  0.8612
  590TIP3   OH223260   1.250   5.373  12.556 -0.2230  0.6042  0.1642
  590TIP3    H123261   1.340   5.388  12.526  0.0757 -0.6259  0.4060
  590TIP3    H223262   1.250   5.403  12.646 -0.1238  0.8344  0.0894
  591TIP3   OH223263   5.878   4.968   2.641  0.4960 -0.9417  0.5205
  591TIP3    H123264   5.852   5.059   2.622  2.3414 -0.6401 -0.7477
  591TIP3    H223265   5.814   4.939   2.706  0.5062  1.6436  1.8397
  592TIP3   OH223266   6.007   6.658   2.454 -0.8359 -0.1925 -0.0299
  592TIP3    H123267   6.037   6.567   2.452 -1.6542 -0.4718 -0.1173
  592TIP3    H223268   6.086   6.709   2.472  0.1698 -0.6722 -2.5721
  593TIP3   OH223269   0.206   4.889   0.982  0.1513  0.4314  0.0535
  593TIP3    H123270   0.178   4.838   0.906  0.5065  0.7932 -0.3233
  593TIP3    H223271   0.157   4.851   1.056  2.1411 -2.0544  0.2214
  594TIP3   OH223272   1.200   1.151   2.628  0.3384 -0.3217 -0.0037
  594TIP3    H123273   1.158   1.072   2.593 -0.4022 -0.1665  0.5034
  594TIP3    H223274   1.261   1.117   2.694 -1.0641 -0.4266  1.3033
  595TIP3   OH223275   1.664   3.714  14.373  0.4877  0.1876 -0.6998
  595TIP3    H123276   1.752   3.689  14.343  0.7216 -1.3469  1.0517
  595TIP3    H223277   1.670   3.710  14.469 -1.9436 -1.8157 -0.5356
  596TIP3   OH223278   4.321   2.788   0.048  0.1808 -0.3093 -0.7074
  596TIP3    H123279   4.341   2.856  -0.016  0.9129  0.3488  0.2080
  596TIP3    H223280   4.402   2.777   0.097  0.0620 -1.8197 -0.8035
  597TIP3   OH223281   2.956   3.594   2.457 -0.4939  0.3791  0.3418
  597TIP3    H123282   2.965   3.572   2.550 -0.8085  0.6218  0.4302
  597TIP3    H223283   2.988   3.684   2.450 -2.3448  1.0961  0.5832
  598TIP3   OH223284   4.884   5.356   5.079 -0.6577  0.3177  0.1369
  598TIP3    H123285   4.940   5.386   5.150 -0.8271 -0.4450  0.5963
  598TIP3    H223286   4.882   5.430   5.017 -0.6585  1.0552  1.0024
  599TIP3   OH223287   5.337   2.772   4.203  0.4486 -0.2467 -0.6996
  599TIP3    H123288   5.319   2.682   4.177 -1.2549  0.0456 -0.6827
  599TIP3    H223289   5.314   2.776   4.296 -0.8898  0.5229 -1.0364
  600TIP3   OH223290   3.633   4.905   4.806 -0.5236  0.4914 -0.1863
  600TIP3    H123291   3.538   4.907   4.813 -0.4254  2.3011  1.6191
  600TIP3    H223292   3.664   4.949   4.886  1.8754 -1.4636  0.0935
  601TIP3   OH223293   3.991   0.017  16.775 -0.1264 -0.0609 -0.3610
  601TIP3    H123294   4.063  -0.042  16.752 -1.5613 -1.3603 -1.6880
  601TIP3    H223295   3.936  -0.033  16.834 -1.2664 -0.0261 -1.3516
  602TIP3   OH223296   4.312   2.712  15.342  0.1006  0.4978 -0.0173
  602TIP3    H123297   4.305   2.787  15.283 -0.0897  1.9346  1.7483
  602TIP3    H223298   4.401   2.679  15.328  0.6349  1.8350  0.0394
  603TIP3   OH223299   2.409   6.615   5.485 -0.1088 -0.4026 -0.5061
  603TIP3    H123300   2.466   6.540   5.500  1.3677  0.6462 -0.7016
  603TIP3    H223301   2.468   6.687   5.465 -1.5108  0.7249 -0.7685
  604TIP3   OH223302   2.943   4.635   4.767 -0.4337 -0.1872  0.1479
  604TIP3    H123303   2.979   4.668   4.849  0.6011  1.1647 -0.8103
  604TIP3    H223304   2.878   4.570   4.794  2.2172 -2.3226  2.0239
  605TIP3   OH223305   1.006   2.848   2.720  0.4909 -0.1680 -0.8106
  605TIP3    H123306   1.070   2.919   2.708  1.5361 -0.7320  1.0892
  605TIP3    H223307   1.035   2.802   2.798 -1.9471 -0.8012 -0.1931
  606TIP3   OH223308   5.698   6.049  13.055  0.2376  0.1081 -0.1958
  606TIP3    H123309   5.688   6.004  12.971 -1.3509 -1.5003  0.7717
  606TIP3    H223310   5.776   6.010  13.094 -0.1535 -0.5914 -0.0990
  607TIP3   OH223311   4.298   4.217  13.183  0.3279  0.8270 -0.0110
  607TIP3    H123312   4.206   4.199  13.163 -0.1263  1.5955  1.2629
  607TIP3    H223313   4.344   4.139  13.153 -0.8436  0.0748  0.0492
  608TIP3   OH223314   5.753   6.642   0.805 -0.8586 -0.0467  0.2716
  608TIP3    H123315   5.677   6.661   0.750 -1.9325  2.3757  2.3632
  608TIP3    H223316   5.825   6.688   0.763 -0.7477 -1.4840 -1.1646
  609TIP3   OH223317   2.578   0.229  11.715  0.2030 -0.1607 -0.3255
  609TIP3    H123318   2.595   0.252  11.623 -2.8858  1.2664 -0.6937
  609TIP3    H223319   2.602   0.308  11.764  0.1971 -0.2677 -0.1507
  610TIP3   OH223320   4.431   1.858   0.880  0.1611 -0.2887  0.8976
  610TIP3    H123321   4.460   1.906   0.958  0.3107  0.2650  0.5040
  610TIP3    H223322   4.351   1.813   0.908  1.5764 -2.2227  2.1418
  611TIP3   OH223323   5.361   6.261   2.773 -0.3356 -0.3701 -0.1742
  611TIP3    H123324   5.436   6.284   2.828  0.5027  0.7381 -1.7247
  611TIP3    H223325   5.394   6.192   2.715 -0.7245 -0.3841 -0.3793
  612TIP3   OH223326   2.991   3.731   5.504 -0.3743 -0.0838 -0.4249
  612TIP3    H123327   3.047   3.808   5.518 -0.7171  0.0995 -0.0262
  612TIP3    H223328   2.940   3.724   5.584  1.6218 -2.4207  0.7594
  613TIP3   OH223329   5.804   1.856  11.803 -0.4249  0.3085 -0.2757
  613TIP3    H123330   5.797   1.860  11.708 -0.3113 -2.3693 -0.4603
  613TIP3    H223331   5.832   1.767  11.822  1.3921  1.2911  2.2021
  614TIP3   OH223332   5.671   1.133  14.448  0.0385  0.7136 -0.1854
  614TIP3    H123333   5.669   1.189  14.525 -1.0726  1.8109 -0.9699
  614TIP3    H223334   5.757   1.149  14.409  0.4762  0.4011  0.6262
  615TIP3   OH223335   4.108   3.810   1.527 -0.3928 -0.6631 -0.0734
  615TIP3    H123336   4.201   3.795   1.547 -0.2057  1.5446  1.0248
  615TIP3    H223337   4.069   3.722   1.525  1.5495 -1.5813  0.2701
  616TIP3   OH223338   3.856   3.686  13.544  0.2124 -0.4417 -0.0206
  616TIP3    H123339   3.918   3.634  13.493 -0.2523 -0.7498 -0.2727
  616TIP3    H223340   3.839   3.763  13.490  1.7158  0.5209  0.8102
  617TIP3   OH223341   4.642   6.837  12.965  0.5017 -0.7222 -0.4425
  617TIP3    H123342   4.555   6.828  13.004  1.1448 -2.5889  0.7088
  617TIP3    H223343   4.702   6.801  13.031  1.8560 -2.1427 -2.3028
  618TIP3   OH223344   3.626   2.129   5.069 -0.6947  0.0625 -0.1211
  618TIP3    H123345   3.618   2.225   5.065  0.3667  0.1628 -0.2059
  618TIP3    H223346   3.625   2.109   5.163 -1.5162  0.0914 -0.1184
  619TIP3   OH223347   1.874   5.463  14.502  0.4512  0.2469 -0.2750
  619TIP3    H123348   1.883   5.461  14.597  2.0513 -0.3399 -0.3946
  619TIP3    H223349   1.965   5.463  14.470  0.0139 -2.5167 -1.8259
  620TIP3   OH223350   1.599   3.872  14.941 -0.4267  0.2165  0.0631
  620TIP3    H123351   1.587   3.937  14.872  1.0188 -0.2706 -0.6774
  620TIP3    H223352   1.512   3.863  14.980 -0.5074  3.4547  1.0142
  621TIP3   OH223353   0.828   4.730  11.999 -0.0758 -0.6016 -0.4617
  621TIP3    H123354   0.789   4.811  12.032  0.9880  0.0004 -0.6437
  621TIP3    H223355   0.762   4.663  12.017 -1.0136  0.3116 -0.3921
  622TIP3   OH223356   4.965   6.304   3.310  0.2085  0.0665  0.0328
  622TIP3    H123357   4.899   6.334   3.372 -0.7767  0.3523 -1.1072
  622TIP3    H223358   4.915   6.259   3.242  1.3564 -1.1454 -0.0462
  623TIP3   OH223359   0.731   6.578  12.968  0.5985  0.7257  0.1344
  623TIP3    H123360   0.691   6.564  13.054 -2.2826  1.2712 -0.9922
  623TIP3    H223361   0.815   6.619  12.986 -0.0283  1.0372  2.6725
  624TIP3   OH223362   1.765   3.551   0.492 -0.0799  0.1182 -0.0934
  624TIP3    H123363   1.716   3.624   0.453  0.7141  0.0778 -1.2127
  624TIP3    H223364   1.856   3.569   0.469  0.1537 -1.0954 -0.1655
  625TIP3   OH223365   5.062   0.411   5.915 -0.2630 -1.0202 -0.5381
  625TIP3    H123366   5.010   0.446   5.842 -0.3264  0.7367  0.2968
  625TIP3    H223367   4.999   0.399   5.986  0.2467 -0.0510  0.0951
  626TIP3   OH223368   2.907   5.693  11.703 -0.4651  0.1477 -0.5084
  626TIP3    H123369   2.896   5.602  11.731 -0.8505  0.6540  1.0601
  626TIP3    H223370   2.818   5.722  11.682 -0.2755  0.0187 -1.5458
  627TIP3   OH223371   4.888   4.281   2.349  0.1481  0.0560 -0.1168
  627TIP3    H123372   4.916   4.369   2.373  0.6195  0.0784 -0.7350
  627TIP3    H223373   4.915   4.271   2.258 -0.7181 -0.3951 -0.3391
  628TIP3   OH223374   4.505   0.121   5.720  0.0645  0.6877  0.5356
  628TIP3    H123375   4.551   0.145   5.639 -0.5755  1.0495  0.2716
  628TIP3    H223376   4.463   0.202   5.748 -1.4726  0.0747  0.0650
  629TIP3   OH223377   4.188   2.261  10.517 -0.0509  0.0655 -0.5200
  629TIP3    H123378   4.267   2.256  10.570 -0.6129  0.3132  0.3673
  629TIP3    H223379   4.216   2.238  10.428  0.6997 -1.4437  0.0774
  630TIP3   OH223380   0.508   0.279  11.082 -0.3574  0.0884 -0.1437
  630TIP3    H123381   0.544   0.190  11.082 -1.2225 -0.2743 -0.7992
  630TIP3    H223382   0.524   0.311  10.993  1.8978  1.4249  0.6739
  631TIP3   OH223383   5.470   0.157   6.274 -0.0516  0.1513  0.5513
  631TIP3    H123384   5.560   0.162   6.241 -0.0924 -0.5115  0.3204
  631TIP3    H223385   5.443   0.067   6.255 -0.6159  0.2225  1.0053
  632TIP3   OH223386   2.138   5.145  14.855  0.0872  0.2842 -0.2441
  632TIP3    H123387   2.215   5.168  14.908  0.5965 -0.4164 -0.6632
  632TIP3    H223388   2.157   5.181  14.768  0.3480 -0.6555 -0.5813
  633TIP3   OH223389   6.793   0.827  13.290 -0.0335  0.0965 -0.5882
  633TIP3    H123390   6.870   0.788  13.331  0.3953  0.2031 -1.2755
  633TIP3    H223391   6.729   0.756  13.289  0.1778 -0.1003 -0.3409
  634TIP3   OH223392   1.648   4.992   6.534 -0.3420 -0.9339 -0.0839
  634TIP3    H123393   1.742   5.002   6.522 -0.5643  1.2869 -0.3969
  634TIP3    H223394   1.636   4.993   6.629 -0.1306  0.0717 -0.0538
  635TIP3   OH223395   1.360   1.764  14.291  0.0086 -0.3201  0.2517
  635TIP3    H123396   1.345   1.729  14.379 -1.2471 -0.0970  0.1467
  635TIP3    H223397   1.285   1.733  14.240 -0.0662  0.7976 -0.3535
  636TIP3   OH223398   4.611   5.695  12.261 -0.8088  0.2652 -0.0593
  636TIP3    H123399   4.517   5.687  12.251 -0.8040 -1.1410  0.7460
  636TIP3    H223400   4.623   5.731  12.349 -0.6206  2.9657 -1.1088
  637TIP3   OH223401   4.968   5.434  14.374 -0.0937  0.1515  0.2346
  637TIP3    H123402   4.943   5.375  14.302 -1.5284  1.7813 -0.6813
  637TIP3    H223403   4.913   5.407  14.447 -1.2165  0.6971 -0.3723
  638TIP3   OH223404   5.351   5.528   3.718  0.3093 -0.5058  0.2180
  638TIP3    H123405   5.391   5.465   3.658  2.2061  1.0330 -0.2313
  638TIP3    H223406   5.315   5.596   3.661 -0.1301 -0.2923  0.7430
  639TIP3   OH223407   0.658   4.688   6.377  0.2665  0.1958  0.0977
  639TIP3    H123408   0.629   4.613   6.324 -0.7026  1.2719 -0.9603
  639TIP3    H223409   0.700   4.746   6.314  1.8059  0.1695  1.0678
  640TIP3   OH223410   6.547   3.381  16.688  0.3117 -1.0289 -0.4251
  640TIP3    H123411   6.478   3.427  16.735  0.0094 -1.5739 -0.3296
  640TIP3    H223412   6.502   3.310  16.642  0.3974  0.3151 -2.6919
  641TIP3   OH223413   3.245   0.906   0.070 -0.4055  0.2698  0.0803
  641TIP3    H123414   3.268   0.993   0.101 -1.2704  0.9308 -1.0593
  641TIP3    H223415   3.266   0.848   0.143  2.0481  1.1567  0.1564
  642TIP3   OH223416   3.558   4.935  11.579  0.5309 -0.3397 -0.7423
  642TIP3    H123417   3.619   4.976  11.518  1.2049  0.7297  0.5889
  642TIP3    H223418   3.608   4.924  11.660 -1.2280  1.3810  0.6854
  643TIP3   OH223419   1.412   0.588  10.798 -0.5576 -0.2193  0.1427
  643TIP3    H123420   1.448   0.552  10.717  0.7540 -0.0560  0.6304
  643TIP3    H223421   1.403   0.682  10.781  0.3678 -0.0730  0.3947
  644TIP3   OH223422   1.771   3.067  13.090  0.1494 -0.0969 -0.1540
  644TIP3    H123423   1.680   3.093  13.076  0.1309 -0.4388 -0.7276
  644TIP3    H223424   1.782   3.064  13.185  0.2775  2.3966 -0.0288
  645TIP3   OH223425   0.300   5.578  14.043 -0.1260 -0.7829  0.4905
  645TIP3    H123426   0.260   5.591  13.957  1.2329 -1.5643 -0.3082
  645TIP3    H223427   0.304   5.483  14.053  1.4616 -0.7513  0.5250
  646TIP3   OH223428   2.877   4.360  14.021 -0.1082  0.0049 -0.5765
  646TIP3    H123429   2.848   4.272  14.046  0.0344 -0.3365 -1.5647
  646TIP3    H223430   2.917   4.348  13.934  0.6030  0.9126 -0.3891
  647TIP3   OH223431   5.594   2.751   2.564  0.6331 -0.2338  0.0030
  647TIP3    H123432   5.682   2.732   2.597  0.8391 -2.3041 -1.5387
  647TIP3    H223433   5.545   2.669   2.577 -0.5290  0.2989 -0.8171
  648TIP3   OH223434   0.692   3.759   1.883  0.0748  0.3658  0.3920
  648TIP3    H123435   0.602   3.733   1.865 -0.4416  0.5028  2.5596
  648TIP3    H223436   0.729   3.685   1.931  1.1206  0.3564 -0.3820
  649TIP3   OH223437   1.669   0.085  14.821 -0.0330 -0.4136  0.0195
  649TIP3    H123438   1.657   0.105  14.914 -1.4600 -0.3580 -0.1661
  649TIP3    H223439   1.719   0.159  14.787 -0.6906  0.2394  0.4540
  650TIP3   OH223440   6.705   1.326   2.778  0.1512  0.0039  0.2261
  650TIP3    H123441   6.648   1.261   2.819  0.9969 -0.5015  0.6187
  650TIP3    H223442   6.647   1.400   2.760 -0.8744 -0.9267 -0.4303
  651TIP3   OH223443   5.617   1.370  11.151 -0.4556  0.3887  0.5131
  651TIP3    H123444   5.550   1.404  11.091 -1.0535  0.2244  1.0663
  651TIP3    H223445   5.612   1.275  11.141  0.7610  0.4106 -0.5526
  652TIP3   OH223446   5.329   5.773   1.303  0.6197 -0.0952  0.4281
  652TIP3    H123447   5.300   5.690   1.264  0.0818  0.5115 -0.5163
  652TIP3    H223448   5.253   5.803   1.353  0.5797  0.1458  0.2240
  653TIP3   OH223449   0.725   1.882  14.653  0.1752 -0.3232 -0.7821
  653TIP3    H123450   0.776   1.963  14.661  0.7816 -0.6790 -0.9777
  653TIP3    H223451   0.780   1.815  14.693 -0.8196 -0.4551  0.4508
  654TIP3   OH223452   2.437   0.857  10.828 -0.2687  0.3427  0.1339
  654TIP3    H123453   2.447   0.886  10.737 -0.4475  0.9729  0.3114
  654TIP3    H223454   2.346   0.877  10.849 -0.5667 -0.8566  0.0926
  655TIP3   OH223455   3.049   0.760   1.670  0.0233 -0.6374 -0.3442
  655TIP3    H123456   3.037   0.783   1.762  0.2189  0.1110 -0.4989
  655TIP3    H223457   3.030   0.841   1.622 -1.2990 -1.3297 -1.0598
  656TIP3   OH223458   4.699   2.998   4.480 -0.2122  0.2851  0.3916
  656TIP3    H123459   4.633   3.015   4.413  1.4177 -0.2351 -1.4286
  656TIP3    H223460   4.782   3.023   4.439  1.0803 -1.9590  1.4576
  657TIP3   OH223461   5.685   3.151  16.577 -0.0254  0.0129  0.4680
  657TIP3    H123462   5.605   3.195  16.605  1.4242  2.5666  0.9251
  657TIP3    H223463   5.695   3.078  16.638 -2.3197 -0.8023 -0.0450
  658TIP3   OH223464   0.884   3.330  12.077 -0.3005 -0.2151 -0.3636
  658TIP3    H123465   0.854   3.325  11.986  1.1727 -1.4690 -0.8344
  658TIP3    H223466   0.807   3.358  12.127 -0.7519  2.0709 -2.1766
  659TIP3   OH223467   3.632   2.230   2.979 -0.2275  0.5263  0.3150
  659TIP3    H123468   3.615   2.308   2.925 -1.6886  1.9520  2.6728
  659TIP3    H223469   3.546   2.193   2.995  0.2912 -0.4984  0.7885
  660TIP3   OH223470   5.478   5.816  14.967  0.3732 -0.7391  0.1373
  660TIP3    H123471   5.413   5.880  14.994  0.3837 -0.8319  0.3875
  660TIP3    H223472   5.434   5.761  14.902 -0.4486 -2.0630  1.7532
  661TIP3   OH223473   3.460   0.574   3.459  0.3204 -0.1389 -0.9605
  661TIP3    H123474   3.395   0.635   3.425  1.9129  1.0238 -2.0936
  661TIP3    H223475   3.472   0.600   3.550  0.2349  0.5808 -1.1508
  662TIP3   OH223476   4.636   6.744   4.843  0.4358  0.4056  0.1428
  662TIP3    H123477   4.731   6.754   4.829  0.4601  0.2445  0.1897
  662TIP3    H223478   4.616   6.805   4.914  0.7395 -0.5069  1.0401
  663TIP3   OH223479   5.093   2.673  13.960  0.4707 -0.1214  0.2962
  663TIP3    H123480   5.023   2.612  13.937  1.1888 -0.4204 -1.2452
  663TIP3    H223481   5.055   2.729  14.028 -0.8325 -1.0567  0.3774
  664TIP3   OH223482   6.661   6.025  15.397  0.3533 -0.0632 -0.1772
  664TIP3    H123483   6.665   6.116  15.369 -1.8947  0.1899  0.1286
  664TIP3    H223484   6.597   6.024  15.468  0.4408 -1.8528 -0.0605
  665TIP3   OH223485   6.249   4.573  13.282  0.5303  0.0903  0.2448
  665TIP3    H123486   6.293   4.489  13.295 -2.9319 -1.5192  3.6522
  665TIP3    H223487   6.280   4.628  13.353  0.3087  0.5050  0.0228
  666TIP3   OH223488   6.400   0.402   0.021  0.2709 -0.4026 -0.0912
  666TIP3    H123489   6.405   0.437  -0.068 -2.9392 -0.7876 -0.5431
  666TIP3    H223490   6.407   0.479   0.078 -0.5552  0.2269 -0.8204
  667TIP3   OH223491   5.843   6.581   4.062  0.5946  0.3118 -0.3059
  667TIP3    H123492   5.807   6.507   4.110 -0.2843  0.1952 -1.1280
  667TIP3    H223493   5.851   6.651   4.128  2.1964 -0.7182  0.6701
  668TIP3   OH223494   6.389   1.026   3.116  0.2415 -0.2225  0.3180
  668TIP3    H123495   6.316   1.087   3.130  0.5557 -0.0166  1.1027
  668TIP3    H223496   6.357   0.942   3.147  0.8241  0.1655  2.1142
  669TIP3   OH223497   0.617   2.678   4.250  0.0637 -0.0017  0.4029
  669TIP3    H123498   0.691   2.735   4.268  0.5689 -0.6642  0.4833
  669TIP3    H223499   0.628   2.652   4.158 -0.0584 -0.1133  0.4178
  670TIP3   OH223500   2.598   6.653   3.337  0.0122  0.1149  0.4723
  670TIP3    H123501   2.612   6.735   3.289 -0.8117 -0.0751 -0.1272
  670TIP3    H223502   2.576   6.680   3.426  1.3935  0.4814  0.7167
  671TIP3   OH223503   1.764   2.583  13.460 -0.1274  0.2288 -0.0413
  671TIP3    H123504   1.815   2.663  13.448 -0.0730  0.0616 -1.0843
  671TIP3    H223505   1.685   2.597  13.408  0.0127 -0.4935 -0.4655
  672TIP3   OH223506   3.284   3.492  16.639  0.1174  0.4004  0.2782
  672TIP3    H123507   3.253   3.402  16.630  0.5012  0.0867  1.7442
  672TIP3    H223508   3.226   3.544  16.583 -0.6107 -0.6639  0.0238
  673TIP3   OH223509   3.665   5.850   3.127 -0.5278 -0.1030  0.0021
  673TIP3    H123510   3.686   5.888   3.213 -2.1304  0.5038  0.1524
  673TIP3    H223511   3.628   5.764   3.147 -2.1046  0.5533  0.0376
  674TIP3   OH223512   1.996   1.485   6.349 -0.1232 -0.3845  0.2428
  674TIP3    H123513   2.006   1.480   6.444  0.7483  0.8348  0.2387
  674TIP3    H223514   2.085   1.474   6.315 -0.6687 -2.7627 -0.5604
  675TIP3   OH223515   1.047   1.637  11.379  0.0899  0.1664 -0.4878
  675TIP3    H123516   1.056   1.645  11.284 -0.6531 -0.6396 -0.6473
  675TIP3    H223517   1.125   1.679  11.414  0.6932 -0.0747 -1.4803
  676TIP3   OH223518   5.776   0.956   3.591  0.0328  0.0684  0.0905
  676TIP3    H123519   5.754   1.025   3.654 -0.6893  0.1608 -0.2604
  676TIP3    H223520   5.868   0.973   3.569 -0.0909  0.8284  0.1275
  677TIP3   OH223521   1.522   0.868  16.658 -0.1819 -0.1600 -0.5346
  677TIP3    H123522   1.452   0.920  16.696  1.9220  1.6517  1.0817
  677TIP3    H223523   1.598   0.926  16.656  1.7260 -2.4935 -0.7430
  678TIP3   OH223524   3.240   5.748   1.209 -0.7158  0.1307  0.3709
  678TIP3    H123525   3.275   5.665   1.178  2.3694  0.9610  1.2293
  678TIP3    H223526   3.218   5.732   1.301 -1.8318 -0.1625  0.0645
  679TIP3   OH223527   6.596   1.157   5.496 -0.3400 -0.0406  0.1682
  679TIP3    H123528   6.678   1.196   5.466 -0.9820  0.8737 -0.4450
  679TIP3    H223529   6.541   1.154   5.417 -0.9662 -0.4615  0.6110
  680TIP3   OH223530   2.243   1.212  16.675  0.2500  0.2720 -0.3794
  680TIP3    H123531   2.224   1.256  16.758  0.3967 -1.2974  0.5238
  680TIP3    H223532   2.308   1.268  16.633 -0.6807  1.7072 -0.0029
  681TIP3   OH223533   1.549   0.624   3.970 -0.2673 -0.7241  0.2690
  681TIP3    H123534   1.541   0.551   4.032 -1.3798 -1.3009 -0.5096
  681TIP3    H223535   1.532   0.584   3.884  0.0007  0.2936 -0.2728
  682TIP3   OH223536   1.371   4.963   6.480 -0.3485  0.4024  0.0351
  682TIP3    H123537   1.462   4.950   6.453 -0.6516 -0.4314 -0.6227
  682TIP3    H223538   1.353   5.055   6.459  0.9172  1.1407  1.9647
  683TIP3   OH223539   2.452   1.485  11.072  0.5324  0.1748  0.1785
  683TIP3    H123540   2.381   1.527  11.023  0.1243  0.4545  0.9938
  683TIP3    H223541   2.486   1.418  11.012 -1.0137 -0.5835  0.0898
  684TIP3   OH223542   1.674   1.211   3.184 -0.1831 -0.3047 -0.0874
  684TIP3    H123543   1.648   1.164   3.263 -0.3643 -0.5218 -0.2749
  684TIP3    H223544   1.610   1.282   3.176  1.1482  1.1074  1.2025
  685TIP3   OH223545   2.787   1.221   2.811  0.0359 -0.2941 -0.1052
  685TIP3    H123546   2.876   1.249   2.791  0.1722 -1.1027 -0.6418
  685TIP3    H223547   2.734   1.258   2.740 -0.0639  0.1664  0.2011
  686TIP3   OH223548   0.507   3.111   0.218  0.0228  0.1032  0.0439
  686TIP3    H123549   0.542   3.182   0.271 -0.8317 -0.7135  1.7928
  686TIP3    H223550   0.414   3.108   0.240 -0.1536 -0.8959 -0.7690
  687TIP3   OH223551   4.380   6.477   3.261  0.2461 -0.3316 -0.3682
  687TIP3    H123552   4.467   6.489   3.299 -0.1360  0.0597  0.4009
  687TIP3    H223553   4.371   6.383   3.251  1.1798 -0.3229 -1.4706
  688TIP3   OH223554   6.482   2.067   5.610  0.0083 -0.2472 -0.1609
  688TIP3    H123555   6.566   2.023   5.622 -0.4981 -0.9648  0.8956
  688TIP3    H223556   6.442   2.066   5.697 -0.8902  0.5048 -0.5530
  689TIP3   OH223557   0.263   3.190  10.964  0.1853 -0.5424  0.1316
  689TIP3    H123558   0.281   3.222  11.053  0.4032 -1.2866  0.3556
  689TIP3    H223559   0.169   3.173  10.964  0.1782 -0.5065  0.2054
  690TIP3   OH223560   5.974   5.789   4.354  0.2868  0.6412 -0.3334
  690TIP3    H123561   6.050   5.759   4.404  1.3086  1.7918 -1.1250
  690TIP3    H223562   5.961   5.722   4.287 -0.7314 -0.6141  1.0545
  691TIP3   OH223563   5.789   0.565   2.717  0.3892 -0.0832  0.0622
  691TIP3    H123564   5.719   0.529   2.662 -0.9091 -0.8200  2.0571
  691TIP3    H223565   5.749   0.642   2.758  1.7201  1.1379 -0.8618
  692TIP3   OH223566   2.759   6.723  14.475 -0.3725  0.0653 -0.6420
  692TIP3    H123567   2.853   6.704  14.477 -0.1766  1.0460  1.4420
  692TIP3    H223568   2.718   6.638  14.464  0.7315 -0.2090 -3.8620
  693TIP3   OH223569   0.354   0.665  16.908 -0.3150  0.2635 -0.8902
  693TIP3    H123570   0.408   0.593  16.942  1.6652  2.5176  1.1474
  693TIP3    H223571   0.323   0.634  16.824  2.5968 -2.0087 -1.2939
  694TIP3   OH223572   0.894   3.825   4.294 -0.4999  0.1416  0.1247
  694TIP3    H123573   0.931   3.901   4.339  0.7769  0.4500 -1.3596
  694TIP3    H223574   0.963   3.759   4.299 -0.2376  0.2443 -1.4693
  695TIP3   OH223575   0.543   1.379  13.633  0.3685  0.4734 -0.1326
  695TIP3    H123576   0.502   1.324  13.700  0.4491  0.5521 -0.0171
  695TIP3    H223577   0.485   1.455  13.626 -0.0568  0.1040 -0.7144
  696TIP3   OH223578   5.872   0.086  13.901  0.2230 -0.0496  0.5597
  696TIP3    H123579   5.799   0.102  13.841  1.1915 -0.8953 -0.9178
  696TIP3    H223580   5.911   0.172  13.914 -0.0069  0.1546 -0.0365
  697TIP3   OH223581   4.986   6.537  15.161  0.1332 -0.1195 -0.2830
  697TIP3    H123582   4.940   6.582  15.090  0.0463 -0.0804 -0.2018
  697TIP3    H223583   4.973   6.444  15.143 -0.4437 -0.1038  0.0455
  698TIP3   OH223584   6.488   5.083  15.811 -0.0491 -0.3517  0.1394
  698TIP3    H123585   6.539   5.046  15.883 -1.4010  0.1859  1.4006
  698TIP3    H223586   6.548   5.147  15.771  0.1674  0.6041  1.8745
  699TIP3   OH223587   6.773   2.791  11.913 -0.3464  0.1692  0.3916
  699TIP3    H123588   6.844   2.755  11.861 -0.6744 -0.5093  0.3981
  699TIP3    H223589   6.700   2.800  11.850 -1.0076 -1.4423  0.8792
  700TIP3   OH223590   2.179   3.477  14.726 -0.0650 -0.0607  0.1783
  700TIP3    H123591   2.160   3.436  14.642  1.5349  1.9722 -1.2630
  700TIP3    H223592   2.151   3.568  14.716  0.6320  0.3497  1.6446
  701TIP3   OH223593   3.968   3.174  15.348  0.7613 -0.0270  0.3181
  701TIP3    H123594   3.926   3.189  15.263  3.5382  0.4441 -1.0846
  701TIP3    H223595   3.933   3.090  15.377 -0.7267  0.0847 -0.9673
  702TIP3   OH223596   5.868   6.256   2.674  0.1212 -0.3979  0.1690
  702TIP3    H123597   5.928   6.273   2.746  3.0230 -0.7770 -1.9495
  702TIP3    H223598   5.836   6.167   2.689 -0.3382 -0.0226  1.5775
  703TIP3   OH223599   3.843   2.001   3.862 -0.0649  0.2175  0.3832
  703TIP3    H123600   3.935   1.995   3.835 -0.1830 -0.6058  0.1246
  703TIP3    H223601   3.794   2.004   3.780 -0.3689 -1.2788  0.4807
  704TIP3   OH223602   1.459   1.781  13.873 -0.1332  0.4117 -0.1878
  704TIP3    H123603   1.472   1.835  13.951  1.6943 -1.9808  1.3149
  704TIP3    H223604   1.432   1.696  13.906  1.0145 -0.7901 -2.0959
  705TIP3   OH223605   6.519   3.473   2.106 -0.4153 -0.6426 -0.4145
  705TIP3    H123606   6.482   3.441   2.023  1.3121  1.1745 -2.0000
  705TIP3    H223607   6.610   3.495   2.084 -0.0092  0.2076  1.9052
  706TIP3   OH223608   4.963   6.183   4.280 -0.3579  0.4315  0.1125
  706TIP3    H123609   5.051   6.147   4.295 -1.3494 -1.1301  2.9877
  706TIP3    H223610   4.946   6.237   4.357 -2.1536  0.1917 -0.0712
  707TIP3   OH223611   2.209   5.731  16.007 -0.4738  0.1105 -0.1979
  707TIP3    H123612   2.148   5.734  16.080 -1.7004 -0.8339 -1.1334
  707TIP3    H223613   2.168   5.786  15.939 -1.0312 -1.6352 -1.3376
  708TIP3   OH223614   2.085   3.509   4.253 -0.0808 -0.2826  0.1707
  708TIP3    H123615   2.034   3.481   4.177 -0.1730 -0.0400  0.1425
  708TIP3    H223616   2.024   3.502   4.327  0.5402 -2.3134  0.5352
  709TIP3   OH223617   3.890   2.063  11.778 -0.1671 -0.8230 -0.2664
  709TIP3    H123618   3.809   2.076  11.826  0.2111  2.8672 -0.3989
  709TIP3    H223619   3.863   2.041  11.689 -0.9162 -2.0031  0.2255
  710TIP3   OH223620   1.851   3.609   2.813 -0.3054  0.5020  0.2611
  710TIP3    H123621   1.800   3.530   2.798 -0.7734  0.4233  2.0803
  710TIP3    H223622   1.854   3.619   2.908 -0.4347  2.7799  0.0957
  711TIP3   OH223623   1.257   4.207   5.850 -0.2701  0.2564 -0.3040
  711TIP3    H123624   1.185   4.165   5.804 -1.2398  1.7327 -0.1991
  711TIP3    H223625   1.239   4.301   5.843  1.1059  0.6222  0.5865
  712TIP3   OH223626   6.106   2.433  11.245 -0.3293 -0.2203  0.5115
  712TIP3    H123627   6.091   2.349  11.288 -1.5155  0.7203  2.0450
  712TIP3    H223628   6.032   2.443  11.185 -0.5685  0.0315  0.8452
  713TIP3   OH223629   6.154   3.687  12.454 -0.6424  0.2918 -0.0891
  713TIP3    H123630   6.150   3.706  12.360  0.9154  1.4947  0.0344
  713TIP3    H223631   6.241   3.650  12.467 -0.5693  0.7888  0.9745
  714TIP3   OH223632   4.846   6.656   0.331 -0.8402 -0.0011  0.7901
  714TIP3    H123633   4.830   6.644   0.425 -1.5075 -0.0285  0.6807
  714TIP3    H223634   4.867   6.569   0.299  0.6408  0.2066  1.1284
  715TIP3   OH223635   4.334   3.282  11.795  0.4590 -0.1010 -0.2456
  715TIP3    H123636   4.359   3.369  11.824  0.2584  0.5800 -1.9869
  715TIP3    H223637   4.292   3.296  11.710 -2.0761 -1.6331  0.6624
  716TIP3   OH223638   0.843   2.852  10.780  0.1849 -0.7965  0.5964
  716TIP3    H123639   0.752   2.845  10.809 -0.6992 -1.2743 -2.0128
  716TIP3    H223640   0.853   2.944  10.756  0.8217 -0.4606  2.1018
  717TIP3   OH223641   1.307   0.163  15.082 -0.0279  0.2395  0.0353
  717TIP3    H123642   1.253   0.214  15.021 -1.2423  0.0423  0.9119
  717TIP3    H223643   1.277   0.190  15.168  0.5649 -0.6546  0.5314
  718TIP3   OH223644   0.356   0.399   2.070 -0.2424 -0.2642  0.0956
  718TIP3    H123645   0.327   0.461   2.004 -4.0827 -0.6827  1.1704
  718TIP3    H223646   0.355   0.314   2.026  0.1602 -0.1955 -0.0548
  719TIP3   OH223647   3.430   4.763   3.279 -0.9421 -0.5017  0.6957
  719TIP3    H123648   3.354   4.809   3.316 -2.3854 -3.3229  1.4933
  719TIP3    H223649   3.489   4.751   3.352 -0.6666 -0.1558  0.5350
  720TIP3   OH223650   5.453   6.580  13.567  0.0797 -0.8666  0.3363
  720TIP3    H123651   5.361   6.606  13.559 -0.3828 -1.8043  2.1676
  720TIP3    H223652   5.487   6.584  13.477 -1.6233 -0.1144 -0.3148
  721TIP3   OH223653   4.985   4.689   6.192 -0.3369 -0.3395  0.0100
  721TIP3    H123654   5.063   4.693   6.247 -0.8439 -0.9021  0.7851
  721TIP3    H223655   4.912   4.695   6.253 -0.9119 -0.0791 -0.6816
  722TIP3   OH223656   4.774   1.384   4.470  0.2127 -0.3487 -0.3903
  722TIP3    H123657   4.814   1.444   4.532  1.6157 -1.3679 -0.2602
  722TIP3    H223658   4.735   1.441   4.403  0.3074  0.7155  0.4371
  723TIP3   OH223659   2.675   5.023   3.036  0.1789  0.3016  0.5650
  723TIP3    H123660   2.766   5.050   3.046  0.1139  0.3677  1.0011
  723TIP3    H223661   2.679   4.930   3.014  0.3375  0.2195  0.9474
  724TIP3   OH223662   1.637   1.345   5.845 -0.0193 -0.1433  0.3213
  724TIP3    H123663   1.721   1.384   5.821 -0.4795  1.6979  1.4940
  724TIP3    H223664   1.576   1.374   5.778 -0.3727  1.2815  1.2216
  725TIP3   OH223665   1.983   2.977   3.271 -0.3024 -0.3960 -0.8634
  725TIP3    H123666   1.994   3.048   3.207  0.7044  0.1965 -0.0605
  725TIP3    H223667   1.941   3.019   3.346 -0.5613 -0.8629 -0.7464
  726TIP3   OH223668   4.928   3.125   4.381 -0.1707 -0.1315  0.1220
  726TIP3    H123669   4.941   3.083   4.296  0.0837 -1.6404  0.8770
  726TIP3    H223670   5.009   3.173   4.397  0.0873 -0.4683 -0.1495
  727TIP3   OH223671   3.061   0.484   3.741 -0.0684 -0.6488 -0.3090
  727TIP3    H123672   3.146   0.460   3.777  1.1009 -0.5744 -2.8113
  727TIP3    H223673   3.024   0.402   3.709 -0.6682 -0.5838  0.1903
  728TIP3   OH223674   5.050   4.872  13.776  0.2536  0.6499  0.6034
  728TIP3    H123675   5.135   4.916  13.784 -0.9063  2.8347  2.1536
  728TIP3    H223676   5.024   4.854  13.866 -0.5184 -0.8780  0.0995
  729TIP3   OH223677   5.609   6.676   4.499 -0.3910  0.3135  0.6468
  729TIP3    H123678   5.538   6.731   4.466 -0.5414 -1.4980 -2.3474
  729TIP3    H223679   5.571   6.589   4.508  1.7183 -1.1589 -2.8756
  730TIP3   OH223680   2.051   1.405  10.887 -0.1832  0.4335  0.5924
  730TIP3    H123681   2.016   1.411  10.798 -0.3936 -3.0224  0.3166
  730TIP3    H223682   2.143   1.430  10.879  0.0658 -0.8191 -0.8530
  731TIP3   OH223683   2.092   3.179  11.759  0.1051  0.5734 -0.1074
  731TIP3    H123684   2.116   3.249  11.820  0.2072  0.0096  0.5134
  731TIP3    H223685   2.102   3.099  11.810 -0.6413  0.1465 -0.6076
  732TIP3   OH223686   1.283   2.162  16.689 -0.5652  0.2503 -0.1389
  732TIP3    H123687   1.344   2.225  16.651  0.0374  1.7419  2.9296
  732TIP3    H223688   1.203   2.212  16.705 -0.5862 -0.1054  0.9969
  733TIP3   OH223689   4.275   2.550  16.994  0.0645 -0.1295 -0.4595
  733TIP3    H123690   4.277   2.641  17.025 -0.0181 -0.6119  1.0314
  733TIP3    H223691   4.190   2.517  17.024 -0.4024 -0.3919 -1.9807
  734TIP3   OH223692   0.038   3.150   0.348  0.0084  0.5379 -0.0395
  734TIP3    H123693  -0.000   3.141   0.435  0.4919 -0.3000  0.0956
  734TIP3    H223694  -0.036   3.164   0.290 -0.2478  2.1575  0.6290
  735TIP3   OH223695   0.337   4.772  13.438  0.3034  0.2049  0.5427
  735TIP3    H123696   0.419   4.822  13.433 -0.1941  0.9301 -1.1075
  735TIP3    H223697   0.360   4.692  13.486  2.1244  0.1492 -0.3355
  736TIP3   OH223698   6.719   3.021   3.318  0.0963 -0.1919 -0.6079
  736TIP3    H123699   6.680   3.002   3.403  0.5237  0.7839 -0.1782
  736TIP3    H223700   6.800   3.067   3.338  0.6926 -0.8064 -1.5286
  737TIP3   OH223701   2.303   6.038  12.375  0.0269 -0.5819  0.1502
  737TIP3    H123702   2.358   6.091  12.432 -0.8272 -0.6675  1.0754
  737TIP3    H223703   2.251   6.102  12.326 -0.7642 -0.5314  1.0254
  738TIP3   OH223704   0.298   4.612  16.115  0.0864 -0.0346 -0.0865
  738TIP3    H123705   0.220   4.667  16.109  0.2473  0.5063  2.1596
  738TIP3    H223706   0.364   4.659  16.062 -0.2407  1.1122  0.5016
  739TIP3   OH223707   5.062   2.756   0.037 -0.0147  0.4904  0.6409
  739TIP3    H123708   4.983   2.704   0.052 -0.9653  1.3841 -1.0429
  739TIP3    H223709   5.081   2.796   0.122 -0.1161 -1.3707  1.5944
  740TIP3   OH223710   2.449   6.794  10.737  0.3972  0.0168 -0.8812
  740TIP3    H123711   2.431   6.809  10.644 -0.8767  1.2167 -0.4814
  740TIP3    H223712   2.427   6.877  10.779 -1.5233 -1.2370  0.7943
  741TIP3   OH223713   1.083   2.137   3.524 -0.0187 -0.2323  0.1277
  741TIP3    H123714   1.099   2.128   3.618 -0.8395 -3.4379  0.0736
  741TIP3    H223715   0.990   2.116   3.513  0.5668 -2.3572 -1.5613
  742TIP3   OH223716   5.500   2.464   4.517  0.7645  0.1646  0.4841
  742TIP3    H123717   5.479   2.542   4.567 -1.4110  1.0389 -1.5709
  742TIP3    H223718   5.453   2.393   4.562 -2.0592  1.1141 -0.7362
  743TIP3   OH223719   1.909   1.115  12.449  0.2766  0.5772 -0.2980
  743TIP3    H123720   1.970   1.107  12.375  1.3836  1.0381  0.5444
  743TIP3    H223721   1.829   1.072  12.418  0.7364  0.6965 -1.7389
  744TIP3   OH223722   1.472   2.722   4.317 -0.0770  0.2980 -0.4579
  744TIP3    H123723   1.429   2.637   4.306 -1.3589  0.8485  0.0555
  744TIP3    H223724   1.410   2.785   4.280  0.1401  1.1503  0.5797
  745TIP3   OH223725   6.398   4.204   5.949  0.2241  0.3104  0.0004
  745TIP3    H123726   6.410   4.110   5.958 -1.3102  0.1621  0.7496
  745TIP3    H223727   6.331   4.213   5.882  0.0981  0.8563  0.1941
  746TIP3   OH223728   0.212   2.365  16.967 -0.4467  0.3614 -0.0900
  746TIP3    H123729   0.228   2.453  16.932  0.3521 -0.6375 -2.3762
  746TIP3    H223730   0.299   2.328  16.982 -0.7724 -0.1253  0.6685
  747TIP3   OH223731   4.228   1.419  16.239 -0.3358 -0.4733 -0.1058
  747TIP3    H123732   4.160   1.445  16.176 -0.6190 -0.9323  0.0056
  747TIP3    H223733   4.192   1.342  16.282 -0.0386 -0.3052  0.4528
  748TIP3   OH223734   4.477   2.531   3.537 -0.2075 -0.2920  0.6585
  748TIP3    H123735   4.527   2.523   3.456  2.2316  1.4062  1.8861
  748TIP3    H223736   4.440   2.444   3.550  0.6611 -1.0522 -1.4227
  749TIP3   OH223737   0.404   2.001  16.871 -0.7319  0.0580  0.0921
  749TIP3    H123738   0.317   1.994  16.830 -0.5512  0.0224 -0.2930
  749TIP3    H223739   0.419   2.096  16.879 -0.5430  0.0741 -0.4185
  750TIP3   OH223740   1.339   0.720  15.068 -0.4865 -0.3829  0.6774
  750TIP3    H123741   1.375   0.803  15.098  0.6328 -0.4357 -0.4275
  750TIP3    H223742   1.396   0.694  14.996 -1.9254 -1.1863 -0.2209
  751TIP3   OH223743   4.911   0.531  11.093 -0.4322 -0.3606 -0.3785
  751TIP3    H123744   4.991   0.545  11.043 -0.7737  0.1914 -0.7831
  751TIP3    H223745   4.914   0.438  11.117  0.7992 -0.1262  0.4576
  752TIP3   OH223746   2.783   0.230  14.712  0.0405  0.2162  0.8668
  752TIP3    H123747   2.804   0.242  14.805 -0.2860  0.1020  0.9568
  752TIP3    H223748   2.704   0.176  14.712  0.0490  0.2022  0.5204
  753TIP3   OH223749   2.383   2.367   6.266  0.0982 -0.4307 -0.4893
  753TIP3    H123750   2.372   2.282   6.307 -0.7899  0.4679  1.2383
  753TIP3    H223751   2.473   2.367   6.234 -0.1556 -2.3124 -1.3037
  754TIP3   OH223752   3.528   1.147   1.203  0.4743  0.4388  0.0446
  754TIP3    H123753   3.568   1.234   1.208  0.7216  0.3315 -0.0621
  754TIP3    H223754   3.434   1.164   1.203  0.5201  0.7417 -0.5829
  755TIP3   OH223755   1.469   3.976   5.061 -0.1939 -0.0695  0.1041
  755TIP3    H123756   1.447   3.884   5.049 -0.6844  0.0089  0.4141
  755TIP3    H223757   1.516   3.979   5.145  0.9145 -0.2149 -0.4805
  756TIP3   OH223758   3.627   4.885   4.060 -0.5747 -0.0179 -0.2338
  756TIP3    H123759   3.690   4.956   4.068 -1.2974  0.5554  0.5068
  756TIP3    H223760   3.549   4.917   4.105 -1.5184 -0.5817 -1.4189
  757TIP3   OH223761   6.849   3.372   4.344  0.0752 -0.4323 -0.5289
  757TIP3    H123762   6.794   3.300   4.312  0.0769 -1.3267  1.3309
  757TIP3    H223763   6.907   3.331   4.409 -0.4658  1.3438  1.1795
  758TIP3   OH223764   5.742   1.306   6.057 -0.0241  0.4924  0.0058
  758TIP3    H123765   5.693   1.270   6.131  0.6688  0.7171  0.5803
  758TIP3    H223766   5.686   1.290   5.981 -1.0068  0.7671  0.6551
  759TIP3   OH223767   4.252   2.673   6.053 -0.1169  0.3311  0.7360
  759TIP3    H123768   4.227   2.739   6.117  0.7851  0.3235  1.1073
  759TIP3    H223769   4.300   2.607   6.103  1.6187  0.8892 -0.0839
  760TIP3   OH223770   4.245   3.958  15.983  0.1544  0.1245  0.4070
  760TIP3    H123771   4.241   3.981  15.890  0.8202 -0.1898  0.2970
  760TIP3    H223772   4.163   3.991  16.019  0.4216  1.3583 -0.0465
  761TIP3   OH223773   0.561   0.685   3.389 -0.1545  0.2986  0.2037
  761TIP3    H123774   0.593   0.773   3.410  2.0924 -0.9352  2.5771
  761TIP3    H223775   0.466   0.693   3.390 -0.0083  2.5102  1.3661
  762TIP3   OH223776   5.178   0.045   3.277  0.5641  0.0656  0.0484
  762TIP3    H123777   5.216   0.037   3.364  0.5280  2.6144  0.3644
  762TIP3    H223778   5.084   0.053   3.292  0.5591  0.5244 -0.2217
  763TIP3   OH223779   0.463   2.774  16.206  0.3969  0.8388  0.1090
  763TIP3    H123780   0.386   2.733  16.245  0.6003 -0.7964 -1.1234
  763TIP3    H223781   0.511   2.810  16.281 -0.6539  0.3214  1.0687
  764TIP3   OH223782   1.381   5.641  14.769  1.2025  0.6120 -0.4716
  764TIP3    H123783   1.375   5.564  14.712 -1.3389 -0.9334  1.6151
  764TIP3    H223784   1.385   5.605  14.858 -0.8717  2.8236  0.6486
  765TIP3   OH223785   6.112   6.749  11.211  0.0692  0.4445  0.7745
  765TIP3    H123786   6.143   6.818  11.151  0.7416 -0.1912  0.3636
  765TIP3    H223787   6.086   6.678  11.153 -2.6958  1.1193  1.0865
  766TIP3   OH223788   5.203   6.277   2.422  0.5589 -0.0799 -0.3400
  766TIP3    H123789   5.128   6.293   2.479  0.5184  0.4587 -0.5442
  766TIP3    H223790   5.213   6.181   2.424 -1.6172 -0.4321 -2.1811
  767TIP3   OH223791   4.928   0.256  13.952 -0.6518  0.2410 -0.1353
  767TIP3    H123792   4.842   0.233  13.917  0.3171 -1.3571 -1.5835
  767TIP3    H223793   4.941   0.196  14.025 -0.2343 -0.4133 -0.7396
  768TIP3   OH223794   4.220   5.459  13.755 -0.4450  0.0115 -0.1977
  768TIP3    H123795   4.188   5.512  13.681 -1.8649 -0.9572 -0.3166
  768TIP3    H223796   4.160   5.384  13.758  2.2077 -2.3170 -0.8646
  769TIP3   OH223797   2.543   2.230  11.806  0.4218 -0.2212  0.4014
  769TIP3    H123798   2.585   2.222  11.721  0.2032 -0.4587  0.3158
  769TIP3    H223799   2.550   2.143  11.845  0.3287 -0.1689  0.5371
  770TIP3   OH223800   2.374   6.278  14.351 -0.2083  0.0064  0.0325
  770TIP3    H123801   2.411   6.344  14.410  0.4976  0.3940 -0.8317
  770TIP3    H223802   2.412   6.196  14.381 -0.0736  0.1591  0.2907
  771TIP3   OH223803   1.496   5.065  14.195 -0.5424 -0.4398  0.5152
  771TIP3    H123804   1.432   5.115  14.246 -0.0411 -0.1484  0.8665
  771TIP3    H223805   1.443   5.018  14.131 -1.1615 -0.6015  1.1228
  772TIP3   OH223806   4.939   1.491  11.312 -0.1519 -0.0481  0.2864
  772TIP3    H123807   5.028   1.467  11.289 -0.8302 -1.6342 -0.8195
  772TIP3    H223808   4.947   1.579  11.350  1.7619  0.1724 -0.5317
  773TIP3   OH223809   0.302   6.085   5.512 -0.0566 -0.5245  0.1373
  773TIP3    H123810   0.339   6.124   5.591  1.1223 -3.6653  1.3090
  773TIP3    H223811   0.232   6.028   5.544  0.5051 -1.9403 -1.0253
  774TIP3   OH223812   3.792   4.981   4.555  0.1615  0.1412 -0.1101
  774TIP3    H123813   3.749   4.962   4.639 -0.4745 -0.5406 -0.5853
  774TIP3    H223814   3.745   5.057   4.521  0.6101  0.6018  0.2776
  775TIP3   OH223815   5.846   3.460  13.731  0.3410  0.7543 -0.2622
  775TIP3    H123816   5.811   3.372  13.744  2.4191  0.2433  3.0802
  775TIP3    H223817   5.843   3.473  13.636  0.0889 -2.9625 -0.9194
  776TIP3   OH223818   4.952   6.318  14.397 -0.0582  0.5900  0.4054
  776TIP3    H123819   5.023   6.357  14.448  0.5001  1.6691 -1.1181
  776TIP3    H223820   4.935   6.381  14.327  0.4136 -1.5419 -1.7919
  777TIP3   OH223821   6.761   5.072   3.523  0.7035 -0.3473 -0.0526
  777TIP3    H123822   6.705   5.026   3.587  0.3908 -0.9600 -0.7446
  777TIP3    H223823   6.823   5.005   3.494  1.7535  0.3021  0.6300
  778TIP3   OH223824   0.868   1.005   5.512  0.3133  0.5168  0.2634
  778TIP3    H123825   0.817   1.067   5.461  0.4123 -0.1890 -0.7265
  778TIP3    H223826   0.817   0.924   5.508  0.3713  0.4190  1.2225
  779TIP3   OH223827   3.733   4.972   3.133 -0.5685 -0.1584  0.1853
  779TIP3    H123828   3.671   4.932   3.194  2.1525 -1.7336  2.1849
  779TIP3    H223829   3.779   5.037   3.186  0.8977 -0.5226 -0.5914
  780TIP3   OH223830   1.781   5.697   6.169 -0.1856 -0.5860  0.1865
  780TIP3    H123831   1.816   5.650   6.245 -0.7537 -0.9385  0.2375
  780TIP3    H223832   1.839   5.772   6.159  0.2070 -0.8165  0.6516
  781TIP3   OH223833   5.014   3.879   6.084  0.6521 -0.4726  0.4017
  781TIP3    H123834   5.035   3.807   6.025  2.2343  0.4246 -0.1889
  781TIP3    H223835   4.937   3.848   6.133 -1.6376 -0.7216 -3.0123
  782TIP3   OH223836   3.325   6.543  12.629  0.1364 -0.5496  0.4161
  782TIP3    H123837   3.406   6.565  12.674 -0.1680  2.4777 -0.3151
  782TIP3    H223838   3.333   6.586  12.543 -2.2490 -0.0813  0.3726
  783TIP3   OH223839   2.876   6.406  12.714 -0.0818 -0.1119 -0.3733
  783TIP3    H123840   2.886   6.457  12.794  1.0983  0.0361 -0.5927
  783TIP3    H223841   2.782   6.386  12.710 -0.2983  0.6068  0.5871
  784TIP3   OH223842   0.548   2.611  13.527  0.5213  0.2532 -0.5522
  784TIP3    H123843   0.514   2.700  13.533  1.1982  0.4420  0.8794
  784TIP3    H223844   0.638   2.622  13.495  0.7781  0.1401  0.1092
  785TIP3   OH223845   0.398   2.279   3.014  0.3003 -0.2639 -0.1916
  785TIP3    H123846   0.385   2.201   3.068 -0.2485  0.6155  1.0173
  785TIP3    H223847   0.342   2.345   3.055  1.5932  1.0755 -0.4921
  786TIP3   OH223848   3.665   5.603   4.313 -0.3666 -0.0359  0.1746
  786TIP3    H123849   3.748   5.637   4.282 -0.3078 -1.4711 -1.3579
  786TIP3    H223850   3.602   5.625   4.245 -0.7916 -0.8678  0.2811
  787TIP3   OH223851   3.936   0.221  15.225  0.1836 -0.6734 -0.1723
  787TIP3    H123852   3.859   0.183  15.181 -0.1039  0.2566 -0.4846
  787TIP3    H223853   4.007   0.160  15.206 -0.0994 -0.6676 -1.3204
  788TIP3   OH223854   5.881   6.770  13.680  0.2121  0.0418 -0.0581
  788TIP3    H123855   5.885   6.852  13.730 -0.0913 -0.1679  0.3224
  788TIP3    H223856   5.818   6.787  13.611 -0.8527 -0.2701  0.8037
  789TIP3   OH223857   6.351   4.685   3.760  0.2730  0.2354 -0.2260
  789TIP3    H123858   6.402   4.698   3.840  3.0393 -1.4226 -1.5864
  789TIP3    H223859   6.399   4.617   3.712 -2.3260 -0.1724 -2.4514
  790TIP3   OH223860   1.576   2.087  16.816  0.1248  0.2141  0.5808
  790TIP3    H123861   1.502   2.029  16.833 -0.2595  0.7187  0.6478
  790TIP3    H223862   1.595   2.127  16.901 -1.0811  1.8978  0.1279
  791TIP3   OH223863   3.179   2.956   0.868 -0.0210  0.0984  0.5412
  791TIP3    H123864   3.172   3.047   0.840  0.1892  0.3321  1.2362
  791TIP3    H223865   3.265   2.928   0.836  0.1236  0.2946  0.7567
  792TIP3   OH223866   6.800   3.562   1.322 -0.1243  0.1743  0.7291
  792TIP3    H123867   6.719   3.609   1.343 -0.0733 -0.0695  1.5272
  792TIP3    H223868   6.772   3.491   1.265 -0.1630  1.3030 -0.7061
  793TIP3   OH223869   3.380   4.996  16.196  0.0926  0.1850 -0.1726
  793TIP3    H123870   3.472   4.982  16.216  0.0082  1.8157  1.6874
  793TIP3    H223871   3.336   4.997  16.282 -1.9497 -2.1407 -1.0800
  794TIP3   OH223872   0.557   0.681  16.672  0.3619 -0.1369 -0.3943
  794TIP3    H123873   0.526   0.744  16.607  1.1884  0.2824 -0.3939
  794TIP3    H223874   0.486   0.619  16.680  0.4631 -0.5375 -2.1382
  795TIP3   OH223875   6.751   5.856   4.947 -0.4012  0.1584 -0.1871
  795TIP3    H123876   6.804   5.894   4.877  2.5206 -0.1977  1.6312
  795TIP3    H223877   6.713   5.777   4.909  2.2332 -0.7872 -1.0727
  796TIP3   OH223878   2.525   3.096  12.536  0.1338  0.1235  0.1629
  796TIP3    H123879   2.615   3.120  12.559  0.1114  0.7164 -0.3442
  796TIP3    H223880   2.505   3.149  12.459 -0.0705 -1.2508 -0.7670
  797TIP3   OH223881   4.360   5.072  13.491 -0.0971  0.3606 -0.5161
  797TIP3    H123882   4.404   4.989  13.507 -1.5442 -0.3775 -0.2420
  797TIP3    H223883   4.312   5.059  13.409 -0.7948  0.7153 -0.1762
  798TIP3   OH223884   0.831   0.977  16.602 -0.2557 -0.0037  0.0079
  798TIP3    H123885   0.858   1.056  16.649  0.2771  0.3378 -0.8495
  798TIP3    H223886   0.863   0.905  16.656 -1.0637  0.3385  0.9912
  799TIP3   OH223887   4.843   0.030  15.340 -0.4411 -0.0117  0.0435
  799TIP3    H123888   4.759  -0.009  15.319 -2.1501  2.7569  1.2056
  799TIP3    H223889   4.854   0.100  15.276 -0.5552  1.6134  1.7436
  800TIP3   OH223890   1.365   2.038  12.620 -0.2060  0.2021  0.0105
  800TIP3    H123891   1.283   2.081  12.595  0.2540  0.1050 -1.7943
  800TIP3    H223892   1.430   2.108  12.618 -0.2238  0.3023  1.5454
  801TIP3   OH223893   0.561   3.193  16.817 -0.4123 -0.1223 -0.4496
  801TIP3    H123894   0.481   3.244  16.825 -0.2492 -0.0816  1.2551
  801TIP3    H223895   0.630   3.251  16.851  0.5554  0.2631 -2.8862
  802TIP3   OH223896   4.917   5.256  10.059 -0.3255 -0.1459 -0.0480
  802TIP3    H123897   4.967   5.175  10.071 -0.5909 -0.4316 -0.8145
  802TIP3    H223898   4.976   5.326  10.088  0.2468 -0.5376 -0.2699
  803TIP3   OH223899   2.819   6.099   2.777  0.1130 -0.5996  0.2418
  803TIP3    H123900   2.793   6.163   2.710 -1.3269 -0.3266  1.0330
  803TIP3    H223901   2.738   6.079   2.824  0.9522 -1.4132  1.3843
  804TIP3   OH223902   2.080   5.568   4.567  0.0372 -0.3006  0.7634
  804TIP3    H123903   1.999   5.550   4.614 -0.5036  0.9914  0.3907
  804TIP3    H223904   2.105   5.656   4.595 -0.1468  0.3916 -1.0972
  805TIP3   OH223905   5.856   5.023   0.208  0.2039  0.9815 -0.4926
  805TIP3    H123906   5.851   5.081   0.284 -0.3560 -0.7691  0.8708
  805TIP3    H223907   5.776   4.971   0.213  1.8089 -1.5871 -0.2327
  806TIP3   OH223908   6.408   1.627   4.525 -0.3117  0.4779  0.1742
  806TIP3    H123909   6.419   1.532   4.538  0.5596  0.5503  0.0192
  806TIP3    H223910   6.467   1.667   4.590 -1.0477  0.9235  0.5755
  807TIP3   OH223911   5.958   6.539   3.459 -0.2117  0.1902  0.9263
  807TIP3    H123912   5.893   6.608   3.448 -0.0956  0.2771  0.7929
  807TIP3    H223913   5.906   6.459   3.471 -0.3408  0.1483  0.1121
  808TIP3   OH223914   5.388   4.714  13.723  0.4470  0.1175 -0.3654
  808TIP3    H123915   5.378   4.790  13.666 -0.1402  0.6796  0.4708
  808TIP3    H223916   5.468   4.671  13.691  0.4351  0.7275 -1.2471
  809TIP3   OH223917   4.216   1.320   3.099 -0.4255 -0.8568  0.1841
  809TIP3    H123918   4.247   1.290   3.014  2.5575 -0.0451  0.8835
  809TIP3    H223919   4.208   1.415   3.090 -1.4578 -0.8981  0.4616
  810TIP3   OH223920   2.894   0.844   3.087 -0.3543 -0.1865 -0.0371
  810TIP3    H123921   2.955   0.917   3.079 -1.6675  1.0409  0.7591
  810TIP3    H223922   2.948   0.771   3.119  0.6899  0.8738  0.6998
  811TIP3   OH223923   2.836   3.091   0.994 -0.3642 -0.4948  0.4272
  811TIP3    H123924   2.846   3.182   0.968 -0.7390 -0.0771  1.6482
  811TIP3    H223925   2.909   3.076   1.056 -1.7801 -0.1998  2.2598
  812TIP3   OH223926   3.426   0.073   1.828  0.4740 -0.3525  0.3376
  812TIP3    H123927   3.485   0.043   1.759 -0.6522  0.7245 -1.1384
  812TIP3    H223928   3.419   0.167   1.815 -0.5142 -0.2683  1.3393
  813TIP3   OH223929   0.218   3.290  13.134 -0.0038  0.0853  0.3222
  813TIP3    H123930   0.220   3.200  13.102 -0.5756  0.2588 -0.2228
  813TIP3    H223931   0.305   3.304  13.172  0.7095 -0.1190 -1.1784
  814TIP3   OH223932   0.709   4.841  14.250 -0.5276  0.7095  0.0287
  814TIP3    H123933   0.748   4.756  14.228 -2.3106 -0.7373  2.0247
  814TIP3    H223934   0.762   4.874  14.322 -1.8280 -0.4327  1.5773
  815TIP3   OH223935   3.614   2.981  14.997  0.1668  0.0417  0.0355
  815TIP3    H123936   3.554   3.041  14.952  0.3874  0.1477 -0.1199
  815TIP3    H223937   3.695   3.031  15.006  0.2713 -0.1457  0.1307
  816TIP3   OH223938   6.562   4.210  11.065 -0.0699  0.0512 -0.1795
  816TIP3    H123939   6.582   4.229  10.973  1.4392 -0.5787 -0.0102
  816TIP3    H223940   6.623   4.265  11.115 -0.4994 -0.0218  0.4427
  817TIP3   OH223941   2.070   0.791   1.707 -0.7202  0.0477 -0.6650
  817TIP3    H123942   2.085   0.884   1.691  1.4258 -0.3206 -1.1927
  817TIP3    H223943   1.983   0.774   1.671 -0.5944  1.5749 -1.7964
  818TIP3   OH223944   5.230   0.298  14.414  0.2126 -0.4029 -0.2441
  818TIP3    H123945   5.169   0.273  14.345  0.2221  3.9371 -2.1338
  818TIP3    H223946   5.315   0.303  14.371  0.2295  2.3461 -0.0400
  819TIP3   OH223947   4.015   5.401   3.147  0.2647  0.1605 -0.0125
  819TIP3    H123948   3.991   5.313   3.118  1.0048 -0.2604  0.6070
  819TIP3    H223949   3.986   5.405   3.239  1.5265  0.0291  0.4117
  820TIP3   OH223950   6.180   3.771   0.474 -0.5053  0.6708  0.1177
  820TIP3    H123951   6.086   3.774   0.495 -0.9031 -0.5419 -1.2937
  820TIP3    H223952   6.187   3.818   0.390 -0.0156 -0.0425 -0.2515
  821TIP3   OH223953   0.649   6.332  12.229  0.3865  0.3721 -0.3727
  821TIP3    H123954   0.642   6.246  12.272  0.0745  0.3402 -0.4876
  821TIP3    H223955   0.578   6.333  12.166  0.2894  0.7844 -0.2601
  822TIP3   OH223956   6.516   3.946   4.704  0.5564  0.0567 -0.1223
  822TIP3    H123957   6.570   3.869   4.683 -0.2715 -0.7399  0.5914
  822TIP3    H223958   6.427   3.919   4.684  0.2142  0.6998  0.5063
  823TIP3   OH223959   2.820   6.678   1.374 -0.0917 -0.0292  0.1703
  823TIP3    H123960   2.820   6.758   1.322  1.7710  0.6692  1.1647
  823TIP3    H223961   2.832   6.708   1.464  0.1138 -1.4010  0.6231
  824TIP3   OH223962   1.383   4.045   2.334  0.1775 -0.2541  0.8054
  824TIP3    H123963   1.458   4.103   2.320 -1.0494  1.1773 -0.0727
  824TIP3    H223964   1.326   4.092   2.394 -1.8668  0.5346 -1.5868
  825TIP3   OH223965   2.502   3.935  11.107  0.2751  0.1556 -0.1170
  825TIP3    H123966   2.583   3.953  11.060 -0.9586 -1.0811 -2.9898
  825TIP3    H223967   2.438   3.994  11.067 -0.8980 -1.1800 -0.2948
  826TIP3   OH223968   5.352   4.387   1.496  0.4139  0.5230  0.0262
  826TIP3    H123969   5.421   4.334   1.535 -1.7234 -2.5979 -0.1347
  826TIP3    H223970   5.289   4.402   1.567 -0.8911 -0.5732 -0.8572
  827TIP3   OH223971   5.249   0.017  14.898  0.1750  0.6925 -0.0228
  827TIP3    H123972   5.297  -0.053  14.943 -0.0250  0.2302 -0.5227
  827TIP3    H223973   5.226   0.079  14.968  0.8570  0.5548  0.3326
  828TIP3   OH223974   2.670   0.380  15.732 -0.0644 -1.3796 -0.3222
  828TIP3    H123975   2.661   0.425  15.816  1.1286 -1.2882 -0.2211
  828TIP3    H223976   2.629   0.438  15.669  1.3532 -0.1635 -0.1768
  829TIP3   OH223977   1.167   5.644   5.647  0.1409 -0.0763  0.7636
  829TIP3    H123978   1.101   5.613   5.586  0.2233  0.1609  0.5492
  829TIP3    H223979   1.243   5.588   5.632  0.0460 -0.2394  0.8916
  830TIP3   OH223980   0.183   0.634  11.319 -0.2490  0.3167 -0.0222
  830TIP3    H123981   0.240   0.576  11.269 -1.7359  0.4660 -1.9903
  830TIP3    H223982   0.224   0.720  11.311  0.4530  0.0510  0.5464
  831TIP3   OH223983   4.044   5.499  12.381 -0.2383 -0.0099  0.2807
  831TIP3    H123984   3.997   5.487  12.464 -0.4654 -1.3683 -0.0165
  831TIP3    H223985   4.111   5.430  12.381  0.4049  0.5977 -0.2367
  832TIP3   OH223986   5.980   1.421  16.700  0.2278 -0.0930 -0.0257
  832TIP3    H123987   6.000   1.328  16.711 -0.0809 -0.1050  0.4614
  832TIP3    H223988   5.986   1.435  16.605  2.8000 -0.0233  0.0741
  833TIP3   OH223989   4.015   5.744  16.546  0.3255 -0.0151  0.2962
  833TIP3    H123990   4.098   5.716  16.584  0.2635  0.1550  0.5688
  833TIP3    H223991   4.010   5.838  16.568 -0.5756 -0.3207  1.4981
  834TIP3   OH223992   6.737   4.348   3.711 -0.0911 -0.5455 -0.3798
  834TIP3    H123993   6.768   4.338   3.801 -2.0601  0.9757  0.5231
  834TIP3    H223994   6.686   4.269   3.694 -1.9789  0.3532  0.8589
  835TIP3   OH223995   5.681   2.296   3.725 -0.1450 -0.3404  0.2908
  835TIP3    H123996   5.740   2.339   3.664  1.3312 -1.7847  0.6385
  835TIP3    H223997   5.614   2.256   3.669 -1.8333  2.6118 -0.0243
  836TIP3   OH223998   3.203   5.182   0.258 -0.0359 -0.8203  0.1420
  836TIP3    H123999   3.266   5.193   0.329  0.7632  0.7620 -0.7637
  836TIP3    H224000   3.126   5.231   0.285  0.2634 -0.2294 -0.0658
  837TIP3   OH224001   5.142   2.469   4.281  0.0020  0.1488 -0.0989
  837TIP3    H124002   5.177   2.390   4.322 -1.3578 -1.4807 -1.8617
  837TIP3    H224003   5.210   2.496   4.219 -0.8321 -1.7249 -1.9444
  838TIP3   OH224004   2.098   4.460  12.131 -0.3471  0.2797 -0.1516
  838TIP3    H124005   2.131   4.420  12.050  1.7485 -0.0945  0.8161
  838TIP3    H224006   2.156   4.535  12.146 -0.1470 -0.1483  1.4140
  839TIP3   OH224007   6.715   0.568  14.804  0.0253  0.3610  0.4122
  839TIP3    H124008   6.768   0.640  14.839 -2.8040  1.6945  2.2848
  839TIP3    H224009   6.765   0.489  14.825  3.0817  1.6434 -1.4316
  840TIP3   OH224010   4.130   0.391  13.693 -0.1046 -0.0757 -0.1878
  840TIP3    H124011   4.183   0.467  13.668 -2.3003  1.0038 -1.7913
  840TIP3    H224012   4.094   0.414  13.779 -0.0394  0.3069 -0.2608
  841TIP3   OH224013   6.842   6.831   4.256 -0.0132  0.1266  0.0950
  841TIP3    H124014   6.912   6.896   4.244 -0.7839  0.6338 -2.2297
  841TIP3    H224015   6.863   6.762   4.193 -1.8165  0.5356 -1.0285
  842TIP3   OH224016   3.467   3.568  17.008  0.2560 -0.9745 -0.0985
  842TIP3    H124017   3.449   3.584  16.915  0.0693  0.3194  0.1492
  842TIP3    H224018   3.560   3.589  17.019  0.4699 -1.8529 -0.1312
  843TIP3   OH224019   6.423   6.802   3.160 -0.5471  0.1664  0.0861
  843TIP3    H124020   6.386   6.715   3.146 -0.5512 -0.1784  2.0510
  843TIP3    H224021   6.372   6.839   3.231  0.6920  1.0268  0.5674
  844TIP3   OH224022   3.147   2.230   1.094 -0.3808  0.2855  0.0365
  844TIP3    H124023   3.082   2.279   1.044  0.0468 -0.2120 -1.0217
  844TIP3    H224024   3.186   2.169   1.031 -0.5539 -1.0883  1.2153
  845TIP3   OH224025   3.920   4.256   1.306  0.5084  0.0306  0.0430
  845TIP3    H124026   3.850   4.305   1.348 -0.9772  0.6601 -2.8611
  845TIP3    H224027   3.920   4.171   1.350 -0.8515  0.6550  1.3261
  846TIP3   OH224028   1.229   5.151   0.855 -0.0613 -0.6371 -0.1483
  846TIP3    H124029   1.281   5.229   0.873  3.0290 -2.7239  0.7929
  846TIP3    H224030   1.266   5.116   0.774 -0.9834 -1.4859 -0.2269
  847TIP3   OH224031   3.714   4.238  11.345 -0.2880  0.6062 -0.0876
  847TIP3    H124032   3.763   4.314  11.376  0.7481  0.9716 -2.4356
  847TIP3    H224033   3.732   4.170  11.410  1.3851  1.4281  0.3583
  848TIP3   OH224034   6.727   1.113  13.293  0.2679 -0.2852  0.3705
  848TIP3    H124035   6.759   1.023  13.301  1.3826  0.1070  0.4419
  848TIP3    H224036   6.695   1.120  13.203 -0.4380 -0.9346  0.5570
  849TIP3   OH224037   4.619   1.049   5.281  0.6292 -0.1833 -0.0749
  849TIP3    H124038   4.660   0.991   5.345  0.1185 -0.1123  0.3118
  849TIP3    H224039   4.649   1.137   5.305 -1.7223  0.1886  1.7633
  850TIP3   OH224040   3.544   5.665   1.094  0.1918  0.5393 -0.0770
  850TIP3    H124041   3.614   5.678   1.029 -0.2287  0.5704 -0.5327
  850TIP3    H224042   3.500   5.749   1.098  1.6272  1.2757  1.9772
  851TIP3   OH224043   4.142   6.581  11.583 -0.1239 -0.6156 -0.0635
  851TIP3    H124044   4.124   6.565  11.490  0.4106  2.7835 -0.8808
  851TIP3    H224045   4.063   6.624  11.615  0.4084 -0.0931  0.5631
  852TIP3   OH224046   4.274   0.876  12.505 -0.1850  0.1851 -0.0872
  852TIP3    H124047   4.278   0.847  12.414 -0.2532  1.4463 -0.5045
  852TIP3    H224048   4.181   0.875  12.527 -0.2977  1.3231 -0.5115
  853TIP3   OH224049   1.144   6.409   5.473 -0.1217  0.2373  0.1954
  853TIP3    H124050   1.215   6.456   5.516 -2.8132  1.9744  3.2286
  853TIP3    H224051   1.165   6.317   5.486  1.1656  0.7116  1.8003
  854TIP3   OH224052   4.267   2.473   2.969  0.2327  0.4660  0.0238
  854TIP3    H124053   4.233   2.552   3.011 -1.5151  0.3408 -1.0613
  854TIP3    H224054   4.302   2.421   3.041  2.0170  2.4648  0.6979
  855TIP3   OH224055   1.283   4.912  12.269  0.2306  0.2990  0.0952
  855TIP3    H124056   1.190   4.933  12.275  0.2503  0.9425 -1.4407
  855TIP3    H224057   1.323   4.991  12.232  1.1498 -0.4996 -0.6643
  856TIP3   OH224058   3.753   2.402   6.012 -0.1191  0.3436  0.5078
  856TIP3    H124059   3.733   2.331   6.072 -0.0436  1.0227  1.3557
  856TIP3    H224060   3.668   2.433   5.981 -0.1290 -1.1608 -1.1689
  857TIP3   OH224061   5.217   3.740   6.542 -0.0753 -0.0100 -0.5457
  857TIP3    H124062   5.201   3.646   6.547 -0.4672  0.0634 -0.4199
  857TIP3    H224063   5.142   3.776   6.495  0.7997  0.0537 -1.9510
  858TIP3   OH224064   1.687   0.348   5.752 -0.2415 -0.1075 -0.7280
  858TIP3    H124065   1.609   0.292   5.749 -0.6162  0.2409  1.1831
  858TIP3    H224066   1.653   0.436   5.737 -0.6209  0.3244  2.0956
  859TIP3   OH224067   5.743   1.055   2.149 -0.2109 -0.1636  0.2913
  859TIP3    H124068   5.726   0.985   2.212  1.3450  0.0173  0.9725
  859TIP3    H224069   5.672   1.049   2.086 -0.6185 -1.7609  0.8582
  860TIP3   OH224070   1.994   3.552   4.519  0.9584  0.2455 -0.2390
  860TIP3    H124071   2.071   3.495   4.511  0.6003 -0.3338  0.4058
  860TIP3    H224072   1.939   3.509   4.584 -0.7579 -0.2918 -1.9591
  861TIP3   OH224073   2.244   3.268   6.020  0.0465 -0.3870 -0.0581
  861TIP3    H124074   2.207   3.257   6.108  0.2097 -0.3338  0.0179
  861TIP3    H224075   2.183   3.327   5.975  0.1665 -0.1078  0.1440
  862TIP3   OH224076   6.607   4.602   5.744  0.1732 -0.0543  0.1484
  862TIP3    H124077   6.588   4.518   5.704  0.8169 -0.0619 -0.1565
  862TIP3    H224078   6.560   4.600   5.828  0.0347 -0.6378  0.0591
  863TIP3   OH224079   3.911   3.009   3.980 -0.0705 -0.1265 -0.9452
  863TIP3    H124080   3.844   2.967   4.034  0.8779 -0.3225  0.1209
  863TIP3    H224081   3.987   2.952   3.988  1.0888  1.4778  0.1382
  864TIP3   OH224082   2.368   1.686   5.347  0.0912 -0.2172  0.6430
  864TIP3    H124083   2.354   1.664   5.255  0.0957 -0.4452  0.6957
  864TIP3    H224084   2.453   1.730   5.349 -0.2439  0.4504  0.4341
  865TIP3   OH224085   5.437   5.493  12.372  0.1885 -0.1834 -0.0688
  865TIP3    H124086   5.430   5.548  12.451 -1.1087  1.2322 -1.1079
  865TIP3    H224087   5.522   5.515  12.336 -0.5131  1.6400 -0.7500
  866TIP3   OH224088   2.254   2.309   5.979 -0.2289  0.3316 -0.1784
  866TIP3    H124089   2.336   2.301   6.029 -0.6201  0.0984  0.4328
  866TIP3    H224090   2.258   2.397   5.941 -0.0471  0.6140  0.4795
  867TIP3   OH224091   0.415   2.209   4.281  0.1001  0.0449 -0.2869
  867TIP3    H124092   0.421   2.304   4.285  1.6598 -0.0097 -0.7224
  867TIP3    H224093   0.380   2.191   4.194  3.8433  0.1662 -1.9768
  868TIP3   OH224094   0.720   3.084  13.326  0.3812  0.0644  0.1576
  868TIP3    H124095   0.656   3.022  13.359  0.4250 -0.1364 -0.1409
  868TIP3    H224096   0.726   3.067  13.232  0.0494  0.8313 -0.0072
  869TIP3   OH224097   0.781   0.109   0.484 -0.0185 -0.2608  0.1057
  869TIP3    H124098   0.754   0.033   0.431 -0.7631  0.1084 -0.0634
  869TIP3    H224099   0.701   0.161   0.492  0.6445  0.8550 -0.3603
  870TIP3   OH224100   6.451   2.837   2.747  0.8015  0.1517 -0.5001
  870TIP3    H124101   6.481   2.762   2.799 -0.3191 -0.6867 -1.0255
  870TIP3    H224102   6.357   2.842   2.764  0.9981  1.9697  0.1726
  871TIP3   OH224103   1.395   2.802   1.269 -0.2863  0.0927  0.3343
  871TIP3    H124104   1.479   2.795   1.223  0.5731 -0.4461  1.8828
  871TIP3    H224105   1.331   2.821   1.201  1.5540  4.1059 -0.5787
  872TIP3   OH224106   6.167   6.184   0.520  0.0039  0.0691 -0.5638
  872TIP3    H124107   6.079   6.219   0.508 -0.2485 -0.4031 -0.1255
  872TIP3    H224108   6.172   6.111   0.458  0.3735  0.5878 -1.1593
  873TIP3   OH224109   1.869   0.009  16.424  0.0637  0.0437 -0.9299
  873TIP3    H124110   1.891   0.098  16.396  0.1095  0.3994  0.1872
  873TIP3    H224111   1.946  -0.042  16.400  1.2203  0.8486  0.8794
  874TIP3   OH224112   0.076   1.425   1.606  0.3700 -0.2084 -0.4120
  874TIP3    H124113   0.145   1.420   1.672  0.8938  1.5509 -0.7683
  874TIP3    H224114   0.094   1.506   1.559 -2.6695  1.0125  0.2927
  875TIP3   OH224115   5.680   3.036   2.588 -0.0369  0.0212  0.0501
  875TIP3    H124116   5.665   3.094   2.662  1.1880 -0.0037  0.3402
  875TIP3    H224117   5.775   3.024   2.585 -0.0169  0.2993 -1.7321
  876TIP3   OH224118   3.350   6.571  15.972 -0.0602  0.0434 -0.2362
  876TIP3    H124119   3.347   6.637  15.904 -2.0971 -0.5989 -0.8358
  876TIP3    H224120   3.267   6.580  16.019  1.0151  0.0410  1.7657
  877TIP3   OH224121   6.809   0.077  16.803  0.3430  0.4788 -0.2178
  877TIP3    H124122   6.796   0.150  16.864  0.4954 -0.6504  1.2373
  877TIP3    H224123   6.849   0.008  16.857  2.4211  0.1240 -2.0785
  878TIP3   OH224124   3.728   0.395  11.943 -0.5599  0.3181 -0.0239
  878TIP3    H124125   3.773   0.423  12.023 -0.4638 -0.7514  0.3174
  878TIP3    H224126   3.796   0.356  11.889 -0.6777  0.7782 -0.5102
  879TIP3   OH224127   0.567   0.012  11.395  0.1841  0.3619  0.3637
  879TIP3    H124128   0.629  -0.057  11.370  0.3580  0.0585  1.5462
  879TIP3    H224129   0.493  -0.035  11.433  0.3309  0.8187  1.2404
  880TIP3   OH224130   6.215   0.898   1.618 -0.1110  0.5845  0.3006
  880TIP3    H124131   6.281   0.964   1.640  0.3000  0.2815 -0.0240
  880TIP3    H224132   6.178   0.928   1.535 -1.3191  1.4636  1.1263
  881TIP3   OH224133   4.174   5.620   4.093  0.1956 -0.8185 -0.2961
  881TIP3    H124134   4.142   5.658   4.011  0.2463  0.9006  0.4365
  881TIP3    H224135   4.172   5.525   4.078  1.6778 -0.5354 -2.8408
  882TIP3   OH224136   2.652   4.519  14.636  0.1349 -0.1024  0.0905
  882TIP3    H124137   2.626   4.598  14.685 -0.3556 -0.7590  0.9028
  882TIP3    H224138   2.650   4.449  14.701 -0.5874 -1.0093 -0.8749
  883TIP3   OH224139   2.932   3.813   2.141  0.5861  0.2996 -0.1623
  883TIP3    H124140   2.857   3.796   2.085  0.7497 -1.3845  0.0513
  883TIP3    H224141   2.896   3.857   2.218 -0.5911 -2.2899  0.8812
  884TIP3   OH224142   3.004   6.180  13.668  0.1901 -0.0561  0.1189
  884TIP3    H124143   3.023   6.182  13.574  1.0986  0.6862  0.3061
  884TIP3    H224144   2.922   6.229  13.677 -0.3725 -0.8788 -0.3757
  885TIP3   OH224145   2.501   0.544  11.130  0.0712 -0.2047  0.2009
  885TIP3    H124146   2.418   0.512  11.094 -0.5545  0.6580  0.8131
  885TIP3    H224147   2.491   0.640  11.131 -0.1206 -0.1757  2.9573
  886TIP3   OH224148   2.733   6.009   5.987 -0.3038  0.1881  0.1600
  886TIP3    H124149   2.675   5.946   5.944  0.7317 -1.0609  0.5372
  886TIP3    H224150   2.674   6.064   6.039 -1.3819  0.5549 -1.3683
  887TIP3   OH224151   4.638   5.239   5.715 -0.7096 -0.1797  0.6362
  887TIP3    H124152   4.663   5.196   5.797 -2.0198 -1.8273  0.2227
  887TIP3    H224153   4.599   5.322   5.743  0.9064  0.3473  1.5141
  888TIP3   OH224154   2.609   6.585  13.831  0.2349 -0.4692  0.4506
  888TIP3    H124155   2.546   6.603  13.902 -1.1591  0.2734 -0.9181
  888TIP3    H224156   2.613   6.490  13.828  1.0673 -0.5252  2.1423
  889TIP3   OH224157   0.485   5.054  15.892 -0.4269  0.2385  0.2214
  889TIP3    H124158   0.430   5.076  15.968 -2.8687  3.7481 -2.2390
  889TIP3    H224159   0.473   5.127  15.832  1.6174 -2.1414 -3.4663
  890TIP3   OH224160   1.745   2.407  16.081 -0.2742 -0.0867  0.2132
  890TIP3    H124161   1.748   2.312  16.073  0.1852 -0.0716  0.1797
  890TIP3    H224162   1.734   2.424  16.174 -2.2471 -0.2030  0.0404
  891TIP3   OH224163   2.650   5.219   3.594 -0.1496  0.3604  0.1710
  891TIP3    H124164   2.642   5.137   3.642 -2.4506 -1.1516 -2.4335
  891TIP3    H224165   2.649   5.193   3.502  0.5640  3.2484 -0.7691
  892TIP3   OH224166   6.234   2.896   0.199  0.3372  0.2994 -0.4950
  892TIP3    H124167   6.285   2.834   0.251  0.1974 -1.3374 -2.1751
  892TIP3    H224168   6.212   2.966   0.260  0.6765 -1.1968  1.4722
  893TIP3   OH224169   2.206   2.522  12.326 -0.3074 -0.3205 -0.2646
  893TIP3    H124170   2.200   2.607  12.370 -0.3958  0.0817 -1.0364
  893TIP3    H224171   2.115   2.495  12.315 -0.3592  0.2891 -1.5213
  894TIP3   OH224172   5.744   5.018  13.383  0.1186 -0.6703  0.5113
  894TIP3    H124173   5.655   5.054  13.374  0.3375 -0.4746 -1.0783
  894TIP3    H224174   5.750   4.953  13.313  1.6797  0.2762 -0.2769
  895TIP3   OH224175   4.396   5.957   1.250 -0.3724 -0.3669 -0.5513
  895TIP3    H124176   4.378   5.891   1.184 -0.3815 -1.4095  0.4607
  895TIP3    H224177   4.470   5.922   1.300  0.6132  1.0860 -0.9066
  896TIP3   OH224178   5.912   4.745   1.046 -0.5997  0.1585  0.0883
  896TIP3    H124179   5.871   4.785   0.969 -2.4189  1.1034  1.4683
  896TIP3    H224180   5.890   4.804   1.118  3.0965  0.6196  1.0339
  897TIP3   OH224181   2.656   4.293  11.280 -0.4644  0.2537  0.3806
  897TIP3    H124182   2.595   4.225  11.251 -0.0862  0.4251 -0.8887
  897TIP3    H224183   2.601   4.359  11.321 -0.7076 -1.4809  3.0959
  898TIP3   OH224184   0.565   2.639   3.484 -0.1327  0.3357  0.3166
  898TIP3    H124185   0.609   2.720   3.509  0.8237 -0.0902  0.0588
  898TIP3    H224186   0.472   2.660   3.490  0.0508  2.0020 -1.4712
  899TIP3   OH224187   1.483   4.838   5.132 -0.2901  0.2185  0.0656
  899TIP3    H124188   1.479   4.925   5.172 -0.3110  0.6784 -0.9089
  899TIP3    H224189   1.499   4.855   5.039 -0.0745 -0.8293 -0.1018
  900TIP3   OH224190   3.692   1.513   4.762 -0.0544 -0.2631  0.1674
  900TIP3    H124191   3.645   1.561   4.830  1.1544  0.6380  0.4040
  900TIP3    H224192   3.629   1.505   4.691 -1.1383 -0.6670  1.1457
  901TIP3   OH224193   0.592   5.161  16.831  0.1091  0.3713  0.1060
  901TIP3    H124194   0.506   5.164  16.790  0.5063 -0.8848 -0.8908
  901TIP3    H224195   0.643   5.228  16.784  0.0218  0.2514 -0.1656
  902TIP3   OH224196   2.948   1.766  12.047  0.1088  0.1884 -0.2958
  902TIP3    H124197   2.900   1.691  12.084 -0.9426  1.6163  1.3850
  902TIP3    H224198   2.908   1.843  12.087  2.0635  1.6171 -0.9034
  903TIP3   OH224199   2.973   1.484   4.307 -0.4603 -0.3996 -0.1216
  903TIP3    H124200   2.936   1.495   4.395  2.9958 -1.6136  1.6736
  903TIP3    H224201   2.918   1.417   4.267 -3.0996  1.3014  0.3808
  904TIP3   OH224202   0.916   6.271   3.252 -0.4718  0.0371 -0.4658
  904TIP3    H124203   0.834   6.248   3.210  1.3152 -3.4682 -2.5045
  904TIP3    H224204   0.949   6.189   3.289  1.9316  1.3477  0.5669
  905TIP3   OH224205   1.947   3.716   3.123 -0.0577  0.2938 -0.1728
  905TIP3    H124206   2.000   3.794   3.140 -0.5823  0.2787  1.6683
  905TIP3    H224207   1.862   3.750   3.095  0.4791  0.3259 -1.8738
  906TIP3   OH224208   1.936   5.023   3.660 -0.2688  0.4817 -0.0553
  906TIP3    H124209   1.975   5.035   3.573 -2.1891  0.5397 -0.9748
  906TIP3    H224210   1.902   4.934   3.659  0.7576  0.0561  1.1261
  907TIP3   OH224211   0.671   3.248   1.571 -0.8293  0.0573  0.0692
  907TIP3    H124212   0.724   3.316   1.529 -0.7727  0.0976  0.2049
  907TIP3    H224213   0.596   3.295   1.608 -0.1413  0.2415  1.2840
  908TIP3   OH224214   2.726   5.634   3.185  0.0653  0.4209 -0.3381
  908TIP3    H124215   2.707   5.636   3.091  1.7516 -1.9068 -0.8203
  908TIP3    H224216   2.811   5.677   3.193  1.4453 -2.1053 -0.4261
  909TIP3   OH224217   1.292   0.148   0.080  0.3858 -0.0357  0.4610
  909TIP3    H124218   1.299   0.222   0.019  0.0673  0.1425  0.6333
  909TIP3    H224219   1.366   0.092   0.059  0.2550  0.0075 -0.1118
  910TIP3   OH224220   6.325   5.117  12.683  0.3804 -0.0372  0.2254
  910TIP3    H124221   6.305   5.025  12.668 -0.5732  0.3436 -1.0717
  910TIP3    H224222   6.417   5.118  12.710  0.2588 -1.3902  0.7863
  911TIP3   OH224223   1.118   4.723  11.964 -0.2292  0.1606 -0.5172
  911TIP3    H124224   1.083   4.635  11.968  1.8781 -0.7221  2.6449
  911TIP3    H224225   1.042   4.780  11.974 -1.5053 -1.2591 -1.5493
  912TIP3   OH224226   3.114   4.855   0.380  0.0951 -0.5737 -0.4551
  912TIP3    H124227   3.033   4.877   0.336  0.5092  1.2754 -0.3657
  912TIP3    H224228   3.183   4.874   0.316  0.6700  1.7229  0.7251
  913TIP3   OH224229   3.725   4.672  14.251 -0.4037 -0.0683  0.1622
  913TIP3    H124230   3.745   4.601  14.312 -0.5724  0.5450  0.9543
  913TIP3    H224231   3.631   4.668  14.239 -0.1725 -1.3417 -1.5393
  914TIP3   OH224232   4.430   5.806  11.371 -0.2337 -0.0508  0.0646
  914TIP3    H124233   4.505   5.866  11.368 -0.2520 -0.0641 -1.8476
  914TIP3    H224234   4.458   5.736  11.430  1.9026 -0.7647 -1.6313
  915TIP3   OH224235   1.651   6.642  12.641  0.0596 -0.3724 -0.1479
  915TIP3    H124236   1.686   6.641  12.730  0.8106 -0.9334 -0.4423
  915TIP3    H224237   1.640   6.549  12.619  0.0928 -0.2377 -0.7275
  916TIP3   OH224238   6.000   5.107   5.438  0.2296 -1.1182 -0.9693
  916TIP3    H124239   6.081   5.142   5.473 -0.0584 -1.0418 -0.3763
  916TIP3    H224240   5.973   5.170   5.371  0.2017 -0.6827 -0.5542
  917TIP3   OH224241   0.230   1.427  11.576  0.3797 -0.1219  0.4860
  917TIP3    H124242   0.326   1.427  11.578  0.4004  0.8276 -0.0733
  917TIP3    H224243   0.207   1.334  11.575  1.2664 -0.3795  1.3690
  918TIP3   OH224244   4.572   2.692  13.196  0.1476 -0.6085  0.1614
  918TIP3    H124245   4.636   2.625  13.171 -0.3808 -0.9836 -0.2130
  918TIP3    H224246   4.502   2.643  13.240 -1.4995 -0.7099 -2.3835
  919TIP3   OH224247   1.640   1.955   0.273  0.3674 -0.6192 -0.6298
  919TIP3    H124248   1.557   1.958   0.225  0.1184 -0.4245 -0.2015
  919TIP3    H224249   1.707   1.972   0.207 -0.1551  2.8046 -0.4602
  920TIP3   OH224250   4.561   1.936  15.147  0.1931 -0.2210 -0.2093
  920TIP3    H124251   4.500   1.866  15.170  1.5902 -1.2152  0.5510
  920TIP3    H224252   4.512   1.991  15.085 -1.4136 -1.0655  0.2700
  921TIP3   OH224253   2.368   6.627   1.347 -0.3514  0.3330  0.3004
  921TIP3    H124254   2.433   6.597   1.410  0.2150  0.2883 -0.2951
  921TIP3    H224255   2.409   6.615   1.262  0.1766  3.3405  0.0276
  922TIP3   OH224256   1.384   0.047   5.244 -0.4956 -0.6699  0.3047
  922TIP3    H124257   1.450   0.025   5.178 -1.1381  0.1500 -0.6522
  922TIP3    H224258   1.321  -0.025   5.240  0.2305 -1.3641  1.0939
  923TIP3   OH224259   3.919   5.264  11.495  0.4843 -0.0920  0.6374
  923TIP3    H124260   3.916   5.201  11.423  1.8514  0.4482  0.0735
  923TIP3    H224261   3.895   5.214  11.572 -0.7598 -0.7529 -0.1422
  924TIP3   OH224262   4.863   4.191  15.159 -0.0758  1.0084 -0.2477
  924TIP3    H124263   4.902   4.106  15.140  1.0106  1.2387  0.7916
  924TIP3    H224264   4.860   4.194  15.255 -2.1845  1.2410 -0.2764
  925TIP3   OH224265   3.213   6.722  10.793  0.9456 -0.1420  0.1451
  925TIP3    H124266   3.163   6.798  10.824  0.5543 -0.8473  1.3088
  925TIP3    H224267   3.300   6.758  10.772  0.3500  0.8645 -0.6922
  926TIP3   OH224268   2.618   4.446  13.396  0.2464  0.5292  0.5838
  926TIP3    H124269   2.657   4.394  13.326 -1.8225 -1.1584  0.5900
  926TIP3    H224270   2.675   4.431  13.471  0.5603 -0.4896  0.1615
  927TIP3   OH224271   5.641   3.143   6.625  0.2156 -0.6058  0.1623
  927TIP3    H124272   5.708   3.084   6.661  0.0940 -0.9317 -0.1386
  927TIP3    H224273   5.561   3.091   6.625  0.0263 -0.3119  0.2464
  928TIP3   OH224274   1.810   3.789  11.542  0.5711 -0.5771  0.0285
  928TIP3    H124275   1.757   3.855  11.497  1.4187 -0.0106 -0.1567
  928TIP3    H224276   1.859   3.747  11.471  0.4865 -0.9900  0.2156
  929TIP3   OH224277   0.668   4.208   4.811  0.0424  0.0367  0.3567
  929TIP3    H124278   0.723   4.170   4.742 -0.6813  1.3477 -0.9874
  929TIP3    H224279   0.725   4.270   4.856  0.1518  0.1211  0.1015
  930TIP3   OH224280   6.134   4.360   3.908  0.2848  0.3291  0.6923
  930TIP3    H124281   6.112   4.307   3.832 -0.6108 -2.8971  2.9869
  930TIP3    H224282   6.101   4.447   3.887 -0.8247 -0.6511 -2.1468
  931TIP3   OH224283   2.174   1.379  12.060  0.7350  0.0149 -0.1561
  931TIP3    H124284   2.262   1.345  12.079  0.7488  0.7346  1.1604
  931TIP3    H224285   2.184   1.474  12.060 -0.3716  0.1878  1.9082
  932TIP3   OH224286   1.314   2.160   3.136  0.1996  0.2044 -0.2727
  932TIP3    H124287   1.371   2.115   3.073 -0.3854  0.8313 -1.2826
  932TIP3    H224288   1.344   2.129   3.222  1.6470  0.0442 -0.7984
  933TIP3   OH224289   6.818   3.985  14.764 -0.2040 -0.3056  0.6800
  933TIP3    H124290   6.821   4.011  14.671 -1.8706 -1.4098  0.2768
  933TIP3    H224291   6.725   3.968  14.781  0.0894 -0.2509  2.5429
  934TIP3   OH224292   5.167   2.095  16.563 -0.3024 -0.2201 -0.5088
  934TIP3    H124293   5.225   2.055  16.498  0.3911 -1.8258  1.0419
  934TIP3    H224294   5.124   2.022  16.606 -1.1982  0.8300  0.4590
  935TIP3   OH224295   3.744   2.848  13.059  0.2973  0.1988 -0.1159
  935TIP3    H124296   3.689   2.817  13.131 -0.0548  0.5372 -0.2355
  935TIP3    H224297   3.833   2.826  13.086  0.0854 -0.5878 -0.0382
  936TIP3   OH224298   2.881   6.589   0.838  0.3551  0.1966  0.4544
  936TIP3    H124299   2.961   6.640   0.853  0.0371 -0.0583  3.4521
  936TIP3    H224300   2.812   6.642   0.877 -0.6403 -0.5701 -0.2399
  937TIP3   OH224301   1.644   0.569  11.959  0.4241  0.0486  0.3614
  937TIP3    H124302   1.686   0.559  11.873 -0.6393 -3.0301  0.0867
  937TIP3    H224303   1.558   0.606  11.939  0.6170  0.4304  0.2321
  938TIP3   OH224304   2.093   5.276   4.935 -0.0460 -0.3016 -0.1283
  938TIP3    H124305   2.179   5.256   4.898 -0.0592 -0.9986  0.2033
  938TIP3    H224306   2.077   5.367   4.911  1.8064  0.5910  1.8047
  939TIP3   OH224307   5.756   3.732   4.259 -0.0671  0.5966  0.4570
  939TIP3    H124308   5.777   3.689   4.176 -0.8244 -0.0208  0.5685
  939TIP3    H224309   5.699   3.805   4.235 -0.7142  0.1007  0.4791
  940TIP3   OH224310   3.884   5.554   1.913 -0.6784  0.0067 -0.0926
  940TIP3    H124311   3.816   5.536   1.848  0.8256 -0.3090 -1.6250
  940TIP3    H224312   3.950   5.605   1.866  1.8981 -2.7344  0.2727
  941TIP3   OH224313   4.679   1.833   4.537 -0.2529  0.3810  0.4964
  941TIP3    H124314   4.685   1.833   4.441 -2.4688  0.7869  0.3108
  941TIP3    H224315   4.714   1.919   4.562  0.2986  0.2924  0.0754
  942TIP3   OH224316   5.316   1.723   3.645  0.2819  0.0631 -0.0191
  942TIP3    H124317   5.346   1.770   3.723  0.2743  0.4179 -0.2270
  942TIP3    H224318   5.279   1.642   3.678 -0.4905  0.5782  0.4219
  943TIP3   OH224319   1.633   1.297   0.038 -0.1584 -0.2203  0.3962
  943TIP3    H124320   1.565   1.314  -0.027  1.6476  0.1177 -1.5187
  943TIP3    H224321   1.660   1.384   0.068 -0.0076 -0.3049  0.5122
  944TIP3   OH224322   1.127   6.167  13.944 -0.7652 -0.0366 -0.3096
  944TIP3    H124323   1.118   6.115  13.864 -0.8238  1.1164 -1.0770
  944TIP3    H224324   1.100   6.255  13.918  1.7490  0.9866  0.2708
  945TIP3   OH224325   5.790   3.612  15.382 -0.0009 -0.6862  0.3371
  945TIP3    H124326   5.864   3.663  15.413  0.4450 -1.4803  0.6070
  945TIP3    H224327   5.724   3.677  15.358  0.6676  0.0142  0.3792
  946TIP3   OH224328   6.051   3.458  15.306  0.4050  0.0869 -0.0811
  946TIP3    H124329   6.132   3.416  15.276  0.9556  1.0641  0.0018
  946TIP3    H224330   5.994   3.458  15.229  0.3877 -0.8078 -0.0810
  947TIP3   OH224331   0.677   5.204  11.805 -0.3702  0.1409  0.0163
  947TIP3    H124332   0.701   5.220  11.896 -0.8660  0.9600  0.0110
  947TIP3    H224333   0.581   5.200  11.805 -0.3313 -1.6774 -0.1884
  948TIP3   OH224334   2.586   5.255   1.421  0.3356 -0.3820  0.4468
  948TIP3    H124335   2.654   5.321   1.434  1.3624 -1.0511 -1.1949
  948TIP3    H224336   2.627   5.172   1.443 -0.0352 -0.7671 -0.2676
  949TIP3   OH224337   4.787   0.648  16.450 -0.0196 -0.0653 -0.1488
  949TIP3    H124338   4.778   0.743  16.441  1.9425 -0.0075 -2.1874
  949TIP3    H224339   4.881   0.633  16.455 -0.1365 -2.0438 -2.3427
  950TIP3   OH224340   2.330   5.697  12.837 -0.6464 -0.2376  0.4201
  950TIP3    H124341   2.416   5.735  12.817 -1.1321  0.5074 -0.3275
  950TIP3    H224342   2.274   5.773  12.854 -0.9085 -0.7564  1.9968
  951TIP3   OH224343   5.263   3.845   5.590 -0.1387 -0.1591  0.2662
  951TIP3    H124344   5.328   3.776   5.579  0.0766 -0.1164  1.1954
  951TIP3    H224345   5.293   3.916   5.532 -0.5236 -0.9343 -0.9171
  952TIP3   OH224346   2.737   1.480  15.420 -0.2229 -0.2714  0.4112
  952TIP3    H124347   2.796   1.503  15.348 -0.4968 -0.6278  0.0712
  952TIP3    H224348   2.780   1.406  15.462 -0.5333 -0.6756  0.0253
  953TIP3   OH224349   2.704   2.156   0.492  0.2373 -0.0524 -0.7325
  953TIP3    H124350   2.634   2.215   0.519 -0.8016 -2.2172  1.7111
  953TIP3    H224351   2.712   2.169   0.397 -0.8668  2.9101 -0.5195
  954TIP3   OH224352   3.200   3.051  15.789  0.1149 -0.1173 -0.2642
  954TIP3    H124353   3.194   3.039  15.883 -1.0200 -2.5477 -0.5556
  954TIP3    H224354   3.124   3.105  15.766  0.5630  0.7289  0.2339
  955TIP3   OH224355   3.616   1.895  12.453  0.3177  0.3805 -0.0689
  955TIP3    H124356   3.679   1.966  12.440 -0.3038  1.1468  0.9685
  955TIP3    H224357   3.558   1.900  12.377  1.2765 -0.1033 -0.8476
  956TIP3   OH224358   5.846   1.515  12.859 -0.5667 -0.5637  0.1684
  956TIP3    H124359   5.761   1.472  12.846 -0.0280 -2.0389  1.2089
  956TIP3    H224360   5.883   1.471  12.936  1.2615 -0.1379 -0.4237
  957TIP3   OH224361   0.390   5.505   0.308  0.8309 -0.0195 -0.2944
  957TIP3    H124362   0.438   5.422   0.303  1.2161  0.0515  1.6422
  957TIP3    H224363   0.407   5.538   0.396  0.4720  2.0029 -0.9236
  958TIP3   OH224364   4.050   1.009  12.231  0.1235  0.1871 -1.1461
  958TIP3    H124365   4.109   0.970  12.168 -0.3863  0.2866 -1.6940
  958TIP3    H224366   4.044   1.101  12.205  1.0942  0.5889 -0.0391
  959TIP3   OH224367   2.157   6.275   1.950  0.0689 -0.0375 -0.1484
  959TIP3    H124368   2.223   6.253   2.016 -0.7823 -1.2575  0.3349
  959TIP3    H224369   2.162   6.204   1.886 -1.4645 -0.7256  0.4489
  960TIP3   OH224370   4.514   5.507  13.301  0.2162  0.5380  0.4299
  960TIP3    H124371   4.534   5.600  13.308  2.8286  0.3706 -2.4466
  960TIP3    H224372   4.489   5.494  13.209  2.9143 -1.9248 -0.1240
  961TIP3   OH224373   2.925   2.104  15.615  0.3958  0.1232 -0.0855
  961TIP3    H124374   2.950   2.175  15.674 -0.4081  0.9134 -0.6755
  961TIP3    H224375   3.005   2.084  15.567  0.2525  1.7885 -1.0929
  962TIP3   OH224376   6.523   2.195  16.896 -0.7526 -0.1804 -0.3754
  962TIP3    H124377   6.553   2.264  16.956 -0.5528  0.2051 -0.9132
  962TIP3    H224378   6.432   2.180  16.921 -0.9997  0.7505 -0.6852
  963TIP3   OH224379   0.145   2.278   2.133 -0.4627  0.1557  0.3501
  963TIP3    H124380   0.160   2.355   2.187 -1.1608  0.2365  0.4314
  963TIP3    H224381   0.154   2.204   2.193  1.8387  0.0536 -0.0412
  964TIP3   OH224382   1.366   3.552   5.919  0.2739 -0.3727 -0.4471
  964TIP3    H124383   1.303   3.622   5.901  1.7538  0.9796 -0.6078
  964TIP3    H224384   1.412   3.581   5.998 -1.1710 -2.7080  1.3766
  965TIP3   OH224385   2.114   4.223   2.412 -0.1924 -0.2697 -0.8523
  965TIP3    H124386   2.114   4.276   2.333  0.6488 -0.0899 -0.7398
  965TIP3    H224387   2.140   4.136   2.383  0.2034 -0.1823 -0.7580
  966TIP3   OH224388   1.425   0.329   5.117 -0.4194  0.4332 -0.5055
  966TIP3    H124389   1.385   0.415   5.130 -1.0365 -0.0295  0.7265
  966TIP3    H224390   1.372   0.269   5.168 -0.3808 -0.8126 -1.8628
  967TIP3   OH224391   4.053   4.085  13.775  0.2600  0.2797 -0.4850
  967TIP3    H124392   4.009   4.062  13.858 -0.3386  0.3478 -0.7755
  967TIP3    H224393   4.146   4.075  13.794  0.1834  1.2379  0.4936
  968TIP3   OH224394   4.239   4.090   5.751  0.3090  0.3969 -0.2202
  968TIP3    H124395   4.152   4.073   5.788 -0.0351  2.1015 -0.1808
  968TIP3    H224396   4.278   4.155   5.810  1.2440  0.3571 -0.7792
  969TIP3   OH224397   5.450   1.832  12.825 -0.6953 -0.3769 -0.6035
  969TIP3    H124398   5.509   1.816  12.751 -1.6626  1.2052 -1.7784
  969TIP3    H224399   5.475   1.919  12.857  0.8257 -1.6905  2.0805
  970TIP3   OH224400   6.457   6.191  11.695 -0.0742 -0.6149 -0.0914
  970TIP3    H124401   6.484   6.204  11.786  0.2757 -1.1461 -0.1112
  970TIP3    H224402   6.379   6.245  11.685 -0.4289 -0.9704  0.6815
  971TIP3   OH224403   0.222   4.179   5.072 -0.2679 -0.1522  0.3178
  971TIP3    H124404   0.218   4.213   4.982 -0.2317  1.8384  1.0139
  971TIP3    H224405   0.311   4.144   5.081  0.0924  0.6362 -0.0963
  972TIP3   OH224406   2.655   1.059   6.141 -0.0602 -0.2046  0.1211
  972TIP3    H124407   2.613   1.038   6.225  1.8092  2.6822  1.9700
  972TIP3    H224408   2.748   1.040   6.157  0.3892  0.8311 -1.1556
  973TIP3   OH224409   4.436   2.662   0.556 -0.0768  0.1545  0.1466
  973TIP3    H124410   4.348   2.697   0.544  0.3800  1.0853 -0.7209
  973TIP3    H224411   4.493   2.729   0.518  0.9576 -0.7810 -0.0029
  974TIP3   OH224412   4.741   2.320  12.111  0.5821 -0.0399  0.0621
  974TIP3    H124413   4.744   2.380  12.037  2.4841 -0.3676 -0.1975
  974TIP3    H224414   4.772   2.236  12.076  1.2660 -0.2694  1.1312
  975TIP3   OH224415   5.911   0.141  16.892  0.3589  0.8808  0.3435
  975TIP3    H124416   5.987   0.090  16.865 -0.4781 -0.1741 -0.0674
  975TIP3    H224417   5.911   0.134  16.988  0.6979  0.7696  0.3373
  976TIP3   OH224418   0.856   5.965  15.614 -1.1308 -0.2419 -0.8421
  976TIP3    H124419   0.927   5.992  15.672 -0.2507 -1.5418 -1.2852
  976TIP3    H224420   0.807   5.901  15.664 -0.3113 -1.4436 -1.5201
  977TIP3   OH224421   3.661   6.249   0.970  0.6241 -0.3674 -0.0203
  977TIP3    H124422   3.649   6.270   0.877 -0.5146 -0.7240  0.0409
  977TIP3    H224423   3.700   6.328   1.007  0.8268 -0.1172 -0.7366
  978TIP3   OH224424   3.554   2.014  14.932 -0.2642  0.1401  0.2662
  978TIP3    H124425   3.567   2.039  14.841  0.1354 -2.8089 -0.6045
  978TIP3    H224426   3.469   1.971  14.934  0.0157 -0.4214  1.1188
  979TIP3   OH224427   2.535   6.471   1.568 -0.5247 -0.1582  0.2608
  979TIP3    H124428   2.575   6.474   1.481 -0.5595 -0.5197  0.2339
  979TIP3    H224429   2.610   6.473   1.628 -0.4674  4.0198  0.3792
  980TIP3   OH224430   1.046   4.485  13.307 -0.8307  0.3052 -1.1373
  980TIP3    H124431   1.046   4.540  13.386 -0.8136  1.2730 -1.7855
  980TIP3    H224432   0.954   4.473  13.286 -0.8471  2.1991 -2.3793
  981TIP3   OH224433   3.413   1.516  14.885  0.1285 -0.1802 -0.1772
  981TIP3    H124434   3.392   1.578  14.955  0.2063  1.0040 -1.1694
  981TIP3    H224435   3.330   1.500  14.841  0.3432  0.2834 -0.7607
  982TIP3   OH224436   3.146   4.978  15.008  0.2447 -0.6971 -0.2253
  982TIP3    H124437   3.179   5.051  15.060  1.1756 -0.4940 -1.0835
  982TIP3    H224438   3.165   5.002  14.918 -0.0589 -1.6961 -0.5698
  983TIP3   OH224439   2.456   1.121  11.113 -0.2051 -0.5632  0.3213
  983TIP3    H124440   2.446   1.163  11.027 -0.6731 -1.3884 -0.0425
  983TIP3    H224441   2.372   1.134  11.156  0.1929  0.2928  0.8807
  984TIP3   OH224442   0.552   2.912  16.421  0.4164  1.0389  0.1318
  984TIP3    H124443   0.621   2.978  16.422  0.5192  1.0396 -1.8172
  984TIP3    H224444   0.470   2.962  16.425  0.5109  1.2047 -0.0074
  985TIP3   OH224445   4.565   6.121  13.173 -0.5565 -0.1114  0.2198
  985TIP3    H124446   4.657   6.098  13.160 -0.2143  1.1660  0.2622
  985TIP3    H224447   4.516   6.051  13.131  0.4561  0.9477 -2.9660
  986TIP3   OH224448   4.873   1.724   2.051 -0.0479  0.3137  0.1114
  986TIP3    H124449   4.868   1.663   1.977  1.0506 -1.1895  1.2133
  986TIP3    H224450   4.846   1.672   2.126 -0.5404  1.6459  0.8892
  987TIP3   OH224451   3.799   6.840   6.238 -0.0700 -0.6441  0.1468
  987TIP3    H124452   3.832   6.874   6.155 -1.6340  0.5874 -0.0240
  987TIP3    H224453   3.858   6.768   6.260  1.0396 -0.2787 -1.4600
  988TIP3   OH224454   5.953   2.822   0.172 -0.6581  0.2837 -0.0778
  988TIP3    H124455   5.935   2.788   0.260 -2.2980  1.0948 -0.0553
  988TIP3    H224456   6.047   2.838   0.171 -0.4062 -0.9214  1.0922
  989TIP3   OH224457   0.843   0.362   4.642 -0.3747  0.1594  0.5715
  989TIP3    H124458   0.929   0.401   4.625  0.7288 -1.8679  1.2167
  989TIP3    H224459   0.861   0.270   4.662 -2.7205 -0.3655  0.6016
  990TIP3   OH224460   5.753   1.648   4.941 -0.6333  0.5222  0.0048
  990TIP3    H124461   5.757   1.744   4.943 -0.5009  0.5316  2.0142
  990TIP3    H224462   5.843   1.620   4.959 -0.6884  0.0206 -0.4919
  991TIP3   OH224463   6.828   4.771   5.735 -0.3794 -0.0314 -0.6173
  991TIP3    H124464   6.790   4.856   5.754 -2.5888 -0.8600 -1.0723
  991TIP3    H224465   6.756   4.709   5.745  1.5883 -2.1991  1.8960
  992TIP3   OH224466   4.159   3.744   2.033 -0.3207  0.1129 -0.7790
  992TIP3    H124467   4.206   3.820   2.068 -0.9924  1.1632 -2.0413
  992TIP3    H224468   4.106   3.713   2.106  1.6146 -0.5747  0.4257
  993TIP3   OH224469   4.497   0.422  15.075 -1.0264  0.1133 -0.4355
  993TIP3    H124470   4.471   0.473  15.152 -1.8335 -1.0268  0.0698
  993TIP3    H224471   4.415   0.407  15.027 -0.6828 -0.0672 -0.9834
  994TIP3   OH224472   0.056   6.155  12.931  0.0673 -0.1933 -0.1503
  994TIP3    H124473   0.023   6.067  12.944 -0.7789 -0.0454 -1.1593
  994TIP3    H224474  -0.010   6.212  12.972 -0.6709  0.0765 -1.6688
  995TIP3   OH224475   3.361   2.407   1.117  0.0488  0.2135  0.5811
  995TIP3    H124476   3.333   2.485   1.167  0.1292 -0.0759  1.0877
  995TIP3    H224477   3.285   2.349   1.119 -0.9735  1.3437 -2.0683
  996TIP3   OH224478   4.647   5.548   3.636  0.1047 -0.1901 -0.0276
  996TIP3    H124479   4.685   5.634   3.618 -1.6504  0.3265 -1.5067
  996TIP3    H224480   4.636   5.546   3.731  2.0611  0.3511  0.2486
  997TIP3   OH224481   1.078   4.936   5.762  0.2607 -0.0025 -0.2542
  997TIP3    H124482   1.154   4.880   5.779  0.3525  0.4602  0.9041
  997TIP3    H224483   1.102   4.985   5.683  1.0983  0.0274  0.0152
  998TIP3   OH224484   5.748   0.673  10.608  0.1005  0.0421  0.0866
  998TIP3    H124485   5.730   0.580  10.594  1.2262 -0.2447  0.4610
  998TIP3    H224486   5.661   0.711  10.625 -0.4392 -0.8280 -0.6090
  999TIP3   OH224487   3.557   1.905  10.785 -0.1851 -0.1458  0.3313
  999TIP3    H124488   3.567   1.872  10.874  1.2279  1.1276  0.6766
  999TIP3    H224489   3.612   1.847  10.732 -2.4343 -2.0708 -0.0926
 1000TIP3   OH224490   6.246   6.716   2.095  0.4983  0.7459 -0.2529
 1000TIP3    H124491   6.204   6.630   2.105  1.1231 -0.0034 -3.2725
 1000TIP3    H224492   6.340   6.696   2.089  0.5053  1.2633 -3.3966
 1001TIP3   OH224493   6.291   2.124  10.770  0.4291 -0.3876  0.4564
 1001TIP3    H124494   6.339   2.074  10.836  0.1221 -0.1758  0.8381
 1001TIP3    H224495   6.209   2.078  10.759  1.2225 -1.5272 -1.1725
 1002TIP3   OH224496   1.000   5.351   4.629  0.4748  0.3881  0.3227
 1002TIP3    H124497   1.047   5.357   4.712 -0.2151 -1.3816  0.8856
 1002TIP3    H224498   0.908   5.362   4.653  0.0317 -2.4243  0.1804
 1003TIP3   OH224499   5.223   2.004  12.079 -0.4317  0.0416 -0.6934
 1003TIP3    H124500   5.159   1.939  12.107  0.8461 -1.4597 -1.0912
 1003TIP3    H224501   5.299   1.952  12.050  0.9024  1.7241 -0.3875
 1004TIP3   OH224502   2.862   4.560   2.151  0.5588 -0.3753  0.2278
 1004TIP3    H124503   2.942   4.610   2.169  1.6896 -1.5138 -1.3023
 1004TIP3    H224504   2.834   4.528   2.236  0.7640  1.4162  1.0149
 1005TIP3   OH224505   6.711   4.134  13.294 -0.1328 -0.8404  0.2672
 1005TIP3    H124506   6.742   4.223  13.275 -1.5908 -0.2861  0.3371
 1005TIP3    H224507   6.636   4.122  13.236  0.4022 -2.2659 -0.1669
 1006TIP3   OH224508   1.512   5.277  13.676 -0.4687 -0.0033 -0.8434
 1006TIP3    H124509   1.502   5.367  13.707 -0.7653  0.2467 -1.6230
 1006TIP3    H224510   1.585   5.281  13.614  1.4604 -0.8845  1.2600
 1007TIP3   OH224511   1.600   3.721  11.850 -0.3429  0.0015 -0.2204
 1007TIP3    H124512   1.695   3.708  11.858 -0.4382 -1.0725 -0.7272
 1007TIP3    H224513   1.583   3.721  11.756 -1.1130 -1.9823 -0.1218
 1008TIP3   OH224514   4.553   5.090  10.782 -0.2113  0.4973 -0.8139
 1008TIP3    H124515   4.518   5.174  10.754 -0.4162  0.2351 -1.3616
 1008TIP3    H224516   4.555   5.095  10.878  0.6107  1.4468 -0.8701
 1009TIP3   OH224517   5.544   2.877  12.837  0.3548  0.1895  0.1727
 1009TIP3    H124518   5.629   2.871  12.880 -0.0298 -1.4375  0.7770
 1009TIP3    H224519   5.559   2.936  12.763  2.0087 -0.0939  0.2464
 1010TIP3   OH224520   0.483   1.284  15.883  0.4396  0.0656  0.1292
 1010TIP3    H124521   0.568   1.324  15.902  0.5114 -0.1346  0.2364
 1010TIP3    H224522   0.485   1.266  15.789 -0.3023  1.9618 -0.2914
 1011TIP3   OH224523   4.130   3.878   4.641 -0.4470  0.2102 -0.0843
 1011TIP3    H124524   4.193   3.914   4.579  0.1845  0.5453  0.7407
 1011TIP3    H224525   4.074   3.952   4.664  0.4083  0.5241  1.0669
 1012TIP3   OH224526   4.097   3.996  11.189  0.0628  0.1808 -0.0961
 1012TIP3    H124527   4.095   3.904  11.160 -0.4399 -0.2093  1.1357
 1012TIP3    H224528   4.007   4.025  11.181  0.1908  0.5240 -0.3057
 1013TIP3   OH224529   0.128   6.003   0.446  0.1046  0.2043 -0.6290
 1013TIP3    H124530   0.067   6.066   0.408 -1.6038 -0.4852  0.8463
 1013TIP3    H224531   0.078   5.957   0.513  2.0993 -0.8008  0.2844
 1014TIP3   OH224532   0.356   3.671  14.447 -0.7260 -0.2735 -0.1660
 1014TIP3    H124533   0.349   3.612  14.372  1.2614 -1.0460  0.2028
 1014TIP3    H224534   0.397   3.750  14.412  0.2276 -0.6447  0.0727
 1015TIP3   OH224535   4.725   0.556  15.262  0.5193 -0.0782  0.5994
 1015TIP3    H124536   4.810   0.600  15.262  0.0471  0.8641  1.0164
 1015TIP3    H224537   4.690   0.572  15.349  0.6040 -1.8730  1.0116
 1016TIP3   OH224538   2.174   2.148   4.862  0.3955 -0.0125 -0.3684
 1016TIP3    H124539   2.185   2.120   4.771 -2.6087 -1.0350 -0.5017
 1016TIP3    H224540   2.213   2.077   4.913 -0.7655 -1.0186 -0.8387
 1017TIP3   OH224541   0.355   2.040  16.193 -0.0008  0.2367  0.0363
 1017TIP3    H124542   0.363   2.005  16.104  1.0047  0.2156  0.1325
 1017TIP3    H224543   0.380   2.132  16.186  1.1195 -0.0272  0.4882
 1018TIP3   OH224544   6.733   1.716   6.488  0.3701 -0.0244 -0.6023
 1018TIP3    H124545   6.822   1.691   6.466  0.1384 -1.2940 -0.1755
 1018TIP3    H224546   6.743   1.771   6.566  0.7552 -0.4661 -0.3345
 1019TIP3   OH224547   5.131   2.171   1.698 -0.6776  0.0647  0.6136
 1019TIP3    H124548   5.146   2.265   1.685 -0.5988  0.2701  2.1104
 1019TIP3    H224549   5.080   2.165   1.778 -0.8641 -1.1735  0.4245
 1020TIP3   OH224550   0.857   3.713  11.195  0.2073  0.0644  0.2369
 1020TIP3    H124551   0.948   3.725  11.167 -0.0612  1.7828 -0.0007
 1020TIP3    H224552   0.831   3.798  11.228 -1.3094 -0.4342  0.3821
 1021TIP3   OH224553   6.826   4.189   2.813 -0.3576  0.0361 -0.1546
 1021TIP3    H124554   6.870   4.189   2.728 -0.4568 -1.1474 -0.2176
 1021TIP3    H224555   6.895   4.163   2.875  0.1691  2.5023  0.4107
 1022TIP3   OH224556   6.042   1.277   0.724  0.0820 -0.4120 -0.8336
 1022TIP3    H124557   6.016   1.292   0.633 -1.0266 -1.2009 -0.6713
 1022TIP3    H224558   5.995   1.197   0.749 -0.7523  0.5613  0.8643
 1023TIP3   OH224559   1.836   4.667  14.435  0.4624  0.0398 -0.4951
 1023TIP3    H124560   1.763   4.644  14.378 -0.0279 -0.6628  0.3781
 1023TIP3    H224561   1.890   4.589  14.437 -0.8228 -0.9016  1.9101
 1024TIP3   OH224562   1.176   4.108  12.297 -0.2459 -0.2287 -0.3107
 1024TIP3    H124563   1.219   4.088  12.380  0.5982  3.2893  0.2526
 1024TIP3    H224564   1.113   4.177  12.319  0.5086  1.3165 -2.6370
 1025TIP3   OH224565   0.731   0.698  12.538  0.3161  0.8204 -0.3733
 1025TIP3    H124566   0.660   0.678  12.598 -0.3004  0.7564 -1.1004
 1025TIP3    H224567   0.802   0.732  12.593  1.1928 -2.6755  0.8582
 1026TIP3   OH224568   2.138   3.791  11.826 -0.1041  0.3828  0.2311
 1026TIP3    H124569   2.141   3.829  11.914 -0.4608  0.9728 -0.0080
 1026TIP3    H224570   2.216   3.826  11.783  0.5339 -0.5716  0.5673
 1027TIP3   OH224571   0.291   4.272   4.821 -0.3358 -0.4696 -0.5117
 1027TIP3    H124572   0.383   4.265   4.795 -0.4359  0.1169 -1.0357
 1027TIP3    H224573   0.241   4.246   4.744 -0.6323 -2.6948  0.3373
 1028TIP3   OH224574   2.566   5.424  13.941 -0.0626 -0.4309  0.4687
 1028TIP3    H124575   2.606   5.493  13.889 -0.9751 -0.2942 -0.0787
 1028TIP3    H224576   2.472   5.442  13.938 -0.2548 -1.2332  0.9934
 1029TIP3   OH224577   6.776   4.435   4.647  0.0440  0.1206 -0.4807
 1029TIP3    H124578   6.807   4.395   4.566 -2.0820 -1.6349 -0.5204
 1029TIP3    H224579   6.759   4.361   4.706 -0.0597  1.2537  0.9716
 1030TIP3   OH224580   0.049   6.107  15.085 -0.5315  0.2314  1.2641
 1030TIP3    H124581   0.043   6.176  15.151  0.4413 -0.5330  2.1898
 1030TIP3    H224582   0.103   6.144  15.015  1.2564 -0.0519  2.4259
 1031TIP3   OH224583   1.707   5.168  15.067  0.5807 -0.5354 -0.0497
 1031TIP3    H124584   1.747   5.147  15.151 -0.6161  1.0367  0.9725
 1031TIP3    H224585   1.766   5.231  15.027  0.8024 -0.7567 -0.0712
 1032TIP3   OH224586   5.494   2.962   5.465 -0.0837 -0.3489 -0.2818
 1032TIP3    H124587   5.476   3.056   5.469 -1.1722 -0.5041 -1.2105
 1032TIP3    H224588   5.408   2.921   5.455  0.4453 -1.4002 -0.6807
 1033TIP3   OH224589   1.579   3.123   1.197  0.1344  1.0405  0.2893
 1033TIP3    H124590   1.503   3.133   1.139 -0.5500  3.8345  1.4758
 1033TIP3    H224591   1.544   3.079   1.275  0.2906  0.2975 -0.0490
 1034TIP3   OH224592   4.940   6.838  12.909 -0.0268 -0.3514  0.2398
 1034TIP3    H124593   4.930   6.758  12.961 -0.5120  0.6486  1.7518
 1034TIP3    H224594   4.851   6.874  12.903  0.2445  0.2813 -0.0797
 1035TIP3   OH224595   6.393   4.488   0.359  0.3082 -0.0482  0.0531
 1035TIP3    H124596   6.326   4.437   0.405 -1.6669  0.4476 -2.0791
 1035TIP3    H224597   6.388   4.575   0.398 -0.0104 -0.1218  0.1745
 1036TIP3   OH224598   2.863   5.435   4.125  0.0938  0.5945  0.2542
 1036TIP3    H124599   2.865   5.407   4.216 -1.5069 -0.8752 -0.1140
 1036TIP3    H224600   2.849   5.354   4.075  1.5084  1.2760 -1.3729
 1037TIP3   OH224601   3.853   0.897   0.162 -0.0466  0.0867 -0.3415
 1037TIP3    H124602   3.861   0.931   0.251  0.7551  0.4099 -0.5277
 1037TIP3    H224603   3.874   0.803   0.170  0.1668  0.1446 -0.2100
 1038TIP3   OH224604   0.393   2.620   1.635 -0.1644  0.2488  0.0183
 1038TIP3    H124605   0.440   2.700   1.658 -0.7252  0.3629  0.8004
 1038TIP3    H224606   0.320   2.616   1.696 -0.8655 -0.2109 -0.8183
 1039TIP3   OH224607   6.780   5.703  13.360 -0.9194  0.9120 -0.2334
 1039TIP3    H124608   6.843   5.663  13.419 -3.0841 -2.6548 -0.0590
 1039TIP3    H224609   6.803   5.671  13.273 -1.5999  0.7953 -0.3787
 1040TIP3   OH224610   5.213   2.149   3.161 -0.5838 -0.5995  0.5195
 1040TIP3    H124611   5.118   2.133   3.159 -0.9011  1.0932  0.3482
 1040TIP3    H224612   5.248   2.077   3.214 -2.0597 -0.8335  1.2406
 1041TIP3   OH224613   0.063   5.320   1.229 -0.0019  0.3054 -0.5984
 1041TIP3    H124614  -0.007   5.303   1.293 -0.5108 -2.0382 -1.6578
 1041TIP3    H224615   0.020   5.373   1.161 -0.1667  0.6406 -0.2367
 1042TIP3   OH224616   1.300   3.235  11.994 -0.2088  0.2861 -0.4622
 1042TIP3    H124617   1.247   3.273  12.064  1.8713  1.1391  0.7579
 1042TIP3    H224618   1.336   3.311  11.947  0.3507 -0.2417 -0.9085
 1043TIP3   OH224619   6.284   3.336   2.180  0.7997  0.2133  0.5407
 1043TIP3    H124620   6.322   3.278   2.246 -0.2270 -0.2711  0.7240
 1043TIP3    H224621   6.357   3.357   2.122  1.1431 -1.5231  0.2919
 1044TIP3   OH224622   4.704   5.589  11.213  0.0049  0.7313 -0.5037
 1044TIP3    H124623   4.681   5.506  11.171  0.0178 -0.3471  1.4907
 1044TIP3    H224624   4.745   5.641  11.143 -1.0913 -0.4428 -2.0970
 1045TIP3   OH224625   5.796   4.751  12.500  0.1607 -0.5026 -0.1718
 1045TIP3    H124626   5.780   4.705  12.418 -0.3994 -1.4481  0.4528
 1045TIP3    H224627   5.742   4.705  12.564  0.8522  0.0108  0.7987
 1046TIP3   OH224628   3.737   4.602  15.442  0.6929  0.1820  0.6410
 1046TIP3    H124629   3.717   4.517  15.480  2.1642 -0.0716  0.8955
 1046TIP3    H224630   3.817   4.588  15.392  0.5589  1.2622  0.0824
 1047TIP3   OH224631   3.723   4.369  12.716 -0.0441  0.2059 -0.0158
 1047TIP3    H124632   3.730   4.462  12.693  0.5111 -0.1960 -1.6208
 1047TIP3    H224633   3.809   4.332  12.694 -1.1876 -1.2589 -2.4283
 1048TIP3   OH224634   2.849   0.110  14.468  0.0846 -0.2455 -0.1446
 1048TIP3    H124635   2.794   0.032  14.474 -1.0076  0.4736 -0.3209
 1048TIP3    H224636   2.829   0.159  14.548  0.3223  0.1131 -0.3030
 1049TIP3   OH224637   3.046   6.493   2.333  0.0669 -0.4587  0.3981
 1049TIP3    H124638   3.130   6.539   2.340  0.7909 -1.6605 -0.2031
 1049TIP3    H224639   3.025   6.467   2.423  0.1716  0.1210  0.5938
 1050TIP3   OH224640   4.644   0.347   0.941  0.4240  0.3304 -0.0263
 1050TIP3    H124641   4.558   0.326   0.978 -0.0608  0.0550 -1.2375
 1050TIP3    H224642   4.681   0.412   1.000  0.8757 -2.0067  2.4446
 1051TIP3   OH224643   0.068   1.067   0.707  0.0084  0.2017  0.5481
 1051TIP3    H124644   0.006   1.137   0.688 -1.3161 -0.3531  2.5152
 1051TIP3    H224645   0.132   1.107   0.765  0.1283  0.1601  0.4459
 1052TIP3   OH224646   0.532   2.194   2.728  0.5552 -0.3951 -0.4266
 1052TIP3    H124647   0.530   2.098   2.737 -1.8190 -0.5165 -1.5752
 1052TIP3    H224648   0.465   2.225   2.789 -0.4879  0.3253 -1.9070
 1053TIP3   OH224649   5.878   6.713   1.730  0.5655 -0.0872 -0.3334
 1053TIP3    H124650   5.919   6.799   1.719  1.0631 -0.0479  1.5506
 1053TIP3    H224651   5.788   6.726   1.700  0.4896  1.2438  0.3928
 1054TIP3   OH224652   1.615   1.605   5.058  0.0053  0.1641 -0.4808
 1054TIP3    H124653   1.659   1.523   5.079 -0.5520  0.1068  0.5127
 1054TIP3    H224654   1.677   1.653   5.003  1.8041  0.5698  1.7820
 1055TIP3   OH224655   1.729   0.699  14.081 -0.1327  0.7819  0.0991
 1055TIP3    H124656   1.686   0.614  14.085  0.2979  0.3958 -2.0366
 1055TIP3    H224657   1.798   0.688  14.016  1.4269  2.1597  1.4122
 1056TIP3   OH224658   0.355   0.435  12.108  0.5321 -0.1780  0.1927
 1056TIP3    H124659   0.348   0.346  12.143  1.8280 -0.2469  0.3290
 1056TIP3    H224660   0.378   0.423  12.016 -2.5266  0.0070 -0.7184
 1057TIP3   OH224661   1.215   2.330   2.012 -0.3495  0.2645 -0.4523
 1057TIP3    H124662   1.213   2.240   2.044 -0.7013 -0.4383 -2.3305
 1057TIP3    H224663   1.137   2.337   1.957 -1.5967  2.4361  1.3697
 1058TIP3   OH224664   1.705   6.414   6.071 -0.1201 -0.2318 -0.1594
 1058TIP3    H124665   1.664   6.370   5.996 -0.1750 -1.2504  0.4570
 1058TIP3    H224666   1.637   6.473   6.104 -0.1718  0.0609 -0.7554
 1059TIP3   OH224667   3.691   4.523  12.086 -0.3484  0.2151  0.6134
 1059TIP3    H124668   3.667   4.433  12.109 -0.5683 -0.0964 -0.7530
 1059TIP3    H224669   3.674   4.529  11.992  4.4914  0.0184 -0.5362
 1060TIP3   OH224670   3.211   1.344   2.975 -0.7105 -0.0165  0.5017
 1060TIP3    H124671   3.226   1.410   3.043 -0.4055 -0.8689  1.2855
 1060TIP3    H224672   3.278   1.278   2.991 -0.0875  0.1633 -1.1758
 1061TIP3   OH224673   1.618   0.977   5.732 -0.2084  0.0089  0.8516
 1061TIP3    H124674   1.579   1.061   5.706 -1.9215 -1.0217 -0.0301
 1061TIP3    H224675   1.547   0.928   5.772  0.9219 -0.8468  1.9081
 1062TIP3   OH224676   1.558   3.730   6.398 -0.6111 -0.0787 -0.0456
 1062TIP3    H124677   1.502   3.654   6.385 -0.4730 -0.2353  0.2530
 1062TIP3    H224678   1.604   3.712   6.480 -0.6820  0.3915  0.1041
 1063TIP3   OH224679   3.989   2.220  12.056 -0.1307  0.1575 -0.0852
 1063TIP3    H124680   4.021   2.185  11.973 -0.7155  0.9601 -0.6641
 1063TIP3    H224681   4.050   2.292  12.076 -0.8085  0.8766 -0.5515
 1064TIP3   OH224682   4.492   1.630   2.141 -0.2229  0.0198  0.1814
 1064TIP3    H124683   4.533   1.708   2.103 -0.8038  0.4073  0.3251
 1064TIP3    H224684   4.535   1.556   2.098  2.0339  0.3299  1.7169
 1065TIP3   OH224685   1.589   3.746  13.437 -0.2951 -0.0885  0.0155
 1065TIP3    H124686   1.498   3.739  13.463 -0.5664 -1.3064 -1.1650
 1065TIP3    H224687   1.618   3.830  13.473 -1.3909 -0.4499  1.8194
 1066TIP3   OH224688   3.176   5.102  13.629  0.0204 -0.4875 -0.3442
 1066TIP3    H124689   3.211   5.038  13.567 -0.1436 -0.8574 -0.0593
 1066TIP3    H224690   3.216   5.079  13.712  1.2292  0.7925 -0.5410
 1067TIP3   OH224691   3.573   3.339  14.095 -0.2858 -0.4577  0.1488
 1067TIP3    H124692   3.587   3.404  14.026 -3.4916 -0.5387 -0.7488
 1067TIP3    H224693   3.593   3.384  14.176  0.0006  0.8441 -0.6229
 1068TIP3   OH224694   1.636   5.769  15.529  0.0899  0.0277 -0.3066
 1068TIP3    H124695   1.699   5.765  15.601 -2.0561 -3.9156  1.6979
 1068TIP3    H224696   1.590   5.851  15.543  0.4549 -0.0980  2.2456
 1069TIP3   OH224697   6.167   0.559  13.828  0.6970  0.4635 -0.2486
 1069TIP3    H124698   6.117   0.482  13.802 -0.7362  0.8528  1.1757
 1069TIP3    H224699   6.258   0.535  13.812  0.1281 -0.3231 -2.8237
 1070TIP3   OH224700   0.054   2.965  16.435 -0.4723  0.4767  0.0472
 1070TIP3    H124701  -0.022   2.930  16.388 -1.1602  2.7326 -0.6654
 1070TIP3    H224702   0.095   3.026  16.373  1.6538 -0.2955  0.6064
 1071TIP3   OH224703   1.481   6.044  15.926  0.3017  0.5816  0.4827
 1071TIP3    H124704   1.571   6.042  15.958  1.1071  1.1308 -1.5981
 1071TIP3    H224705   1.467   6.134  15.897  0.5980 -0.3343 -3.0363
 1072TIP3   OH224706   1.172   2.728  12.859  0.2939 -0.2581 -0.5099
 1072TIP3    H124707   1.252   2.772  12.888 -0.8333  1.1669  0.6264
 1072TIP3    H224708   1.184   2.713  12.766  1.7493  0.2078 -0.4128
 1073TIP3   OH224709   1.520   0.470  14.214 -0.1383 -0.2635  0.1701
 1073TIP3    H124710   1.502   0.400  14.277 -1.1895  0.1009  0.2966
 1073TIP3    H224711   1.559   0.425  14.138  0.5917 -0.7775  0.8359
 1074TIP3   OH224712   0.790   3.683  15.036 -0.1659  0.4041  0.4613
 1074TIP3    H124713   0.711   3.664  14.986 -0.0753  1.3464 -0.0661
 1074TIP3    H224714   0.804   3.777  15.024  1.7779  0.0384 -0.5900
 1075TIP3   OH224715   0.337   0.550  15.245 -0.4659 -0.2396  0.0871
 1075TIP3    H124716   0.288   0.556  15.163  2.1648  0.6034 -1.5768
 1075TIP3    H224717   0.336   0.457  15.268 -1.1974 -0.4963 -0.9562
 1076TIP3   OH224718   5.955   4.066  10.347 -0.0736 -0.1415  0.1615
 1076TIP3    H124719   6.011   4.017  10.286 -1.4134  1.1684 -2.2643
 1076TIP3    H224720   5.908   3.999  10.396  0.9274 -1.2393 -0.3199
 1077TIP3   OH224721   3.780   6.560  13.830  0.0378  0.0583  0.0874
 1077TIP3    H124722   3.708   6.620  13.810  0.5752  0.6540 -0.1168
 1077TIP3    H224723   3.770   6.540  13.923 -1.1425 -0.9092 -0.2222
 1078TIP3   OH224724   2.647   3.887  11.852  0.1019 -0.3067  0.0243
 1078TIP3    H124725   2.661   3.809  11.800  1.6757  0.3634 -0.6091
 1078TIP3    H224726   2.651   3.959  11.789 -0.6545  0.3364  0.6918
 1079TIP3   OH224727   3.477   6.511  13.995  0.1111 -0.4761  0.1109
 1079TIP3    H124728   3.524   6.435  14.031  0.2667 -0.3297  0.2168
 1079TIP3    H224729   3.483   6.577  14.063  3.2987  1.0043 -1.4159
 1080TIP3   OH224730   2.577   4.003   0.067 -0.1668  0.0128  0.2852
 1080TIP3    H124731   2.595   3.985  -0.025 -0.1179  0.1977  0.2595
 1080TIP3    H224732   2.549   4.094   0.069  0.8623  0.3313  0.5875
 1081TIP3   OH224733   2.788   4.050   3.354 -0.4776  0.2097 -0.8230
 1081TIP3    H124734   2.816   3.967   3.315  1.7117  0.7287 -0.4928
 1081TIP3    H224735   2.781   4.110   3.281 -2.2303 -0.2380 -1.0859
 1082TIP3   OH224736   1.414   5.444   4.659  0.1431  0.0721 -0.1565
 1082TIP3    H124737   1.456   5.393   4.728  0.2721  0.7087  0.2388
 1082TIP3    H224738   1.420   5.534   4.688 -4.7942  0.1012  1.9110
 1083TIP3   OH224739   6.589   3.182   0.579 -0.3754  0.4919  0.3922
 1083TIP3    H124740   6.683   3.168   0.588 -0.1024  1.6344 -0.4694
 1083TIP3    H224741   6.578   3.277   0.574 -1.6273  0.4013  0.9169
 1084TIP3   OH224742   0.705   0.780   5.834 -0.5856  0.1832  0.5847
 1084TIP3    H124743   0.648   0.773   5.758 -0.6640 -2.2211  0.7822
 1084TIP3    H224744   0.668   0.719   5.897  1.4468 -0.5056  1.1930
 1085TIP3   OH224745   5.110   5.852  14.298 -0.0093 -0.2051  0.0291
 1085TIP3    H124746   5.051   5.804  14.357 -0.8567 -0.3507 -0.9134
 1085TIP3    H224747   5.163   5.785  14.257 -0.2399 -0.2153 -0.2562
 1086TIP3   OH224748   0.899   2.584   3.741  0.7784  0.1501 -0.2593
 1086TIP3    H124749   0.940   2.569   3.826  0.9180  0.9179 -0.1837
 1086TIP3    H224750   0.883   2.678   3.738 -0.9131 -0.1067 -0.3114
 1087TIP3   OH224751   1.736   2.658   4.938  0.7796 -0.4893  0.8700
 1087TIP3    H124752   1.752   2.572   4.899  1.2540 -0.1911  0.4055
 1087TIP3    H224753   1.696   2.638   5.023  0.9186 -1.1687  0.7822
 1088TIP3   OH224754   0.285   6.361   3.891 -0.1706 -1.0812  0.0766
 1088TIP3    H124755   0.305   6.341   3.982 -0.9770 -0.4040  0.4272
 1088TIP3    H224756   0.370   6.378   3.850  0.1163  0.1296  1.0941
 1089TIP3   OH224757   4.729   2.413  16.228 -0.0230  0.0335  0.1899
 1089TIP3    H124758   4.791   2.478  16.193  1.5017 -1.0756  0.6983
 1089TIP3    H224759   4.785   2.352  16.276 -1.4826 -1.3798  0.1366
 1090TIP3   OH224760   3.637   4.134  14.686  0.4922 -0.1574  0.8960
 1090TIP3    H124761   3.547   4.103  14.694 -0.1662  1.8162  1.8164
 1090TIP3    H224762   3.666   4.149  14.777  0.3161  2.8676  0.5699
 1091TIP3   OH224763   2.597   6.798   1.828 -0.0265 -0.0261 -0.2911
 1091TIP3    H124764   2.584   6.889   1.854  0.8729  0.5254 -1.6259
 1091TIP3    H224765   2.513   6.755   1.848 -0.8459  1.3429 -0.6246
 1092TIP3   OH224766   3.372   1.366  14.273  0.2558 -0.5844  0.1604
 1092TIP3    H124767   3.413   1.322  14.347  0.9398  0.7776  0.6283
 1092TIP3    H224768   3.442   1.376  14.208  0.7875  1.8419  1.0060
 1093TIP3   OH224769   4.960   1.653  14.350  0.1546 -0.2999 -0.2153
 1093TIP3    H124770   5.027   1.598  14.389  1.8987  0.5443 -1.8838
 1093TIP3    H224771   4.952   1.623  14.260  0.2133  1.3120 -0.7882
 1094TIP3   OH224772   1.534   1.047   2.572  0.2792 -0.2314 -0.1233
 1094TIP3    H124773   1.479   0.983   2.617  0.9374  0.9456  2.5721
 1094TIP3    H224774   1.623   1.013   2.579  0.4861  0.3531  0.1822
 1095TIP3   OH224775   0.837   1.229   3.989 -0.7133 -0.5082 -0.1723
 1095TIP3    H124776   0.914   1.281   3.966 -2.0891  1.6375 -0.2137
 1095TIP3    H224777   0.841   1.152   3.932  0.0009  0.8763 -2.0850
 1096TIP3   OH224778   0.847   3.984  11.273 -0.4437 -0.7725 -0.2679
 1096TIP3    H124779   0.940   4.001  11.256 -0.8467 -0.2467 -2.1682
 1096TIP3    H224780   0.813   4.066  11.308 -0.8179  0.1132 -2.5423
 1097TIP3   OH224781   3.354   2.190   2.756  0.0964 -0.3011 -0.3444
 1097TIP3    H124782   3.385   2.100   2.745 -1.0678 -0.6475 -0.8888
 1097TIP3    H224783   3.395   2.238   2.683 -0.5549 -0.7365 -1.0112
 1098TIP3   OH224784   3.186   3.737  12.355  0.1880  0.6141 -0.0636
 1098TIP3    H124785   3.112   3.790  12.385 -0.5301  0.1994 -1.0217
 1098TIP3    H224786   3.156   3.701  12.272  0.5417 -1.5116  0.6802
 1099TIP3   OH224787   3.430   3.029   2.771  0.0956 -0.3651 -0.0511
 1099TIP3    H124788   3.483   3.104   2.797 -0.7124  0.6373 -1.1608
 1099TIP3    H224789   3.395   3.054   2.685 -2.1393 -0.9720  0.6187
 1100TIP3   OH224790   3.304   0.331   3.390  1.0406 -0.4999 -0.3826
 1100TIP3    H124791   3.388   0.290   3.367  0.7029 -0.5150 -1.6665
 1100TIP3    H224792   3.328   0.416   3.426  1.6043 -0.5294 -0.6740
 1101TIP3   OH224793   1.837   6.474   4.086 -0.0939  0.4661  0.3182
 1101TIP3    H124794   1.850   6.414   4.160 -0.1245  0.1341  0.0529
 1101TIP3    H224795   1.853   6.421   4.009  0.8008  1.0212  0.0983
 1102TIP3   OH224796   6.017   0.393   2.788 -0.3495 -0.3645 -0.1903
 1102TIP3    H124797   6.088   0.405   2.726 -0.5332  0.3350 -0.2673
 1102TIP3    H224798   5.954   0.462   2.767 -0.3464 -0.0216  0.8605
 1103TIP3   OH224799   0.087   5.509  14.559  0.7171  0.2081 -0.0739
 1103TIP3    H124800   0.095   5.444  14.630 -0.3899 -0.0149 -0.1294
 1103TIP3    H224801   0.115   5.591  14.599  0.9308 -0.0716  0.3704
 1104TIP3   OH224802   2.225   0.690  16.494 -0.4190 -0.0069  0.3624
 1104TIP3    H124803   2.235   0.595  16.497  0.9693  0.1215  0.2067
 1104TIP3    H224804   2.143   0.704  16.447  0.5002 -1.0892 -1.7054
 1105TIP3   OH224805   3.224   0.220   2.413  0.2172 -0.1015 -0.0419
 1105TIP3    H124806   3.240   0.312   2.436  0.3090  0.2926 -1.5803
 1105TIP3    H224807   3.311   0.185   2.393  0.0753 -0.2650 -0.3750
 1106TIP3   OH224808   6.363   4.302  14.049  0.2227  0.4704  0.2135
 1106TIP3    H124809   6.367   4.385  14.002  0.7105  0.4557  0.2203
 1106TIP3    H224810   6.421   4.315  14.124  1.9093 -0.5424 -0.8579
 1107TIP3   OH224811   3.006   6.489  11.746  0.0422 -0.6764  0.2429
 1107TIP3    H124812   2.973   6.488  11.836  2.6328  0.4236  1.3183
 1107TIP3    H224813   2.990   6.401  11.713 -0.0414 -1.4230  2.1688
 1108TIP3   OH224814   6.128   4.782   3.187  0.2289 -0.7710  0.3806
 1108TIP3    H124815   6.061   4.723   3.151 -1.4639  1.4290 -0.3240
 1108TIP3    H224816   6.142   4.847   3.118 -0.1210  1.2719  2.1327
 1109TIP3   OH224817   1.416   3.544   3.892  0.1178 -0.4420 -0.6470
 1109TIP3    H124818   1.440   3.548   3.799  1.0613  1.2884 -0.3768
 1109TIP3    H224819   1.326   3.512   3.892  0.6706 -2.1468 -2.0352
 1110TIP3   OH224820   3.559   2.941   5.030 -0.3818 -0.2306  0.1997
 1110TIP3    H124821   3.510   2.987   5.099  0.5578  0.5276  0.3866
 1110TIP3    H224822   3.629   2.895   5.076  0.2935  0.3324 -0.2257
 1111TIP3   OH224823   2.105   0.071  13.651 -0.0497  0.1549 -0.2340
 1111TIP3    H124824   2.151   0.107  13.576  0.3718 -1.1035 -0.6103
 1111TIP3    H224825   2.174   0.060  13.717 -0.1539 -0.0363 -0.1565
 1112TIP3   OH224826   4.757   2.087  16.326  0.0768  0.2763 -0.1268
 1112TIP3    H124827   4.813   2.155  16.364 -0.9108  0.8542  0.3212
 1112TIP3    H224828   4.720   2.042  16.402  0.3917 -0.5027 -0.4208
 1113TIP3   OH224829   3.511   0.296   5.848 -0.5130  0.3565  0.3165
 1113TIP3    H124830   3.527   0.379   5.892 -0.4424  1.4041 -1.5658
 1113TIP3    H224831   3.553   0.231   5.903 -0.9504  1.4963  2.0766
 1114TIP3   OH224832   2.625   2.947   1.585  0.3120 -0.0827  0.1024
 1114TIP3    H124833   2.535   2.965   1.558  0.7939  1.7566 -0.4013
 1114TIP3    H224834   2.616   2.895   1.665 -1.2036  0.7683  0.5254
 1115TIP3   OH224835   2.439   1.566   3.720 -0.2900 -0.5332 -0.1629
 1115TIP3    H124836   2.466   1.631   3.655 -0.9011 -1.1993 -1.1252
 1115TIP3    H224837   2.394   1.499   3.668 -0.4886 -1.2572  0.9212
 1116TIP3   OH224838   0.597   0.930  16.822 -0.0856 -0.2027 -0.0259
 1116TIP3    H124839   0.575   0.851  16.774 -0.3391 -0.6423  0.7796
 1116TIP3    H224840   0.569   0.911  16.912  0.4771  0.5430  0.3140
 1117TIP3   OH224841   1.618   6.009  15.236  0.0377 -0.1005 -0.6853
 1117TIP3    H124842   1.599   5.962  15.317  0.3216 -0.1171 -0.6291
 1117TIP3    H224843   1.557   5.971  15.172 -1.1608  0.8756 -0.1541
 1118TIP3   OH224844   4.042   2.233   5.883 -0.5412 -0.4308 -0.0392
 1118TIP3    H124845   3.949   2.214   5.892 -0.5166 -1.2691 -1.3484
 1118TIP3    H224846   4.053   2.318   5.926 -1.5675 -1.0882  1.6573
 1119TIP3   OH224847   2.912   1.591   5.424 -0.5812 -0.1304 -0.5209
 1119TIP3    H124848   2.945   1.609   5.336 -1.1339  0.7587 -0.5597
 1119TIP3    H224849   2.879   1.675   5.455 -0.5642 -0.4757  0.4654
 1120TIP3   OH224850   6.314   3.797  14.035 -0.3080  0.7860  0.3271
 1120TIP3    H124851   6.382   3.773  13.971 -1.9581 -3.3329 -0.1686
 1120TIP3    H224852   6.238   3.820  13.982 -1.3610 -1.6057  0.6740
 1121TIP3   OH224853   0.331   6.388  15.309  0.4878 -0.0147  0.2361
 1121TIP3    H124854   0.273   6.414  15.381 -0.6227 -2.3967  0.2838
 1121TIP3    H224855   0.273   6.350  15.244  1.8425 -1.0102 -0.4315
 1122TIP3   OH224856   5.727   6.806  16.712 -0.8068  0.1626 -0.1127
 1122TIP3    H124857   5.790   6.875  16.693 -0.4745  0.0093  0.4325
 1122TIP3    H224858   5.714   6.810  16.806 -1.4034  0.0111 -0.1830
 1123TIP3   OH224859   5.834   4.282   4.124  0.3365 -0.0658 -0.0972
 1123TIP3    H124860   5.768   4.339   4.084  0.7749  1.4701  1.2954
 1123TIP3    H224861   5.901   4.272   4.056  1.2231  2.7392  0.2531
 1124TIP3   OH224862   2.182   3.357   4.583  0.1768  0.1077  0.0107
 1124TIP3    H124863   2.228   3.397   4.657  0.2342 -0.0407  0.0561
 1124TIP3    H224864   2.191   3.263   4.598  0.0520  0.0783 -0.1013
 1125TIP3   OH224865   6.369   3.292  14.546 -0.2678  0.6650 -0.2730
 1125TIP3    H124866   6.324   3.212  14.572 -0.6473  0.7093 -0.7724
 1125TIP3    H224867   6.379   3.284  14.451  2.2204 -0.0756  0.0007
 1126TIP3   OH224868   5.156   6.008  16.503 -0.5041  0.3246  0.0925
 1126TIP3    H124869   5.162   6.009  16.408  2.7544  0.7121  0.2133
 1126TIP3    H224870   5.117   5.923  16.524 -1.9295  0.5114 -1.5285
 1127TIP3   OH224871   6.089   5.147   3.854  0.0890  0.3793 -0.5102
 1127TIP3    H124872   6.113   5.240   3.862  1.2702 -0.0422  1.8057
 1127TIP3    H224873   6.105   5.126   3.762 -0.4583  2.5108 -1.1613
 1128TIP3   OH224874   6.809   2.390  12.117 -0.0957 -0.4735 -0.2888
 1128TIP3    H124875   6.765   2.453  12.174  0.6252 -0.7492  0.6019
 1128TIP3    H224876   6.822   2.437  12.035  0.1168  0.4264  0.2472
 1129TIP3   OH224877   1.587   0.866  12.800  0.4531  0.4683 -0.1648
 1129TIP3    H124878   1.632   0.785  12.775 -0.7862  0.1494 -1.4373
 1129TIP3    H224879   1.508   0.837  12.845 -0.7323  0.8885 -1.8768
 1130TIP3   OH224880   2.145   1.289  13.468 -0.1686 -0.2481 -0.5799
 1130TIP3    H124881   2.078   1.286  13.400 -1.6188  0.2183  0.7861
 1130TIP3    H224882   2.127   1.369  13.517  1.2191 -0.2551  0.0121
 1131TIP3   OH224883   0.644   4.171   0.234  0.3227  0.3189  0.3027
 1131TIP3    H124884   0.689   4.245   0.275  0.6753  0.1683  0.1901
 1131TIP3    H224885   0.693   4.156   0.153  0.7530 -0.5539  0.7075
 1132TIP3   OH224886   1.117   0.809   0.835 -0.1112 -0.6970 -0.5925
 1132TIP3    H124887   1.080   0.897   0.843 -0.1399 -0.7714  0.1487
 1132TIP3    H224888   1.210   0.820   0.850 -0.3531 -1.0406  1.4787
 1133TIP3   OH224889   2.826   5.804   4.461 -0.3295  0.2048  0.4763
 1133TIP3    H124890   2.848   5.751   4.384  1.0342  0.1824  0.8494
 1133TIP3    H224891   2.906   5.854   4.479 -1.3674  1.9133  0.5358
 1134TIP3   OH224892   5.240   2.507  14.950  0.1968  0.4036 -0.3081
 1134TIP3    H124893   5.239   2.560  15.029 -1.2587 -1.5649  1.1075
 1134TIP3    H224894   5.315   2.448  14.961 -0.8893 -0.9150  0.4379
 1135TIP3   OH224895   5.788   5.357  11.971 -0.2841  0.1543  0.1892
 1135TIP3    H124896   5.765   5.399  12.054 -1.4871 -0.7367  0.3444
 1135TIP3    H224897   5.761   5.419  11.904 -0.1561  0.4883  0.4438
 1136TIP3   OH224898   2.446   2.617   2.554  0.1641 -0.1829 -0.5948
 1136TIP3    H124899   2.452   2.530   2.514 -1.1675 -0.3297 -0.5055
 1136TIP3    H224900   2.391   2.668   2.493 -0.8993 -0.0665  0.4321
 1137TIP3   OH224901   2.637   0.205  16.877  0.1943  0.0267 -0.6814
 1137TIP3    H124902   2.639   0.201  16.781  2.4123 -1.2317 -0.6523
 1137TIP3    H224903   2.728   0.195  16.903 -0.3658  0.3666  1.5858
 1138TIP3   OH224904   6.392   4.776  17.034 -0.0049  0.0987 -0.4598
 1138TIP3    H124905   6.410   4.693  17.077 -1.1624 -0.7991 -1.6260
 1138TIP3    H224906   6.327   4.819  17.089 -2.1375 -1.4271 -1.6351
 1139TIP3   OH224907   1.010   3.215   6.099  0.0944  0.2202  0.6477
 1139TIP3    H124908   1.057   3.182   6.175 -0.5480 -2.5652 -0.0548
 1139TIP3    H224909   0.918   3.216   6.126 -0.2636 -1.7329 -0.2836
 1140TIP3   OH224910   1.817   5.124  12.091  0.1611 -0.5426  0.1182
 1140TIP3    H124911   1.891   5.152  12.037 -1.3132 -0.7697 -2.1693
 1140TIP3    H224912   1.831   5.030  12.103  0.7857 -0.3927  0.6689
 1141TIP3   OH224913   1.369   5.826  11.593 -0.0022  0.2108  0.1481
 1141TIP3    H124914   1.310   5.898  11.615 -0.7119 -0.6964  1.3410
 1141TIP3    H224915   1.315   5.748  11.603  0.7640 -0.4917 -1.1055
 1142TIP3   OH224916   4.862   3.916  12.859  0.0787 -0.0484  0.3215
 1142TIP3    H124917   4.894   3.873  12.938 -0.2718 -1.2270 -0.1586
 1142TIP3    H224918   4.941   3.937  12.809  0.2109 -0.9055  0.1684
 1143TIP3   OH224919   1.752   4.898   0.504  0.5438  0.4604 -0.1374
 1143TIP3    H124920   1.815   4.844   0.551 -0.0384 -1.5328 -1.5512
 1143TIP3    H224921   1.806   4.963   0.459  1.1585  2.0760  2.6461
 1144TIP3   OH224922   4.375   6.708  14.906  0.6004  1.2598 -0.4021
 1144TIP3    H124923   4.337   6.795  14.918 -1.6492  0.1994  0.8074
 1144TIP3    H224924   4.333   6.654  14.973  3.1222 -0.4370 -0.0377
 1145TIP3   OH224925   2.073   6.740  15.591 -0.0706  0.3002  0.5152
 1145TIP3    H124926   2.106   6.741  15.501 -0.0217  1.0188  0.5340
 1145TIP3    H224927   2.064   6.833  15.614  0.7960  0.1413  1.5683
 1146TIP3   OH224928   5.654   5.690   5.996  0.3561  0.1816  0.1684
 1146TIP3    H124929   5.623   5.745   5.925 -0.4561 -0.2176  0.1992
 1146TIP3    H224930   5.579   5.635   6.018  0.3120  0.8773  1.9034
 1147TIP3   OH224931   4.302   3.572   1.856  0.3490  0.3157 -0.0346
 1147TIP3    H124932   4.261   3.485   1.853 -1.7606  1.2702 -0.0349
 1147TIP3    H224933   4.252   3.620   1.922 -0.4080  2.4378 -2.0502
 1148TIP3   OH224934   4.571   0.979   4.270 -0.6221 -0.3633  0.1949
 1148TIP3    H124935   4.570   1.013   4.180  2.7572 -1.5333 -0.4409
 1148TIP3    H224936   4.513   0.904   4.268 -0.6925 -0.2989 -1.0000
 1149TIP3   OH224937   1.714   0.507  15.044  0.8846 -0.4648 -0.3308
 1149TIP3    H124938   1.802   0.529  15.074  1.5685 -2.3255 -0.8461
 1149TIP3    H224939   1.665   0.491  15.125  0.3580  2.6050  0.0743
 1150TIP3   OH224940   0.252   6.819  12.124  0.4422 -0.1460  0.3487
 1150TIP3    H124941   0.243   6.836  12.217  0.2584 -2.5337  0.8408
 1150TIP3    H224942   0.177   6.762  12.102  1.2570 -0.8008 -0.9042
 1151TIP3   OH224943   4.523   0.259  11.514  0.1871  0.0320 -0.0984
 1151TIP3    H124944   4.562   0.346  11.512 -0.3283  0.2635 -0.5344
 1151TIP3    H224945   4.567   0.214  11.586 -0.5055  1.1035  1.0356
 1152TIP3   OH224946   3.396   2.924   0.163  0.2972 -0.2116 -0.6174
 1152TIP3    H124947   3.335   2.935   0.236  1.0430  0.9850 -0.1511
 1152TIP3    H224948   3.378   2.998   0.105  0.5381 -0.4796 -1.0448
 1153TIP3   OH224949   1.211   6.721   5.167  1.0939  0.2661  0.4263
 1153TIP3    H124950   1.272   6.662   5.123 -0.1595  0.0167 -1.0755
 1153TIP3    H224951   1.139   6.664   5.196  0.2542  0.9269 -0.3125
 1154TIP3   OH224952   3.241   5.754   3.584  0.3141 -0.5025 -0.3233
 1154TIP3    H124953   3.222   5.760   3.678 -0.6181 -0.5374 -0.5069
 1154TIP3    H224954   3.268   5.843   3.560  0.8301 -0.5577  0.0294
 1155TIP3   OH224955   4.937   4.887  11.554  0.0508 -0.2616 -0.1404
 1155TIP3    H124956   4.844   4.906  11.566  0.0688 -0.1643 -0.1541
 1155TIP3    H224957   4.949   4.801  11.595  0.4234  0.7334  1.9538
 1156TIP3   OH224958   4.475   1.869  13.598 -0.0250 -0.2683  0.3021
 1156TIP3    H124959   4.408   1.918  13.646 -0.1816  0.2744 -0.4491
 1156TIP3    H224960   4.553   1.925  13.602 -0.2839  0.1949 -0.7982
 1157TIP3   OH224961   0.225   1.656   5.360  0.4132 -0.1336 -0.2834
 1157TIP3    H124962   0.138   1.628   5.391 -0.8317  1.2572 -2.3050
 1157TIP3    H224963   0.221   1.645   5.265  1.7131  1.8412 -0.6149
 1158TIP3   OH224964   5.303   0.089  13.294 -0.4536 -0.2830 -0.0184
 1158TIP3    H124965   5.353   0.152  13.242  1.6053 -1.0888  0.8641
 1158TIP3    H224966   5.291   0.014  13.236 -0.0959 -0.3047 -0.0720
 1159TIP3   OH224967   1.023   0.799  14.241  0.1722 -0.8440  0.0283
 1159TIP3    H124968   1.083   0.843  14.180 -1.4605  1.4800 -0.0246
 1159TIP3    H224969   0.974   0.738  14.186  0.4202 -0.5754 -0.5061
 1160TIP3   OH224970   0.721   3.968  10.621  0.1730  0.3691  0.4244
 1160TIP3    H124971   0.795   4.029  10.625 -0.2755  0.8506  1.7590
 1160TIP3    H224972   0.751   3.892  10.672  0.9368 -0.8257 -1.6567
 1161TIP3   OH224973   2.745   6.176  10.734 -0.2952 -0.8906  0.7182
 1161TIP3    H124974   2.696   6.106  10.691  1.2268 -0.3560 -2.0924
 1161TIP3    H224975   2.836   6.161  10.709  0.1113  2.0215  0.0589
 1162TIP3   OH224976   6.758   0.772  11.446  0.0838 -0.0808  0.1173
 1162TIP3    H124977   6.771   0.849  11.391 -1.5183 -0.3492 -0.6957
 1162TIP3    H224978   6.847   0.740  11.463  0.7035  1.0866 -0.7457
 1163TIP3   OH224979   0.902   4.149  14.870  0.1284 -0.0125  0.3616
 1163TIP3    H124980   0.888   4.172  14.779  0.2084  0.3878  0.4493
 1163TIP3    H224981   0.822   4.103  14.896  0.1529 -0.2298  0.0602
 1164TIP3   OH224982   5.426   0.498   3.814 -0.2483 -0.1351 -0.2577
 1164TIP3    H124983   5.352   0.461   3.862 -2.2027  0.6198 -2.5014
 1164TIP3    H224984   5.454   0.573   3.867 -0.4955 -0.9352  1.0390
 1165TIP3   OH224985   5.174   5.382   1.634  0.2886  0.0638 -0.3049
 1165TIP3    H124986   5.168   5.439   1.558  0.5591 -2.7035 -2.5453
 1165TIP3    H224987   5.089   5.338   1.638 -0.1108  0.8903  1.7055
 1166TIP3   OH224988   2.711   0.947  10.726 -0.1615 -0.6256 -0.6622
 1166TIP3    H124989   2.621   0.936  10.755  0.1105 -0.1954  0.3889
 1166TIP3    H224990   2.739   1.030  10.764  1.5862 -2.0901  1.5021
 1167TIP3   OH224991   1.288   2.461  12.493 -0.4002  0.3082 -0.0421
 1167TIP3    H124992   1.373   2.418  12.505  0.0674  1.3970  0.7955
 1167TIP3    H224993   1.246   2.412  12.423  1.2789  0.2803 -1.0938
 1168TIP3   OH224994   3.811   0.176   0.423 -0.7642  0.3320 -0.2724
 1168TIP3    H124995   3.883   0.171   0.485 -0.6303  0.7900 -0.3875
 1168TIP3    H224996   3.842   0.129   0.346 -0.5007  0.7209 -0.4055
 1169TIP3   OH224997   4.783   5.712  12.834 -0.7566 -0.3714 -0.2311
 1169TIP3    H124998   4.830   5.636  12.800  0.1484 -1.1838  2.5942
 1169TIP3    H224999   4.851   5.777  12.852 -0.9202 -0.6258  1.5409
 1170TIP3   OH225000   2.121   2.190  15.508  0.4912 -0.6521 -0.4886
 1170TIP3    H125001   2.214   2.170  15.520  0.8738  1.2666  0.1259
 1170TIP3    H225002   2.116   2.236  15.425  0.1135 -0.5509 -0.4135
 1171TIP3   OH225003   5.219   3.258   4.398 -0.5983 -0.4761  0.1461
 1171TIP3    H125004   5.212   3.353   4.386 -0.0534 -0.5531 -0.8400
 1171TIP3    H225005   5.276   3.229   4.327 -1.7653 -1.7248 -0.3019
 1172TIP3   OH225006   4.492   5.106  13.085 -0.8863 -0.2031  0.0467
 1172TIP3    H125007   4.400   5.079  13.083 -1.3421  1.2784 -1.2206
 1172TIP3    H225008   4.497   5.177  13.021  0.9498  0.3724  0.7746
 1173TIP3   OH225009   0.803   4.760   2.714 -1.0098 -0.5922  0.7486
 1173TIP3    H125010   0.792   4.855   2.708  0.7820 -0.4220 -0.7092
 1173TIP3    H225011   0.814   4.743   2.808 -1.0918  0.6722  1.0063
 1174TIP3   OH225012   4.713   5.618  13.540  0.0076 -0.5633 -0.0315
 1174TIP3    H125013   4.661   5.669  13.479 -2.9391 -0.2272  2.5054
 1174TIP3    H225014   4.652   5.554  13.577  1.3179 -0.2470  3.0574
 1175TIP3   OH225015   1.901   1.983   5.773  0.2519 -0.1223  0.1949
 1175TIP3    H125016   1.806   1.993   5.773  0.2216 -0.4003  0.1504
 1175TIP3    H225017   1.934   2.067   5.804 -0.0291 -0.2056  0.7300
 1176TIP3   OH225018   1.439   0.081   6.361  0.3121 -0.2602  0.4349
 1176TIP3    H125019   1.369   0.044   6.414  1.0855 -1.7070  0.4989
 1176TIP3    H225020   1.519   0.046   6.399  0.9756 -0.0328 -0.7009
 1177TIP3   OH225021   6.335   6.548   3.063  0.5713  0.8215 -0.3185
 1177TIP3    H125022   6.316   6.574   2.973  0.0192  0.6364 -0.2642
 1177TIP3    H225023   6.250   6.517   3.096  0.8011  0.7700  0.2207
 1178TIP3   OH225024   1.585   6.045  13.061 -0.4730 -0.1365 -0.0834
 1178TIP3    H125025   1.666   6.082  13.026 -1.3758  0.8663 -1.2171
 1178TIP3    H225026   1.549   5.993  12.989  0.4234 -2.7806  1.2524
 1179TIP3   OH225027   3.303   5.613  13.997  0.6897 -0.3133  0.2984
 1179TIP3    H125028   3.321   5.519  13.997 -0.2379 -0.5113 -0.3484
 1179TIP3    H225029   3.377   5.652  13.951  1.0708 -0.7346  0.5571
 1180TIP3   OH225030   0.501   1.170   6.534 -0.0368 -0.1266  0.5823
 1180TIP3    H125031   0.425   1.122   6.501 -0.2023 -0.0961  0.9095
 1180TIP3    H225032   0.463   1.246   6.578  0.1760 -0.1831  0.8606
 1181TIP3   OH225033   0.670   5.770   0.477 -0.0491 -0.4383 -0.1145
 1181TIP3    H125034   0.656   5.850   0.528  0.9620 -0.4408  0.1852
 1181TIP3    H225035   0.752   5.785   0.431 -0.2999 -0.9606 -0.7495
 1182TIP3   OH225036   2.834   4.453   2.414 -0.6240 -0.0775  0.2808
 1182TIP3    H125037   2.922   4.424   2.437 -0.6297 -0.6309 -0.3585
 1182TIP3    H225038   2.779   4.375   2.427 -0.9638  0.1661  0.3325
 1183TIP3   OH225039   4.500   6.248  15.765  0.1606 -0.1159  0.3013
 1183TIP3    H125040   4.593   6.222  15.767  0.0503 -0.5716 -0.3452
 1183TIP3    H225041   4.474   6.237  15.674 -0.7264 -0.6873  0.6147
 1184TIP3   OH225042   6.183   3.187   3.744 -0.2361  0.5882  0.0170
 1184TIP3    H125043   6.185   3.166   3.651  0.8263 -2.1074  0.5551
 1184TIP3    H225044   6.090   3.189   3.767 -0.4615 -1.5485 -0.5868
 1185TIP3   OH225045   2.557   6.489  11.374 -0.4933 -0.9121  0.3459
 1185TIP3    H125046   2.472   6.533  11.382  0.7398  2.7834 -3.2595
 1185TIP3    H225047   2.549   6.435  11.295  0.6443  0.0216 -0.4338
 1186TIP3   OH225048   2.842   0.920  13.502  0.2359  0.5936  0.3066
 1186TIP3    H125049   2.873   0.950  13.587  1.3578 -0.9427  0.4863
 1186TIP3    H225050   2.918   0.877  13.463 -1.1861 -1.9492  0.1154
 1187TIP3   OH225051   6.243   2.351   4.253  0.0402  0.1735  0.1478
 1187TIP3    H125052   6.256   2.287   4.183  0.5014  0.6815 -0.2368
 1187TIP3    H225053   6.317   2.336   4.312 -0.6223 -0.6023  0.8156
 1188TIP3   OH225054   1.967   5.230  11.184 -0.2061  0.1536  0.0553
 1188TIP3    H125055   1.946   5.308  11.235 -0.1542  0.6191 -0.6202
 1188TIP3    H225056   1.934   5.250  11.096 -0.7554 -0.8439  0.0301
 1189TIP3   OH225057   1.954   3.968  12.195 -0.1110  0.1633 -0.3401
 1189TIP3    H125058   1.865   3.986  12.166 -0.0644  1.5976  0.3265
 1189TIP3    H225059   2.007   4.036  12.152  0.3653  0.5134  0.7797
 1190TIP3   OH225060   0.268   3.134   1.445 -0.4851 -0.0511 -0.5095
 1190TIP3    H125061   0.233   3.207   1.394  1.4287 -0.9776 -3.3842
 1190TIP3    H225062   0.361   3.154   1.455 -0.7223 -0.0023  2.6817
 1191TIP3   OH225063   5.094   6.242   4.994  0.1863  0.3611  0.0100
 1191TIP3    H125064   5.075   6.152   5.020  2.0797 -0.5486 -1.4811
 1191TIP3    H225065   5.085   6.242   4.899  3.7799  0.6797 -0.4825
 1192TIP3   OH225066   1.273   1.520  16.569 -0.1083  0.0175 -0.3622
 1192TIP3    H125067   1.189   1.550  16.605 -0.7534  0.4635 -2.1064
 1192TIP3    H225068   1.338   1.546  16.634 -1.1277  1.3953  0.1567
 1193TIP3   OH225069   2.693   6.391   4.562  0.0357  0.3627  0.1547
 1193TIP3    H125070   2.673   6.445   4.486  2.2140  0.8652 -0.1407
 1193TIP3    H225071   2.782   6.359   4.546  0.1702 -0.3278  2.0292
 1194TIP3   OH225072   3.167   3.610  16.391  0.1458  0.3334  0.5615
 1194TIP3    H125073   3.096   3.621  16.327  2.0391 -0.6062 -1.8797
 1194TIP3    H225074   3.213   3.694  16.389  0.9221 -0.0900 -0.3148
 1195TIP3   OH225075   6.255   4.498   2.878  0.2996  0.1325  0.1608
 1195TIP3    H125076   6.285   4.410   2.853  0.0301  0.3282 -0.9103
 1195TIP3    H225077   6.237   4.491   2.972  1.7018 -0.5477  0.4176
 1196TIP3   OH225078   5.605   6.158   5.407  0.8766  0.3485  0.2080
 1196TIP3    H125079   5.606   6.093   5.477 -1.5140 -0.6570 -0.5773
 1196TIP3    H225080   5.596   6.242   5.451  0.7421 -0.1473  1.1348
 1197TIP3   OH225081   3.228   6.873  14.540 -0.0733  0.0320 -0.0684
 1197TIP3    H125082   3.323   6.874  14.552  0.0185 -0.4354 -0.7363
 1197TIP3    H225083   3.215   6.843  14.450 -0.8292  0.8663 -0.2499
 1198TIP3   OH225084   2.057   1.581  16.582  0.3552  0.9788 -0.4227
 1198TIP3    H125085   2.145   1.552  16.559  0.9651  1.8169  0.7518
 1198TIP3    H225086   2.043   1.660  16.530 -0.3881 -0.0472 -1.8583
 1199TIP3   OH225087   6.451   4.791  11.100 -0.3470  0.4538  0.1925
 1199TIP3    H125088   6.379   4.855  11.100  0.2660  1.1668 -0.3632
 1199TIP3    H225089   6.489   4.798  11.012 -0.0956 -0.4887  0.2187
 1200TIP3   OH225090   2.008   3.810  15.235  0.2426 -0.0677 -0.3564
 1200TIP3    H125091   2.019   3.755  15.313 -0.0918  0.0202 -0.2447
 1200TIP3    H225092   1.933   3.772  15.190  0.2315  0.0821 -0.4630
 1201TIP3   OH225093   1.917   0.421  14.310  0.7843  0.0591 -0.1008
 1201TIP3    H125094   1.872   0.354  14.259  1.2449 -0.0663 -0.3504
 1201TIP3    H225095   2.008   0.389  14.316  0.6414 -0.1761  1.1969
 1202TIP3   OH225096   6.794   2.087  13.686 -0.3532 -0.1577 -0.2978
 1202TIP3    H125097   6.807   2.007  13.737  0.1715  0.4700  0.6016
 1202TIP3    H225098   6.705   2.079  13.650 -0.7568 -0.6241  0.7518
 1203TIP3   OH225099   2.622   0.405  16.006 -0.4469  0.1432  0.2311
 1203TIP3    H125100   2.710   0.439  16.025  0.2763 -0.4814 -1.7266
 1203TIP3    H225101   2.564   0.457  16.060  1.2256 -0.3193  2.6547
 1204TIP3   OH225102   1.715   5.725  16.576  0.1650 -0.3157 -0.2393
 1204TIP3    H125103   1.680   5.808  16.543  0.9022 -0.4668 -1.4507
 1204TIP3    H225104   1.656   5.701  16.648  0.1855  1.4597  0.4157
 1205TIP3   OH225105   5.087   0.381  16.636  0.2859 -0.4445  0.4334
 1205TIP3    H125106   5.159   0.335  16.593 -0.5915 -0.8851 -0.5919
 1205TIP3    H225107   5.012   0.323  16.626 -0.0257 -0.4278  2.3139
 1206TIP3   OH225108   5.220   5.412  15.941  0.1735  0.5101  0.8793
 1206TIP3    H125109   5.220   5.507  15.951 -2.3061  0.7346 -0.5922
 1206TIP3    H225110   5.160   5.380  16.009  0.4945  0.0396  0.9489
 1207TIP3   OH225111   2.999   5.649   3.462 -0.3781 -0.7951  0.3556
 1207TIP3    H125112   3.043   5.591   3.400  0.3001 -0.1518  0.2271
 1207TIP3    H225113   3.070   5.696   3.506 -0.9109  1.4824 -1.0108
 1208TIP3   OH225114   1.806   4.956  10.340 -0.6804 -0.3790  0.0349
 1208TIP3    H125115   1.802   4.867  10.305 -1.0171 -0.6002  0.6222
 1208TIP3    H225116   1.875   4.952  10.406  2.0401  0.7401 -2.5143
 1209TIP3   OH225117   4.323   2.139  16.357 -0.1601 -0.7868  0.4161
 1209TIP3    H125118   4.376   2.086  16.297 -0.9688 -0.8379 -0.2758
 1209TIP3    H225119   4.376   2.218  16.372  0.1940 -0.9154 -0.1117
 1210TIP3   OH225120   4.087   1.880  10.306 -0.2310 -0.5922 -0.2574
 1210TIP3    H125121   4.017   1.863  10.369  0.4417 -1.6845  0.2187
 1210TIP3    H225122   4.068   1.822  10.232 -0.2614 -0.2980 -0.4870
 1211TIP3   OH225123   0.435   6.208   1.053  0.3988  0.3981  0.4879
 1211TIP3    H125124   0.368   6.193   1.119  0.3046 -1.0288  0.0866
 1211TIP3    H225125   0.407   6.156   0.978  0.9805  1.2810 -0.3675
 1212TIP3   OH225126   2.028   0.921  16.503 -0.0755 -0.0648 -0.2169
 1212TIP3    H125127   1.975   0.872  16.441 -1.4308 -0.5321  1.2217
 1212TIP3    H225128   2.054   1.000  16.456 -1.6794 -0.0484 -1.1442
 1213TIP3   OH225129   6.231   0.091   3.701 -0.0967 -0.2079  0.0590
 1213TIP3    H125130   6.230   0.018   3.763  0.1082  0.1784  0.5161
 1213TIP3    H225131   6.140   0.096   3.670  0.1544 -1.4770 -0.9504
 1214TIP3   OH225132   6.133   2.110   4.055 -0.0125 -0.4200  0.4305
 1214TIP3    H125133   6.062   2.067   4.007  0.6739  1.6162 -2.7504
 1214TIP3    H225134   6.207   2.050   4.045 -0.1541 -0.4947 -0.2612
 1215TIP3   OH225135   6.263   3.807  16.991  0.4076 -0.5467 -0.1422
 1215TIP3    H125136   6.186   3.824  16.937  1.1028 -0.3608 -1.0932
 1215TIP3    H225137   6.300   3.727  16.955  0.5899 -0.7107  0.4020
 1216TIP3   OH225138   5.905   0.103   0.987  0.2943  0.0795  0.0408
 1216TIP3    H125139   5.980   0.114   0.928  1.0522 -1.3618  0.6848
 1216TIP3    H225140   5.901   0.186   1.036  1.1492  0.3675 -0.3512
 1217TIP3   OH225141   6.050   2.857  11.953 -0.3605  0.0623  0.1925
 1217TIP3    H125142   6.043   2.832  12.046 -1.1969  0.7893  0.3394
 1217TIP3    H225143   6.126   2.808  11.921 -2.1454 -3.0601  0.3319
 1218TIP3   OH225144   2.079   5.876   0.732 -0.6202 -0.5065 -0.6500
 1218TIP3    H125145   2.172   5.856   0.743 -0.9668 -2.5851 -1.0658
 1218TIP3    H225146   2.044   5.875   0.821 -0.1816  0.7439 -0.4494
 1219TIP3   OH225147   0.009   4.532  11.841  0.5051 -0.3674  0.5146
 1219TIP3    H125148   0.075   4.587  11.882  0.5255 -0.1859  0.2422
 1219TIP3    H225149  -0.055   4.515  11.911  0.8619 -0.5878  0.7912
 1220TIP3   OH225150   2.665   5.964  11.857 -0.4280  0.1283  0.5479
 1220TIP3    H125151   2.657   5.869  11.852  0.0757  0.1180 -0.2236
 1220TIP3    H225152   2.760   5.980  11.857 -0.5062  0.6733 -0.4354
 1221TIP3   OH225153   0.351   0.896   4.760 -0.5935  0.5566  0.1120
 1221TIP3    H125154   0.327   0.927   4.672 -3.0853  0.3495  0.6426
 1221TIP3    H225155   0.360   0.976   4.812  1.2314  0.7004 -0.3460
 1222TIP3   OH225156   5.595   3.611   1.253 -0.2338 -0.0034 -0.1253
 1222TIP3    H125157   5.516   3.618   1.307 -0.6516 -0.8113 -0.6089
 1222TIP3    H225158   5.566   3.634   1.165 -0.0032 -0.6036 -0.3632
 1223TIP3   OH225159   6.034   1.030  13.631 -0.0482  0.2393 -0.1146
 1223TIP3    H125160   6.097   1.045  13.561  2.2474  0.4914  1.8391
 1223TIP3    H225161   6.060   0.946  13.669  2.6357  2.4826  3.8603
 1224TIP3   OH225162   2.082   3.000  11.209 -0.0047  0.0235  0.3907
 1224TIP3    H125163   2.040   2.995  11.295 -1.8085  0.4041 -0.4260
 1224TIP3    H225164   2.135   3.080  11.212 -0.2769  0.1854  1.0411
 1225TIP3   OH225165   0.831   4.123  13.729 -0.1344 -0.3669 -0.0215
 1225TIP3    H125166   0.829   4.194  13.793  1.6688 -0.5879  0.3326
 1225TIP3    H225167   0.882   4.157  13.656  0.7778 -1.2676  0.1601
 1226TIP3   OH225168   5.723   4.973   4.387  0.2500  0.3906  0.6890
 1226TIP3    H125169   5.679   4.908   4.333  2.4211  0.1073 -0.8726
 1226TIP3    H225170   5.702   5.057   4.345  0.5421  0.3306  0.4197
 1227TIP3   OH225171   0.788   4.951  14.887 -0.2410  0.4881 -0.1993
 1227TIP3    H125172   0.865   4.996  14.852  0.3314 -1.0495 -0.9744
 1227TIP3    H225173   0.781   4.870  14.836 -1.5179 -0.0923  0.8327
 1228TIP3   OH225174   2.302   5.631   1.769 -0.2232  0.2549  0.0925
 1228TIP3    H125175   2.316   5.680   1.688 -2.4915 -0.2521 -0.7048
 1228TIP3    H225176   2.376   5.654   1.825  1.3603  0.7100 -2.0643
 1229TIP3   OH225177   3.582   3.593  13.646 -0.3570 -0.7836 -0.0297
 1229TIP3    H125178   3.669   3.627  13.624 -0.5428 -1.0921 -1.3016
 1229TIP3    H225179   3.596   3.538  13.723  0.0750  1.5471  1.6699
 1230TIP3   OH225180   5.477   5.446  11.339  0.4987 -0.5827 -0.2139
 1230TIP3    H125181   5.387   5.414  11.337  0.7544 -1.5023  1.2389
 1230TIP3    H225182   5.471   5.536  11.308 -0.6851 -1.0851 -1.5729
 1231TIP3   OH225183   3.326   1.309   0.871 -0.1110  0.0790  0.1919
 1231TIP3    H125184   3.241   1.281   0.906  1.0345 -1.3456  2.0058
 1231TIP3    H225185   3.374   1.340   0.948  1.7114 -0.9886 -0.4626
 1232TIP3   OH225186   3.215   6.672   1.324  0.3097 -0.2024 -0.2406
 1232TIP3    H125187   3.222   6.578   1.304 -1.1477 -0.2466 -0.6570
 1232TIP3    H225188   3.174   6.675   1.410 -0.7262  0.0427 -0.7262
 1233TIP3   OH225189   2.930   0.218   2.406 -0.3606 -0.1770 -0.4557
 1233TIP3    H125190   2.937   0.288   2.342  0.4214  1.6190  1.4823
 1233TIP3    H225191   3.020   0.200   2.432 -0.7031  2.6512  3.6026
 1234TIP3   OH225192   5.069   5.235  12.485  0.2712 -0.1614  0.2612
 1234TIP3    H125193   5.160   5.226  12.458 -0.2694  0.3510 -1.9315
 1234TIP3    H225194   5.069   5.304  12.551  1.5041 -0.5532  0.6929
 1235TIP3   OH225195   4.559   4.345   5.191  0.0064 -0.0874  0.3724
 1235TIP3    H125196   4.502   4.372   5.120  0.2572 -1.1621 -0.2580
 1235TIP3    H225197   4.611   4.423   5.212 -2.0835  1.1353  1.4126
 1236TIP3   OH225198   2.544   3.845  16.557  0.1862 -0.3297 -0.0938
 1236TIP3    H125199   2.632   3.881  16.572  0.3362 -0.1686 -1.2275
 1236TIP3    H225200   2.553   3.751  16.573  0.8397 -0.4758 -1.2267
 1237TIP3   OH225201   4.333   3.167   0.151  0.2292  0.1889  0.0709
 1237TIP3    H125202   4.367   3.158   0.241 -1.3236  0.6828  0.7442
 1237TIP3    H225203   4.239   3.154   0.160  0.1625 -0.8444 -1.6861
 1238TIP3   OH225204   0.687   2.446   4.412 -0.1724 -0.0789  0.2036
 1238TIP3    H125205   0.660   2.491   4.492 -0.7386 -0.1357  0.0512
 1238TIP3    H225206   0.656   2.502   4.341  1.2503  0.5069  0.0140
 1239TIP3   OH225207   5.173   1.541   3.972  0.1632  0.3960  0.0587
 1239TIP3    H125208   5.192   1.524   4.064  0.4651  0.2774 -0.0269
 1239TIP3    H225209   5.257   1.536   3.928  0.0760  0.8372 -0.1673
 1240TIP3   OH225210   0.678   0.950   3.427 -0.4224 -0.2592  0.3209
 1240TIP3    H125211   0.750   0.975   3.369  0.5245 -0.7166  1.2661
 1240TIP3    H225212   0.627   1.030   3.439  2.0652  1.1295  2.6161
 1241TIP3   OH225213   1.023   2.834  17.029  0.2305 -0.3959 -0.1544
 1241TIP3    H125214   0.961   2.781  17.080  0.5400 -1.0353 -0.4353
 1241TIP3    H225215   0.977   2.855  16.949  0.6358 -1.5388 -0.7128
 1242TIP3   OH225216   0.472   2.302   6.386  0.2758 -0.2877 -0.0801
 1242TIP3    H125217   0.406   2.326   6.321  1.1503 -1.1464 -1.3255
 1242TIP3    H225218   0.535   2.374   6.384 -0.1458  0.1077  0.4743
 1243TIP3   OH225219   1.220   4.299   3.470 -0.5562  0.1639 -0.4044
 1243TIP3    H125220   1.193   4.237   3.536 -3.6085  1.4889 -0.2484
 1243TIP3    H225221   1.139   4.327   3.428  1.0257  1.2386 -3.0431
 1244TIP3   OH225222   2.725   5.530  15.813  0.2350 -0.1837 -0.0375
 1244TIP3    H125223   2.658   5.472  15.777  2.5103 -1.6149 -2.2723
 1244TIP3    H225224   2.738   5.498  15.902 -1.0136 -0.7802 -0.0365
 1245TIP3   OH225225   0.175   2.980  14.957  0.4163  0.1046 -0.1141
 1245TIP3    H125226   0.233   3.031  14.900  0.7251 -0.2836 -0.1571
 1245TIP3    H225227   0.144   2.908  14.901  1.3053 -0.7015  0.3978
 1246TIP3   OH225228   1.199   4.728   2.251  0.0428 -0.2643  0.0654
 1246TIP3    H125229   1.139   4.802   2.262  0.9732  0.4304  0.6067
 1246TIP3    H225230   1.143   4.650   2.258 -0.7688  0.3610  0.7197
 1247TIP3   OH225231   4.778   6.373  11.713 -0.5015 -0.1831  0.0038
 1247TIP3    H125232   4.812   6.284  11.714 -0.0951 -0.0413  1.5270
 1247TIP3    H225233   4.846   6.424  11.669 -1.2793 -0.7894 -1.9911
 1248TIP3   OH225234   5.623   6.444   1.562  0.1980 -0.3854 -0.0348
 1248TIP3    H125235   5.639   6.467   1.470  2.3036 -2.0833 -0.1668
 1248TIP3    H225236   5.706   6.459   1.605 -0.1348 -1.7394  1.1345
 1249TIP3   OH225237   2.056   2.489  15.574 -0.1884 -0.1291 -0.0520
 1249TIP3    H125238   2.092   2.409  15.537  1.2541 -0.0326  1.0372
 1249TIP3    H225239   1.980   2.461  15.624  1.4792 -1.1899  2.0320
 1250TIP3   OH225240   6.121   5.964   0.326  0.6007  0.3343 -0.1287
 1250TIP3    H125241   6.136   6.049   0.284  0.8525  1.4116  1.9627
 1250TIP3    H225242   6.107   5.903   0.254  1.2979  1.9791 -1.7382
 1251TIP3   OH225243   6.154   0.093   4.272 -0.1143 -0.4900  0.0132
 1251TIP3    H125244   6.226   0.056   4.222  0.0528 -0.6978  0.3980
 1251TIP3    H225245   6.166   0.059   4.361 -0.9224 -0.8646 -0.0082
 1252TIP3   OH225246   4.509   2.987   4.292 -0.5251  0.0286 -0.2489
 1252TIP3    H125247   4.543   3.008   4.205 -2.4825  1.4133 -0.7621
 1252TIP3    H225248   4.497   2.892   4.291  1.1984 -0.2208 -0.7794
 1253TIP3   OH225249   0.445   5.827   1.258  0.1964  0.1041  0.1783
 1253TIP3    H125250   0.512   5.893   1.273 -0.5729  0.6441  1.3658
 1253TIP3    H225251   0.362   5.872   1.273 -0.3374 -1.2232  1.5695
 1254TIP3   OH225252   3.422   0.811  13.394 -0.4996  0.9267 -0.0273
 1254TIP3    H125253   3.493   0.832  13.454  0.5307 -0.4214 -0.7290
 1254TIP3    H225254   3.446   0.855  13.312 -1.2055  1.6354  0.1375
 1255TIP3   OH225255   2.105   6.597  14.466  0.0287 -0.4401 -0.7017
 1255TIP3    H125256   2.194   6.632  14.466 -0.0902 -0.1324 -0.2540
 1255TIP3    H225257   2.116   6.504  14.485  0.1938 -0.2143  0.4125
 1256TIP3   OH225258   0.413   1.390   0.670 -0.4836  0.7003  0.2444
 1256TIP3    H125259   0.484   1.398   0.734 -1.1617 -1.2511  1.2985
 1256TIP3    H225260   0.350   1.457   0.695 -0.1840  0.7495  0.8763
 1257TIP3   OH225261   5.250   0.401  13.506  0.0054  0.2533  0.5496
 1257TIP3    H125262   5.216   0.417  13.595  1.3693 -3.0905  1.8185
 1257TIP3    H225263   5.249   0.488  13.465 -2.0769  1.7034  3.2851
 1258TIP3   OH225264   3.342   5.403  11.403 -0.3524 -0.5833 -0.0767
 1258TIP3    H125265   3.269   5.463  11.421  1.0972  1.1973  0.2162
 1258TIP3    H225266   3.366   5.422  11.312  1.7451  1.2923  0.7463
 1259TIP3   OH225267   4.009   5.408  14.119  0.0057  0.0427 -0.0876
 1259TIP3    H125268   4.074   5.346  14.083 -0.9369 -1.2480  0.3492
 1259TIP3    H225269   3.924   5.369  14.098 -0.6854  2.0212 -1.1978
 1260TIP3   OH225270   6.512   3.697  14.441  0.1368 -0.3324 -0.7408
 1260TIP3    H125271   6.551   3.700  14.354 -0.1806  0.5338 -0.8591
 1260TIP3    H225272   6.580   3.657  14.496  1.4067  1.5502 -0.8426
 1261TIP3   OH225273   0.801   5.205   1.992  0.6328  0.0380  0.5704
 1261TIP3    H125274   0.770   5.294   2.007  0.4207 -0.1065  1.0068
 1261TIP3    H225275   0.722   5.151   1.994  0.6503 -0.0462 -0.6517
 1262TIP3   OH225276   0.600   4.553   0.921 -0.3713  0.5828 -0.5364
 1262TIP3    H125277   0.666   4.485   0.906 -0.2390  0.6261 -0.1521
 1262TIP3    H225278   0.615   4.616   0.851  0.6317  1.0851  0.1149
 1263TIP3   OH225279   2.646   2.355   2.337  0.4966  0.1300 -0.1141
 1263TIP3    H125280   2.566   2.346   2.388  0.7531 -1.8961  0.0138
 1263TIP3    H225281   2.638   2.441   2.296 -0.6356  0.9658  1.7206
 1264TIP3   OH225282   5.283   6.154   1.015  0.3572  0.4660  0.3528
 1264TIP3    H125283   5.326   6.152   1.101  1.6961  0.1325 -0.2966
 1264TIP3    H225284   5.192   6.131   1.033  0.4194  1.2284  1.7865
 1265TIP3   OH225285   0.880   2.259   4.981 -0.4167  0.2789  0.1710
 1265TIP3    H125286   0.812   2.252   4.915 -0.9437  0.1183  0.7273
 1265TIP3    H225287   0.889   2.171   5.016  0.2094  0.2568 -0.0153
 1266TIP3   OH225288   2.043   3.464   3.117 -0.1103 -0.1774 -0.9443
 1266TIP3    H125289   1.991   3.541   3.138 -0.3618 -0.4131 -0.6978
 1266TIP3    H225290   2.095   3.490   3.040  0.3576  0.4729 -0.4131
 1267TIP3   OH225291   3.235   1.630  14.436  0.1696 -0.3344  0.1818
 1267TIP3    H125292   3.240   1.692  14.363 -1.6176  1.1643  1.2462
 1267TIP3    H225293   3.214   1.546  14.395  0.7057  0.1400 -1.1364
 1268TIP3   OH225294   1.187   5.482  14.989  0.0229 -1.0700 -0.3577
 1268TIP3    H125295   1.229   5.513  15.070  0.6661  2.7869 -1.9233
 1268TIP3    H225296   1.099   5.522  14.992  0.6467  0.6114 -2.2028
 1269TIP3   OH225297   2.162   6.042   4.748  0.3645 -0.2557  0.3917
 1269TIP3    H125298   2.076   6.081   4.768  0.7165  0.2582  0.9449
 1269TIP3    H225299   2.220   6.117   4.737  0.6822 -0.5965 -0.2973
 1270TIP3   OH225300   4.576   2.701   2.850  0.6579 -0.3622  0.5713
 1270TIP3    H125301   4.550   2.788   2.881  0.8572 -0.0132 -0.2240
 1270TIP3    H225302   4.641   2.672   2.915  2.3331  1.0651 -0.3719
 1271TIP3   OH225303   1.044   4.152  11.045  0.0393 -0.1229  0.0983
 1271TIP3    H125304   1.017   4.105  10.966  0.2428 -0.9818  0.5267
 1271TIP3    H225305   1.131   4.185  11.024 -0.3652  0.6082 -0.4330
 1272TIP3   OH225306   4.640   0.866   3.743  0.2194 -0.2961  0.4804
 1272TIP3    H125307   4.689   0.890   3.664 -1.3587 -2.1768 -1.1990
 1272TIP3    H225308   4.685   0.789   3.777 -0.4997 -0.9697 -0.0523
 1273TIP3   OH225309   0.522   4.144   3.904 -0.6300  0.0879 -0.2478
 1273TIP3    H125310   0.586   4.091   3.857  0.4989  1.2758 -0.0871
 1273TIP3    H225311   0.494   4.211   3.842 -0.2653  0.7465  0.2916
 1274TIP3   OH225312   1.567   2.928   4.975 -0.2622 -0.2006  0.3022
 1274TIP3    H125313   1.628   2.859   5.002 -0.5589  0.1142  1.9022
 1274TIP3    H225314   1.481   2.887   4.978 -0.4750  0.2770  1.5701
 1275TIP3   OH225315   1.706   3.115  14.441  0.0111 -0.5375 -0.2746
 1275TIP3    H125316   1.683   3.139  14.351  1.6839  0.1040 -0.5684
 1275TIP3    H225317   1.683   3.191  14.494  0.1681 -0.4274 -0.3625
 1276TIP3   OH225318   0.890   1.044  12.260 -0.6165 -0.3211  0.0041
 1276TIP3    H125319   0.850   1.093  12.188 -0.1599  2.3289  1.3980
 1276TIP3    H225320   0.829   1.057  12.333  0.8135  0.4523  1.1082
 1277TIP3   OH225321   3.167   4.651   4.266  0.0115 -0.2115  0.0450
 1277TIP3    H125322   3.136   4.652   4.356  1.6877 -0.3017  0.6552
 1277TIP3    H225323   3.131   4.571   4.228 -1.2888  0.1893  0.3930
 1278TIP3   OH225324   3.655   6.578   5.158 -0.4171  0.4103 -0.5755
 1278TIP3    H125325   3.744   6.606   5.178 -0.6939  1.2985 -0.5200
 1278TIP3    H225326   3.602   6.657   5.173 -1.4939 -0.6242  1.4343
 1279TIP3   OH225327   5.837   2.612   2.541  0.4251  0.5651  0.4660
 1279TIP3    H125328   5.811   2.522   2.519 -1.6776  1.1486  0.3769
 1279TIP3    H225329   5.932   2.607   2.549  0.4915 -1.4130 -0.7062
 1280TIP3   OH225330   2.434   3.482   2.776 -0.3037  0.4185  0.2239
 1280TIP3    H125331   2.485   3.403   2.755  0.3847  0.8637  0.1912
 1280TIP3    H225332   2.428   3.482   2.871  0.2508  0.6593  0.2649
 1281TIP3   OH225333   3.246   6.404   4.463 -0.7861  0.0460 -0.0772
 1281TIP3    H125334   3.272   6.447   4.545 -1.3127 -1.0307  0.6840
 1281TIP3    H225335   3.172   6.456   4.432  1.2790  2.3058 -1.5378
 1282TIP3   OH225336   2.526   5.878   1.231 -0.3897 -0.0856 -0.3016
 1282TIP3    H125337   2.505   5.859   1.140 -0.6292 -1.2227 -0.0348
 1282TIP3    H225338   2.613   5.841   1.244  0.6862  2.2044 -0.6797
 1283TIP3   OH225339   3.613   3.764   5.050  0.3774  0.3680 -0.7947
 1283TIP3    H125340   3.672   3.709   5.102 -0.0881  0.3649 -0.2557
 1283TIP3    H225341   3.660   3.779   4.968  1.1233  0.3509 -0.3816
 1284TIP3   OH225342   0.110   0.179  14.967 -0.1048 -0.0868  0.0828
 1284TIP3    H125343   0.082   0.181  15.059  1.5199  1.3631  0.5985
 1284TIP3    H225344   0.177   0.110  14.964  2.2652  2.0409  0.8282
 1285TIP3   OH225345   6.003   5.075  11.428 -0.5534 -0.1935 -0.7807
 1285TIP3    H125346   6.002   4.988  11.470  0.7858 -0.3231 -0.9599
 1285TIP3    H225347   5.971   5.059  11.339 -1.3659 -0.3045 -0.4697
 1286TIP3   OH225348   1.373   4.651   2.477  0.3139  0.1014  0.0300
 1286TIP3    H125349   1.326   4.700   2.409  1.5871 -0.0581 -1.0323
 1286TIP3    H225350   1.375   4.561   2.444 -1.1167 -0.4945  1.4724
 1287TIP3   OH225351   6.147   5.178   3.138 -0.4464 -0.0933  0.2097
 1287TIP3    H125352   6.215   5.229   3.095 -1.5195  0.8772 -0.3882
 1287TIP3    H225353   6.171   5.180   3.230 -1.1173  2.6236  0.4135
 1288TIP3   OH225354   5.209   4.687   1.230 -0.6830 -0.2592  0.0004
 1288TIP3    H125355   5.184   4.670   1.321 -1.4494 -3.8700 -0.7278
 1288TIP3    H225356   5.127   4.712   1.187 -0.1683  2.3548  0.3507
 1289TIP3   OH225357   6.017   5.978  14.792 -0.4107 -0.4399 -0.4038
 1289TIP3    H125358   6.045   5.922  14.865  1.4763  0.7797 -0.1301
 1289TIP3    H225359   6.098   6.010  14.754 -1.4089  0.2078 -2.0876
 1290TIP3   OH225360   0.919   1.134  14.045 -0.1204  0.0425 -0.0964
 1290TIP3    H125361   0.833   1.110  14.009  0.7201 -1.7009 -1.0074
 1290TIP3    H225362   0.903   1.143  14.139 -0.9970 -1.8246 -0.0243
 1291TIP3   OH225363   4.750   2.060   2.236  0.7073  0.0049  0.1103
 1291TIP3    H125364   4.674   2.115   2.217  1.2815  0.3006 -1.4366
 1291TIP3    H225365   4.793   2.047   2.152  2.3742 -0.1745  0.9298
 1292TIP3   OH225366   6.864   4.035  13.070 -0.2953  0.1942 -0.0917
 1292TIP3    H125367   6.922   4.085  13.128  0.8327  0.6242 -1.5122
 1292TIP3    H225368   6.797   4.000  13.127  0.2958  1.2884  1.3401
 1293TIP3   OH225369   3.961   1.471   5.417  0.3347  0.0019 -0.0259
 1293TIP3    H125370   4.047   1.433   5.432  0.7828  1.3574  1.0460
 1293TIP3    H225371   3.979   1.562   5.392 -0.7680  0.1914 -0.1973
 1294TIP3   OH225372   5.079   4.033   3.243 -0.2475 -0.3899  0.5341
 1294TIP3    H125373   4.985   4.021   3.245 -0.4316  0.7501 -0.0617
 1294TIP3    H225374   5.091   4.127   3.259  0.7836 -0.5272  0.6492
 1295TIP3   OH225375   4.448   4.036   2.462 -0.6008  0.1376  0.5353
 1295TIP3    H125376   4.431   3.951   2.420 -1.8880  0.4031  0.4886
 1295TIP3    H225377   4.365   4.059   2.504 -0.9676  2.3752 -1.2475
 1296TIP3   OH225378   1.688   1.364  11.166 -0.0617 -0.2712  0.4555
 1296TIP3    H125379   1.669   1.451  11.129  0.1281 -0.3993  0.0440
 1296TIP3    H225380   1.631   1.357  11.242 -0.8814 -0.2238 -0.1441
 1297TIP3   OH225381   5.709   2.632  16.593  1.0281  0.1610 -0.0315
 1297TIP3    H125382   5.782   2.688  16.567  1.4112 -1.3611 -2.5039
 1297TIP3    H225383   5.646   2.639  16.522 -0.2563 -0.2983  1.0168
 1298TIP3   OH225384   0.497   4.719  15.961 -0.3954 -0.1584  0.1117
 1298TIP3    H125385   0.549   4.645  15.930  1.5869  1.0000  0.4699
 1298TIP3    H225386   0.476   4.768  15.882 -0.5823 -0.4153  0.0018
 1299TIP3   OH225387   1.366   1.221   5.718  0.2769 -0.4249  0.1554
 1299TIP3    H125388   1.278   1.200   5.751  0.7421  0.5391  2.1487
 1299TIP3    H225389   1.368   1.316   5.714  0.5804 -0.4838 -1.8815
 1300TIP3   OH225390   5.704   2.958  16.779  0.3493 -0.0741 -0.1289
 1300TIP3    H125391   5.788   2.922  16.810  0.2900 -0.6092 -0.5599
 1300TIP3    H225392   5.645   2.882  16.779 -0.1663  0.3213  0.2640
 1301TIP3   OH225393   2.539   5.773  15.619  0.7428 -0.2140  0.2311
 1301TIP3    H125394   2.607   5.706  15.616 -0.7004 -1.9035  2.3382
 1301TIP3    H225395   2.537   5.801  15.710  0.5038  1.9194 -0.3709
 1302TIP3   OH225396   3.264   2.830  12.669  0.2085  0.2628 -0.7341
 1302TIP3    H125397   3.222   2.898  12.722  2.2193  0.1847  1.0895
 1302TIP3    H225398   3.351   2.866  12.650  0.2115 -0.5428 -2.3720
 1303TIP3   OH225399   4.534   4.565   4.321 -0.2278  0.1203 -0.4891
 1303TIP3    H125400   4.593   4.498   4.354 -1.5700 -0.0011  1.8973
 1303TIP3    H225401   4.583   4.646   4.327  0.1520 -0.1559  0.1937
 1304TIP3   OH225402   2.625   2.884   2.446 -0.6568  0.3799 -0.4730
 1304TIP3    H125403   2.661   2.876   2.534 -0.9385 -2.1122 -0.5261
 1304TIP3    H225404   2.680   2.950   2.404  0.3528  0.6164  1.1329
 1305TIP3   OH225405   1.986   6.207  11.391  0.3597  0.0509 -0.1463
 1305TIP3    H125406   2.002   6.236  11.301  2.2156  1.9425  0.6852
 1305TIP3    H225407   2.065   6.234  11.439 -0.3142 -1.4159  1.9461
 1306TIP3   OH225408   6.230   1.875  11.894  0.0031  0.7284 -0.8510
 1306TIP3    H125409   6.239   1.881  11.989 -0.5312 -1.8575 -0.5796
 1306TIP3    H225410   6.320   1.877  11.861  0.5368 -2.5657  0.1022
 1307TIP3   OH225411   4.130   5.992   0.206  0.0823 -0.6430  0.3513
 1307TIP3    H125412   4.094   5.903   0.197 -0.6083 -0.3860  0.4904
 1307TIP3    H225413   4.208   5.992   0.151  0.1734 -1.3834  0.4652
 1308TIP3   OH225414   3.605   3.814  12.980  0.0018 -0.1018  0.7246
 1308TIP3    H125415   3.602   3.904  13.012 -2.4151 -0.3772  1.4805
 1308TIP3    H225416   3.627   3.762  13.058 -0.1780 -0.2997  0.6438
 1309TIP3   OH225417   3.412   0.174  14.102  0.2180  0.6550 -0.3069
 1309TIP3    H125418   3.381   0.251  14.149  0.4435  1.4849 -1.4790
 1309TIP3    H225419   3.352   0.166  14.027 -0.6834 -1.1534  0.5448
 1310TIP3   OH225420   2.692   1.428   6.376  0.0854  0.1735  0.2515
 1310TIP3    H125421   2.723   1.352   6.425 -1.0235 -0.9063 -0.6955
 1310TIP3    H225422   2.767   1.453   6.321  0.5396 -0.0618  0.7485
 1311TIP3   OH225423   1.142   3.066   5.895 -0.6416 -0.1640 -0.1623
 1311TIP3    H125424   1.233   3.063   5.925 -1.1933 -1.3062  1.5429
 1311TIP3    H225425   1.096   3.114   5.964 -1.3873  0.1452 -0.8596
 1312TIP3   OH225426   3.425   6.351  12.438 -0.7373 -0.3773 -0.2942
 1312TIP3    H125427   3.488   6.421  12.453 -1.2092 -0.0978  0.4089
 1312TIP3    H225428   3.372   6.382  12.365 -2.4306  1.0827  1.4397
 1313TIP3   OH225429   2.714   1.022  12.304  0.8816 -0.3057  0.6370
 1313TIP3    H125430   2.693   0.948  12.247  0.7989  1.5187 -1.8693
 1313TIP3    H225431   2.629   1.048  12.341  0.1272  1.0331 -1.8052
 1314TIP3   OH225432   3.753   1.723  16.724 -0.4230 -0.2351 -0.1230
 1314TIP3    H125433   3.800   1.799  16.690  1.4238  0.3088  3.2024
 1314TIP3    H225434   3.695   1.758  16.791  1.0741 -1.6886  2.0701
 1315TIP3   OH225435   1.698   6.708   4.116  0.3870  0.3595  0.3213
 1315TIP3    H125436   1.733   6.620   4.124  1.3113  0.7317  0.5551
 1315TIP3    H225437   1.618   6.708   4.169 -0.3847 -0.7051 -0.7945
 1316TIP3   OH225438   2.073   3.577  12.151  0.0226  0.1441  0.8901
 1316TIP3    H125439   2.012   3.503  12.152 -1.8431  1.6173  0.3730
 1316TIP3    H225440   2.073   3.610  12.240  0.3799 -0.0677  0.9739
 1317TIP3   OH225441   2.556   4.969  16.452  0.1664  0.6274  0.6947
 1317TIP3    H125442   2.643   5.008  16.458  0.6968 -0.5833  1.3492
 1317TIP3    H225443   2.495   5.041  16.466  1.0727  1.4341  0.5350
 1318TIP3   OH225444   3.510   6.147  15.287  0.1493 -0.3907 -0.1978
 1318TIP3    H125445   3.578   6.118  15.226 -0.3842 -0.6189 -0.6982
 1318TIP3    H225446   3.475   6.065  15.324  0.3055 -0.2638  0.2223
 1319TIP3   OH225447   6.354   5.883   4.047 -0.0936 -0.0515  0.4997
 1319TIP3    H125448   6.263   5.855   4.059 -0.1595 -0.6378 -1.0819
 1319TIP3    H225449   6.349   5.978   4.038 -0.6774 -0.1526 -0.3933
 1320TIP3   OH225450   5.114   0.581   0.071 -0.3171 -0.6353 -0.1504
 1320TIP3    H125451   5.172   0.545   0.138  0.6031 -0.3840 -0.7848
 1320TIP3    H225452   5.102   0.510   0.008  1.1115 -0.0421 -1.1535
 1321TIP3   OH225453   4.145   0.632  13.327  0.1945 -0.6109 -0.3060
 1321TIP3    H125454   4.096   0.568  13.379  0.7248 -0.8890 -0.1372
 1321TIP3    H225455   4.135   0.715  13.374 -1.5369 -0.2790 -1.1917
 1322TIP3   OH225456   0.057   1.337   2.604  0.3032  0.3692  0.4808
 1322TIP3    H125457  -0.016   1.345   2.664  0.7701  1.4672  0.9307
 1322TIP3    H225458   0.050   1.248   2.570 -0.7273  0.1670  1.1650
 1323TIP3   OH225459   5.640   1.478   1.823 -0.3666 -0.2307 -0.3145
 1323TIP3    H125460   5.698   1.426   1.878  1.7283  2.2154 -0.0115
 1323TIP3    H225461   5.590   1.531   1.884 -0.9121 -0.3361 -0.6675
 1324TIP3   OH225462   3.505   3.311  10.760 -0.0777 -0.0234  0.4956
 1324TIP3    H125463   3.430   3.353  10.803 -0.4743 -0.6798  0.4621
 1324TIP3    H225464   3.554   3.384  10.720  0.3554  0.6229  2.1135
 1325TIP3   OH225465   1.859   6.642  14.353  0.1076 -0.1161 -0.6681
 1325TIP3    H125466   1.870   6.684  14.268  0.6380  1.1057 -0.0275
 1325TIP3    H225467   1.946   6.606  14.373 -0.2585 -1.2344 -1.0594
 1326TIP3   OH225468   5.301   5.004   0.480 -0.9795 -0.0695 -0.3466
 1326TIP3    H125469   5.232   5.047   0.429 -2.0498 -1.2056  0.0799
 1326TIP3    H225470   5.350   5.075   0.520 -1.7736  0.7765 -0.8463
 1327TIP3   OH225471   4.583   6.580  11.205 -0.1029 -0.2732 -0.2872
 1327TIP3    H125472   4.534   6.503  11.231 -0.0824 -0.1575  0.1066
 1327TIP3    H225473   4.610   6.563  11.115 -0.4607 -0.5378 -0.3443
 1328TIP3   OH225474   6.633   2.932  10.784 -0.3022 -0.4627  0.2650
 1328TIP3    H125475   6.663   2.843  10.802  0.3075 -0.3247 -0.0495
 1328TIP3    H225476   6.702   2.970  10.729 -0.7396  0.0769  0.0796
 1329TIP3   OH225477   1.792   5.566  11.525 -0.4232  0.1999 -0.3617
 1329TIP3    H125478   1.722   5.624  11.495  0.3699  1.3306 -0.0948
 1329TIP3    H225479   1.823   5.523  11.445  0.1239  1.4492 -0.8377
 1330TIP3   OH225480   0.058   1.639  16.911  0.2808 -0.5369  0.4547
 1330TIP3    H125481   0.038   1.728  16.939 -2.1636 -1.0244  0.5106
 1330TIP3    H225482   0.055   1.642  16.815 -1.7531 -0.8849  0.4664
 1331TIP3   OH225483   4.172   5.081  15.963 -0.2341 -0.7876  0.8772
 1331TIP3    H125484   4.188   5.072  15.869  0.5468  0.8349  0.8284
 1331TIP3    H225485   4.090   5.130  15.969 -0.0473 -0.4892  1.0275
 1332TIP3   OH225486   4.758   1.972  12.103 -0.6223 -0.2721  0.5345
 1332TIP3    H125487   4.698   1.902  12.131 -0.4814 -0.4232  0.4625
 1332TIP3    H225488   4.720   2.003  12.020 -1.0199  0.1518  0.8721
 1333TIP3   OH225489   6.765   4.511  13.805  0.1013 -0.1812  0.3897
 1333TIP3    H125490   6.730   4.464  13.730 -2.3638 -0.1512  1.4325
 1333TIP3    H225491   6.826   4.575  13.767 -1.4647  0.2070 -1.6318
 1334TIP3   OH225492   5.961   0.633  11.288 -0.4158  0.6295 -0.0187
 1334TIP3    H125493   5.942   0.566  11.223 -2.4011  2.2061 -1.1890
 1334TIP3    H225494   6.056   0.642  11.287 -0.0963 -1.9492  0.0303
 1335TIP3   OH225495   4.072   0.043   4.345 -0.4416 -0.0642 -0.2292
 1335TIP3    H125496   4.028   0.128   4.344  1.6558  1.0966 -0.6755
 1335TIP3    H225497   4.020  -0.012   4.286 -0.5171  1.6660 -1.8667
 1336TIP3   OH225498   0.604   2.128   3.948  0.6348 -0.1342  0.3112
 1336TIP3    H125499   0.665   2.177   3.893 -0.6086  1.0828 -0.0425
 1336TIP3    H225500   0.617   2.037   3.923  1.8829  0.1507 -0.1571
 1337TIP3   OH225501   6.531   0.449   5.493  0.1910  0.1815 -0.6967
 1337TIP3    H125502   6.543   0.532   5.448 -0.0076  0.4367 -0.2786
 1337TIP3    H225503   6.524   0.384   5.423 -0.2371  0.5934 -1.0367
 1338TIP3   OH225504   4.056   5.643   2.978  0.6740  0.6134 -0.2927
 1338TIP3    H125505   4.094   5.635   2.890 -0.6436 -1.2518 -0.7656
 1338TIP3    H225506   4.081   5.562   3.022  0.2678  0.9705  0.6170
 1339TIP3   OH225507   6.241   3.856   5.244 -0.6060  0.1024  0.1212
 1339TIP3    H125508   6.219   3.902   5.163 -1.4372  1.0824  0.8852
 1339TIP3    H225509   6.241   3.764   5.219 -0.6833  0.3979 -1.0384
 1340TIP3   OH225510   3.686   5.286   4.731 -0.1577  0.3838 -0.5496
 1340TIP3    H125511   3.670   5.319   4.643  1.1118  0.4488 -0.7778
 1340TIP3    H225512   3.779   5.263   4.731 -0.3936 -0.6383  0.4422
 1341TIP3   OH225513   2.161   5.038  11.138  0.8369 -0.1085 -0.0245
 1341TIP3    H125514   2.093   5.102  11.157  0.4288 -0.8419  1.0521
 1341TIP3    H225515   2.185   5.056  11.047  0.4280  1.2697  0.1154
 1342TIP3   OH225516   0.051   5.341   2.202  0.3090 -0.0565  0.7219
 1342TIP3    H125517  -0.018   5.278   2.181  0.8195 -0.6288  0.7486
 1342TIP3    H225518   0.127   5.288   2.224  0.3313  0.5477  2.2252
 1343TIP3   OH225519   4.410   0.081   5.258 -0.4943 -0.5481  0.0149
 1343TIP3    H125520   4.425   0.115   5.346 -2.2074  0.7872 -0.1681
 1343TIP3    H225521   4.411  -0.014   5.269 -1.3355 -0.4035  1.6237
 1344TIP3   OH225522   6.592   5.700  14.546  0.5216 -0.9662 -0.0204
 1344TIP3    H125523   6.580   5.693  14.452 -3.6897  2.1020 -0.0087
 1344TIP3    H225524   6.542   5.626  14.582  0.4670 -1.0045 -0.1741
 1345TIP3   OH225525   4.427   3.101   6.022  0.9986 -0.2604  0.1596
 1345TIP3    H125526   4.480   3.163   5.970  0.5745  0.0810  0.1312
 1345TIP3    H225527   4.404   3.150   6.101  0.3998 -0.2738 -0.0042
 1346TIP3   OH225528   4.100   5.380  12.840 -0.1779 -0.4994 -0.0965
 1346TIP3    H125529   4.129   5.466  12.810  0.4576 -0.3258  0.9502
 1346TIP3    H225530   4.064   5.338  12.762 -0.5938  0.7484 -0.6069
 1347TIP3   OH225531   3.018   2.902  10.721 -0.1418 -0.8419  0.3449
 1347TIP3    H125532   2.924   2.909  10.736 -0.1483  1.0236 -0.3391
 1347TIP3    H225533   3.042   2.983  10.675  2.3027  0.2362  3.1724
 1348TIP3   OH225534   3.014   3.927   5.763  0.2080  0.4736  0.3491
 1348TIP3    H125535   3.043   4.017   5.745 -0.2152  0.4952 -0.2499
 1348TIP3    H225536   3.093   3.883   5.796  0.5437  0.9297  0.1752
 1349TIP3   OH225537   1.755   1.464  15.170 -0.1680  0.8170 -0.2259
 1349TIP3    H125538   1.843   1.448  15.206 -0.7778  0.8925  1.3959
 1349TIP3    H225539   1.759   1.430  15.081  0.4881 -2.5984  0.9291
 1350TIP3   OH225540   4.188   1.731  15.700 -1.0737 -0.1349 -0.4982
 1350TIP3    H125541   4.271   1.682  15.698 -0.9766  0.0263 -0.3748
 1350TIP3    H225542   4.213   1.821  15.679 -1.3624 -0.2919 -1.6175
 1351TIP3   OH225543   4.976   0.281  11.163 -0.6730 -0.2595  0.0799
 1351TIP3    H125544   5.044   0.233  11.115 -0.8040 -0.4148  0.0522
 1351TIP3    H225545   4.995   0.263  11.255 -0.9250 -0.6396  0.0611
 1352TIP3   OH225546   1.504   5.034   5.986 -0.5188  0.3523  0.7136
 1352TIP3    H125547   1.472   5.095   5.919  0.1948  1.9236  1.7464
 1352TIP3    H225548   1.584   4.997   5.948 -2.0309 -1.5751 -0.7698
 1353TIP3   OH225549   1.169   3.782   1.798  0.4117 -0.1415  0.0760
 1353TIP3    H125550   1.083   3.800   1.760  1.0403 -1.1856 -1.9847
 1353TIP3    H225551   1.221   3.860   1.777  0.9413 -0.9674 -1.9553
 1354TIP3   OH225552   2.232   2.773  16.661 -0.1901 -0.1400 -0.5418
 1354TIP3    H125553   2.265   2.850  16.614  0.6075 -0.6853 -0.8869
 1354TIP3    H225554   2.159   2.807  16.713  0.6280  1.0056 -0.1010
 1355TIP3   OH225555   1.225   5.715   4.383  0.4448 -0.4075  0.2110
 1355TIP3    H125556   1.176   5.638   4.352  0.4227  0.4524 -2.1373
 1355TIP3    H225557   1.283   5.737   4.310  1.0219  1.3227  1.1399
 1356TIP3   OH225558   5.943   6.409   0.762 -0.4790 -0.5433 -0.1371
 1356TIP3    H125559   5.993   6.457   0.828 -1.4564 -0.1434  0.3377
 1356TIP3    H225560   5.859   6.454   0.758 -0.8504 -1.2639 -0.8364
 1357TIP3   OH225561   2.679   4.597  11.551  0.6293  0.1856 -0.3286
 1357TIP3    H125562   2.669   4.671  11.611  0.9981 -0.1615  0.1634
 1357TIP3    H225563   2.616   4.531  11.583  0.3779  0.2386 -0.7003
 1358TIP3   OH225564   5.680   0.482  15.776  0.4891  0.4176 -0.1117
 1358TIP3    H125565   5.646   0.398  15.806  0.6594  0.6909  0.9036
 1358TIP3    H225566   5.775   0.470  15.773  0.5585  0.7054  0.5397
 1359TIP3   OH225567   4.583   5.471  15.450 -0.1461 -0.4163 -0.6467
 1359TIP3    H125568   4.665   5.515  15.430 -0.5204  0.2177 -0.8144
 1359TIP3    H225569   4.579   5.397  15.390 -0.4264  0.4472 -1.7144
 1360TIP3   OH225570   0.774   6.417   2.740  0.0095  0.2283  0.0873
 1360TIP3    H125571   0.705   6.376   2.687 -0.5736 -0.2691  1.1847
 1360TIP3    H225572   0.791   6.354   2.810  1.0723  0.6714  0.2417
 1361TIP3   OH225573   1.182   3.096  11.728 -0.6942 -0.3614 -0.1156
 1361TIP3    H125574   1.260   3.115  11.781 -1.0021  0.9283 -0.0882
 1361TIP3    H225575   1.110   3.097  11.791 -0.8787 -0.3166 -0.3276
 1362TIP3   OH225576   4.821   3.350  13.491  0.2738 -0.0645  0.3381
 1362TIP3    H125577   4.760   3.424  13.488  2.3310  1.7008 -0.2185
 1362TIP3    H225578   4.765   3.273  13.493 -1.9580  1.4495 -0.3833
 1363TIP3   OH225579   1.237   6.010  11.782 -0.3294  0.3477 -0.1967
 1363TIP3    H125580   1.290   6.071  11.833  0.0045 -0.4714  0.4505
 1363TIP3    H225581   1.180   5.968  11.846  0.3875 -0.9986 -0.3952
 1364TIP3   OH225582   5.396   0.336  11.111  0.4631  0.1372 -0.2964
 1364TIP3    H125583   5.336   0.401  11.149  0.0536  0.2103 -1.0462
 1364TIP3    H225584   5.405   0.269  11.180  1.0555  1.0736  0.5652
 1365TIP3   OH225585   5.460   5.837  16.178 -0.3170 -0.3714  0.0822
 1365TIP3    H125586   5.431   5.805  16.263 -0.7864 -0.3099 -0.0507
 1365TIP3    H225587   5.394   5.804  16.117 -0.2944  0.0611 -0.1807
 1366TIP3   OH225588   3.831   5.511  11.919  0.2724 -0.4844 -0.3411
 1366TIP3    H125589   3.860   5.543  12.005 -0.6229 -1.4980  0.3757
 1366TIP3    H225590   3.905   5.459  11.887  0.6517 -0.0199 -0.2387
 1367TIP3   OH225591   5.839   6.418  13.700  0.1654 -0.1761 -0.1787
 1367TIP3    H125592   5.923   6.445  13.737  0.5338 -1.1387 -0.2897
 1367TIP3    H225593   5.779   6.487  13.726  1.0628  0.7289 -0.4154
 1368TIP3   OH225594   3.107   6.416  12.474 -0.4917 -0.4321  0.0577
 1368TIP3    H125595   3.035   6.449  12.528 -1.5248 -1.7638 -0.4243
 1368TIP3    H225596   3.184   6.463  12.505 -1.3438  0.0924  1.5112
 1369TIP3   OH225597   4.896   1.532   1.529 -0.2698 -0.0276 -0.2233
 1369TIP3    H125598   4.824   1.595   1.537  1.2161  2.4657 -3.6637
 1369TIP3    H225599   4.865   1.468   1.466  0.2797  0.7777 -1.3429
 1370TIP3   OH225600   3.955   5.233   4.723  0.4825 -0.0670 -0.1113
 1370TIP3    H125601   4.014   5.213   4.796  1.1802  0.2752 -0.5703
 1370TIP3    H225602   3.959   5.328   4.715  1.1361 -0.1657 -1.1765
 1371TIP3   OH225603   3.211   4.800  12.034  0.4344  0.3921  0.0938
 1371TIP3    H125604   3.262   4.750  11.970  0.2223 -0.0701  0.2808
 1371TIP3    H225605   3.271   4.814  12.107  0.5001  0.4228  0.0341
 1372TIP3   OH225606   0.668   2.918  14.161  0.4657  0.2365 -0.2477
 1372TIP3    H125607   0.621   3.001  14.147  1.3565  0.9496  0.8026
 1372TIP3    H225608   0.756   2.945  14.188  0.7908 -1.0559  0.0383
 1373TIP3   OH225609   5.414   5.341   4.870  0.4978  0.1706  0.0329
 1373TIP3    H125610   5.385   5.251   4.878  0.7857  0.1796  1.5970
 1373TIP3    H225611   5.337   5.393   4.895  0.7184  0.3051  0.4440
 1374TIP3   OH225612   4.585   1.847  12.286 -0.6209 -0.2120 -0.0300
 1374TIP3    H125613   4.573   1.938  12.313 -0.7843  0.0812 -1.0397
 1374TIP3    H225614   4.567   1.796  12.364  0.7456  0.6684  0.9121
 1375TIP3   OH225615   4.158   2.691  16.640 -0.1513  0.2570 -0.1770
 1375TIP3    H125616   4.109   2.613  16.613 -0.5161  0.4053  0.0495
 1375TIP3    H225617   4.248   2.660  16.653  0.0943  0.2189 -1.7788
 1376TIP3   OH225618   3.154   0.036   1.773  0.0426  0.8879 -0.0256
 1376TIP3    H125619   3.142  -0.022   1.849  1.5855 -1.7291 -1.6329
 1376TIP3    H225620   3.232   0.088   1.795  0.0187  0.7075  0.5023
 1377TIP3   OH225621   5.043   2.897  14.195 -0.0792  0.1262  0.2429
 1377TIP3    H125622   4.995   2.977  14.178  0.3645  0.8431  2.1123
 1377TIP3    H225623   4.976   2.832  14.218 -0.3308  0.3731  0.1982
 1378TIP3   OH225624   5.701   0.483   4.393  0.0591 -0.4036 -0.4181
 1378TIP3    H125625   5.784   0.447   4.359  0.1772  0.8525 -1.5635
 1378TIP3    H225626   5.696   0.451   4.483  1.4258 -1.1138 -0.5622
 1379TIP3   OH225627   6.340   3.110  15.039  0.4987  0.1191 -0.3720
 1379TIP3    H125628   6.273   3.161  14.992 -0.9690 -1.2827  0.0789
 1379TIP3    H225629   6.319   3.019  15.017  0.7351 -0.4900  1.7557
 1380TIP3   OH225630   5.192   6.421   1.436 -0.3093  0.6832  0.0588
 1380TIP3    H125631   5.248   6.436   1.512  1.0340 -2.5378 -0.1388
 1380TIP3    H225632   5.252   6.412   1.362 -1.1388 -1.1502 -0.4699
 1381TIP3   OH225633   5.794   1.676   0.516  0.6387  0.4695  0.3274
 1381TIP3    H125634   5.875   1.628   0.498  0.7725  0.9063 -0.2450
 1381TIP3    H225635   5.820   1.741   0.582  0.0998 -1.2722  2.3748
 1382TIP3   OH225636   1.591   4.810   2.388  0.0102  0.0555 -0.1053
 1382TIP3    H125637   1.560   4.895   2.418 -1.2417  0.2923 -1.8631
 1382TIP3    H225638   1.541   4.747   2.439  0.4094  0.3640  0.6872
 1383TIP3   OH225639   4.054   1.921   0.760 -0.2262  0.8873  0.0381
 1383TIP3    H125640   4.044   2.004   0.714 -0.0609  0.4315 -0.8416
 1383TIP3    H225641   4.069   1.856   0.691  0.8056  0.3053  0.7741
 1384TIP3   OH225642   2.974   4.063   6.099 -0.2990  0.0809 -0.1734
 1384TIP3    H125643   2.885   4.039   6.126 -0.0211  0.1422  0.8361
 1384TIP3    H225644   2.967   4.155   6.074 -0.0297  0.8838  2.4227
 1385TIP3   OH225645   2.896   0.603  11.432  0.0501  0.1624  0.2543
 1385TIP3    H125646   2.983   0.577  11.401 -0.0281 -0.3833  0.4810
 1385TIP3    H225647   2.913   0.671  11.497  0.3932 -0.8890  1.2974
 1386TIP3   OH225648   2.807   4.923  14.686 -0.7069 -0.0952  0.7132
 1386TIP3    H125649   2.878   4.981  14.713  0.5193 -2.0095  1.8844
 1386TIP3    H225650   2.835   4.888  14.601 -1.8458  1.5826 -0.4076
 1387TIP3   OH225651   5.404   6.691  14.935 -0.0888  0.2499  0.4514
 1387TIP3    H125652   5.401   6.624  15.004  0.4155  0.4082  0.6367
 1387TIP3    H225653   5.418   6.641  14.855 -1.6497 -0.0150  0.3131
 1388TIP3   OH225654   2.627   2.265   6.741 -0.0143  0.8020 -0.7039
 1388TIP3    H125655   2.615   2.172   6.760  0.2431  0.9280  0.1009
 1388TIP3    H225656   2.539   2.296   6.718 -0.8644  1.1109  2.4989
 1389TIP3   OH225657   2.468   5.512   4.493  0.9487  0.0869 -0.2232
 1389TIP3    H125658   2.551   5.534   4.534 -0.3141  1.5949  1.7334
 1389TIP3    H225659   2.409   5.496   4.567 -0.5290 -0.8029 -1.5448
 1390TIP3   OH225660   0.880   6.188   1.541 -0.2573 -0.0403  0.0099
 1390TIP3    H125661   0.856   6.170   1.632  0.0309 -0.1644  0.0636
 1390TIP3    H225662   0.967   6.229   1.548  0.4037 -1.3371 -0.2874
 1391TIP3   OH225663   4.487   4.258   5.718  0.0550 -0.2394 -0.3035
 1391TIP3    H125664   4.496   4.351   5.696  0.6053 -0.1612  0.2244
 1391TIP3    H225665   4.449   4.218   5.640 -1.5365  0.6774 -0.0220
 1392TIP3   OH225666   4.200   6.288   1.627  0.9905 -0.3805  0.1763
 1392TIP3    H125667   4.261   6.268   1.556  1.8876 -1.2649  1.1713
 1392TIP3    H225668   4.172   6.203   1.659 -0.5290  0.0173 -0.0399
 1393TIP3   OH225669   3.542   1.028   4.070  0.1014  0.7912  0.2250
 1393TIP3    H125670   3.584   0.945   4.046  1.1649  1.2029  0.6012
 1393TIP3    H225671   3.607   1.095   4.048 -0.4215  1.4602  0.6747
 1394TIP3   OH225672   4.762   0.602   0.001 -0.8606 -0.2972  0.3661
 1394TIP3    H125673   4.760   0.608   0.097  2.4189 -1.9057  0.6469
 1394TIP3    H225674   4.787   0.689  -0.028 -1.4519  0.0838  0.9543
 1395TIP3   OH225675   3.522   3.571   5.670 -0.0143  0.0172  0.4690
 1395TIP3    H125676   3.461   3.640   5.644  1.0190  0.1278 -1.8985
 1395TIP3    H225677   3.548   3.529   5.588  2.9446 -0.1325  1.3756
 1396TIP3   OH225678   5.524   1.326  14.128  0.3315 -0.0837 -0.2059
 1396TIP3    H125679   5.533   1.402  14.184  0.3241 -0.2367  0.0041
 1396TIP3    H225680   5.553   1.252  14.182  0.6071 -0.1921 -0.4996
 1397TIP3   OH225681   0.039   4.704   3.714 -0.1884 -0.1640  0.3000
 1397TIP3    H125682  -0.044   4.690   3.759 -0.6765 -1.6601 -0.9327
 1397TIP3    H225683   0.036   4.795   3.685 -1.4665 -0.2211  0.1745
 1398TIP3   OH225684   5.598   0.689  12.878  0.5393  0.7082 -0.3816
 1398TIP3    H125685   5.623   0.720  12.791  1.0356 -2.1284 -1.3634
 1398TIP3    H225686   5.502   0.698  12.881  0.4031 -0.0932 -1.6664
 1399TIP3   OH225687   3.573   0.117   0.991 -0.1140 -0.2146  0.1946
 1399TIP3    H125688   3.660   0.145   1.019 -0.1461  1.4253 -1.1923
 1399TIP3    H225689   3.512   0.165   1.047 -0.1368  0.5034 -0.4323
 1400TIP3   OH225690   5.005   6.269  15.148 -0.5349 -0.4242  0.5795
 1400TIP3    H125691   5.067   6.251  15.218 -0.1139 -0.8886  0.0955
 1400TIP3    H225692   4.937   6.203  15.158  0.3229 -1.5023 -0.3773
 1401TIP3   OH225693   5.254   5.786   4.085 -0.0637  0.1162 -0.2212
 1401TIP3    H125694   5.185   5.726   4.114  0.4143 -0.7658 -0.8626
 1401TIP3    H225695   5.326   5.729   4.058  0.0327  0.9211 -1.7944
 1402TIP3   OH225696   6.274   1.726   1.119 -0.4769  0.0824  0.2249
 1402TIP3    H125697   6.353   1.767   1.154 -0.7410  1.6034 -0.8740
 1402TIP3    H225698   6.296   1.633   1.113  1.7453  0.6177 -1.3235
 1403TIP3   OH225699   6.182   4.078  16.437  0.1819 -0.3205 -0.1003
 1403TIP3    H125700   6.140   4.143  16.381 -0.3278 -1.3184 -0.9048
 1403TIP3    H225701   6.268   4.116  16.456 -0.7185  1.3683  0.8957
 1404TIP3   OH225702   6.177   1.971   3.551 -0.1538 -0.1158  0.0554
 1404TIP3    H125703   6.158   1.879   3.534 -0.4744  0.0072 -0.2697
 1404TIP3    H225704   6.093   2.008   3.578 -0.2919  0.3338 -0.9472
 1405TIP3   OH225705   6.112   4.203  11.835 -0.0349 -0.1359  0.1226
 1405TIP3    H125706   6.207   4.211  11.838  0.0245 -1.1306  1.6282
 1405TIP3    H225707   6.093   4.181  11.744  1.1672 -0.0084 -0.1724
 1406TIP3   OH225708   0.068   5.798  14.563  0.5514 -0.5275 -0.3957
 1406TIP3    H125709   0.012   5.778  14.638  1.6448  0.9677  0.9129
 1406TIP3    H225710   0.022   5.866  14.515  0.1991 -0.9489 -0.6629
 1407TIP3   OH225711   2.627   2.492  12.481  0.9388 -0.0567  0.0317
 1407TIP3    H125712   2.721   2.491  12.499  0.8963  1.2746  0.4292
 1407TIP3    H225713   2.590   2.550  12.548 -0.2640 -1.0228  0.2546
 1408TIP3   OH225714   1.055   4.037  12.773 -0.2918 -0.1834 -0.1543
 1408TIP3    H125715   1.125   4.089  12.811 -1.2147  1.2183 -0.3297
 1408TIP3    H225716   1.079   3.946  12.794  0.8882  0.3463  0.8956
 1409TIP3   OH225717   3.858   4.834  14.416 -0.2393 -0.2564  0.4522
 1409TIP3    H125718   3.812   4.782  14.350 -0.6849 -0.3689  0.8514
 1409TIP3    H225719   3.943   4.792  14.424 -0.1335 -0.1690 -0.1413
 1410TIP3   OH225720   6.032   6.074  15.487  0.2711 -0.1981  0.3105
 1410TIP3    H125721   5.941   6.047  15.503 -0.8322  2.3176 -1.0276
 1410TIP3    H225722   6.063   6.015  15.418 -1.0774  0.1231 -0.6125
 1411TIP3   OH225723   4.677   5.810   6.336 -0.4089  0.3610  0.4566
 1411TIP3    H125724   4.740   5.855   6.281 -1.6396  1.1769 -0.3536
 1411TIP3    H225725   4.661   5.726   6.292 -1.1041  0.8528 -0.2588
 1412TIP3   OH225726   1.635   5.543  13.660 -0.2602 -0.4756  0.0184
 1412TIP3    H125727   1.666   5.515  13.746  0.8963  0.3243 -0.1167
 1412TIP3    H225728   1.555   5.594  13.679  0.8685  1.0870  0.8098
 1413TIP3   OH225729   1.422   0.394   3.823  0.3524  0.6772  0.2783
 1413TIP3    H125730   1.358   0.404   3.894  0.3810  1.9316  0.1531
 1413TIP3    H225731   1.390   0.321   3.771 -1.9153  2.2713 -0.7157
 1414TIP3   OH225732   5.699   4.889  11.962 -0.5471 -0.0313  0.6039
 1414TIP3    H125733   5.641   4.815  11.976 -0.0009 -0.6826 -0.4237
 1414TIP3    H225734   5.654   4.944  11.899  0.1073 -0.7758 -0.5633
 1415TIP3   OH225735   4.530   3.213  15.383  0.4355 -0.6377 -0.5983
 1415TIP3    H125736   4.567   3.211  15.472  0.9436  0.3607 -0.7754
 1415TIP3    H225737   4.460   3.279  15.389 -0.9485 -2.0718 -0.4213
 1416TIP3   OH225738   6.833   1.590   5.417 -0.2099 -0.1694  0.4035
 1416TIP3    H125739   6.825   1.509   5.366  1.3277 -0.6012  0.8027
 1416TIP3    H225740   6.826   1.562   5.508  1.8368 -0.1089  0.6222
 1417TIP3   OH225741   4.612   3.700  10.336 -0.2833 -0.8049  0.6632
 1417TIP3    H125742   4.536   3.753  10.361  0.7857  1.2276 -0.1478
 1417TIP3    H225743   4.577   3.612  10.324 -2.2882 -0.1655  1.3713
 1418TIP3   OH225744   3.819   5.860   0.276  0.3309 -0.1799 -0.3871
 1418TIP3    H125745   3.761   5.790   0.305  1.0957 -0.4001  0.6583
 1418TIP3    H225746   3.780   5.940   0.311  0.6604 -0.3324  0.3506
 1419TIP3   OH225747   1.644   6.355   5.590  0.1125  0.0729  0.1071
 1419TIP3    H125748   1.655   6.306   5.672 -0.5515 -0.0335  0.1362
 1419TIP3    H225749   1.554   6.387   5.593  0.7569  2.0019  0.4663
 1420TIP3   OH225750   6.777   2.354   5.444 -0.0477 -0.1173 -0.1209
 1420TIP3    H125751   6.716   2.361   5.517 -1.6911  2.2723 -1.5772
 1420TIP3    H225752   6.828   2.275   5.463 -1.9507 -0.8908  2.3806
 1421TIP3   OH225753   5.852   3.756   5.992  0.3340  0.6229 -0.5072
 1421TIP3    H125754   5.904   3.798   6.061 -0.8058  0.4476  0.4959
 1421TIP3    H225755   5.781   3.818   5.976 -0.7921 -0.4167  0.2581
 1422TIP3   OH225756   1.002   2.370  11.062  0.2628  0.0061  0.2456
 1422TIP3    H125757   1.006   2.289  11.011  0.1699 -0.5954  1.1712
 1422TIP3    H225758   0.967   2.435  11.001  1.2185 -0.4180 -0.7880
 1423TIP3   OH225759   5.993   2.798   2.347 -0.3561  0.6288  0.3462
 1423TIP3    H125760   6.056   2.870   2.340  1.9638 -1.0372  2.1699
 1423TIP3    H225761   5.937   2.822   2.421  0.3044  0.6592  0.8477
 1424TIP3   OH225762   3.075   6.400  14.859 -0.2855  0.3661  0.2943
 1424TIP3    H125763   3.073   6.469  14.793  0.0505  0.8248  0.7585
 1424TIP3    H225764   2.992   6.354  14.848  0.8489 -1.3331 -2.3062
 1425TIP3   OH225765   2.866   5.794  14.509  0.2235 -0.6130 -0.3426
 1425TIP3    H125766   2.901   5.837  14.430  0.7637 -1.0296 -0.3423
 1425TIP3    H225767   2.941   5.746  14.544 -0.4556 -1.9271 -0.6022
 1426TIP3   OH225768   4.766   0.775  13.455  0.3808 -0.2311 -0.1975
 1426TIP3    H125769   4.763   0.842  13.387  1.0711  1.4324  1.3183
 1426TIP3    H225770   4.825   0.709  13.421 -0.4057 -0.1696 -1.7899
 1427TIP3   OH225771   5.674   1.919  14.835 -0.1576 -0.0960  1.1487
 1427TIP3    H125772   5.655   1.985  14.902  1.9468 -0.6071  2.3199
 1427TIP3    H225773   5.631   1.952  14.756 -0.6210  1.7864  2.1391
 1428TIP3   OH225774   1.829   5.416  13.134 -0.5253  0.1223 -0.1176
 1428TIP3    H125775   1.746   5.405  13.180 -0.7342 -0.1577 -0.5556
 1428TIP3    H225776   1.895   5.383  13.194 -0.8998 -1.2859 -0.4442
 1429TIP3   OH225777   0.041   0.788  14.922  0.5596  0.6007  0.3870
 1429TIP3    H125778   0.133   0.812  14.937  0.7388 -0.7468  1.6312
 1429TIP3    H225779   0.011   0.851  14.857  2.3788  1.0430 -0.0948
 1430TIP3   OH225780   4.105   6.485   4.334 -0.3677  0.4473  0.3130
 1430TIP3    H125781   4.129   6.556   4.394  1.8908 -1.2893  1.6589
 1430TIP3    H225782   4.073   6.415   4.392  0.2606 -0.6825 -0.6674
 1431TIP3   OH225783   4.099   2.923   1.238 -0.5022  0.4006  0.0133
 1431TIP3    H125784   4.176   2.870   1.259 -0.4392  1.1825  2.0102
 1431TIP3    H225785   4.136   3.008   1.213 -0.7030  0.7066  0.7475
 1432TIP3   OH225786   1.542   6.498  15.349 -0.3690  0.4443 -0.4658
 1432TIP3    H125787   1.481   6.562  15.313 -0.5805  0.2078 -0.5300
 1432TIP3    H225788   1.540   6.425  15.287 -0.3684  0.2407 -0.2271
 1433TIP3   OH225789   5.398   6.819   0.108 -0.5269 -0.4015 -0.0371
 1433TIP3    H125790   5.309   6.849   0.128 -0.6165 -0.1715 -0.7490
 1433TIP3    H225791   5.409   6.839   0.015  1.5935  2.9670  0.7577
 1434TIP3   OH225792   5.632   2.646   0.085  0.6320 -0.9389  0.5199
 1434TIP3    H125793   5.552   2.693   0.064  0.2955 -2.2999 -1.5953
 1434TIP3    H225794   5.644   2.658   0.179  0.1023  2.5013  0.2640
 1435TIP3   OH225795   4.157   5.648  13.995 -0.0865  0.4752 -0.1962
 1435TIP3    H125796   4.222   5.611  13.935  0.3062  0.6034  0.1454
 1435TIP3    H225797   4.103   5.573  14.021  0.6843  0.1338  0.4672
 1436TIP3   OH225798   6.801   1.539   5.673  0.3232  0.0723  0.1456
 1436TIP3    H125799   6.810   1.562   5.765  1.0647  2.6965 -0.5016
 1436TIP3    H225800   6.711   1.505   5.665  0.2555 -0.2044  1.8019
 1437TIP3   OH225801   1.933   2.260   3.236 -0.3574 -0.5999  0.1176
 1437TIP3    H125802   1.930   2.263   3.140  0.1084 -2.2508  0.0131
 1437TIP3    H225803   2.026   2.257   3.257 -0.4734 -1.4540  0.5507
 1438TIP3   OH225804   6.561   3.578   0.079  0.6075 -0.2174  0.4170
 1438TIP3    H125805   6.636   3.519   0.077 -0.3206 -1.4109  0.0266
 1438TIP3    H225806   6.564   3.617   0.166  1.4077 -0.6046  0.5711
 1439TIP3   OH225807   6.259   0.050  14.042  0.0053  0.3512 -0.5105
 1439TIP3    H125808   6.349   0.076  14.064  0.3883  0.6296 -2.2095
 1439TIP3    H225809   6.207   0.129  14.056  0.0563  0.2519  0.2685
 1440TIP3   OH225810   4.984   3.428  13.290 -0.2544 -0.3282 -0.6587
 1440TIP3    H125811   4.917   3.412  13.356  1.2641 -2.0318  0.5656
 1440TIP3    H225812   5.044   3.490  13.331  0.9280 -1.7225 -0.2044
 1441TIP3   OH225813   1.950   5.258  15.055  0.0008  0.1243  0.1553
 1441TIP3    H125814   2.001   5.237  15.134 -0.8948 -0.2636  0.6390
 1441TIP3    H225815   2.006   5.229  14.983  1.9238  2.6446  0.4733
 1442TIP3   OH225816   3.651   2.787  15.207 -0.0872  0.0583  0.3333
 1442TIP3    H125817   3.572   2.782  15.259 -0.4640 -0.4099 -0.2748
 1442TIP3    H225818   3.627   2.844  15.133  0.2528  0.2137  0.3402
 1443TIP3   OH225819   5.330   0.444  11.440  0.0335 -0.1192 -0.1906
 1443TIP3    H125820   5.380   0.411  11.515 -0.1194  0.6439  0.2554
 1443TIP3    H225821   5.393   0.499  11.392  0.0255 -0.3137 -0.4292
 1444TIP3   OH225822   3.609   2.504   1.164 -0.4257  0.5543  0.0726
 1444TIP3    H125823   3.619   2.551   1.081  0.6345 -1.3708 -0.9693
 1444TIP3    H225824   3.526   2.457   1.155  0.3606 -0.7979 -0.5839
 1445TIP3   OH225825   3.998   0.970  10.948  0.1336 -0.7071 -0.0375
 1445TIP3    H125826   4.070   0.964  10.884 -0.7389  1.9178 -1.4311
 1445TIP3    H225827   4.041   0.993  11.030  0.9961 -0.3192 -0.5803
 1446TIP3   OH225828   1.723   4.191  13.099 -0.2351  0.6346  0.0664
 1446TIP3    H125829   1.768   4.109  13.120  1.6965  1.7383  0.4796
 1446TIP3    H225830   1.630   4.168  13.102  0.2263 -1.4815  0.3679
 1447TIP3   OH225831   5.418   6.780  15.727 -0.2782 -0.7107  0.3451
 1447TIP3    H125832   5.351   6.722  15.691  0.1973 -0.4726 -1.0021
 1447TIP3    H225833   5.397   6.866  15.690 -1.0545  0.0456  2.4213
 1448TIP3   OH225834   6.131   2.151  16.154  0.7564  0.2359  1.0475
 1448TIP3    H125835   6.180   2.231  16.134  1.6001 -0.6460 -0.6198
 1448TIP3    H225836   6.191   2.080  16.132 -1.4182 -0.9215 -1.7892
 1449TIP3   OH225837   6.105   3.942  11.094  0.2775  0.1903 -0.1098
 1449TIP3    H125838   6.145   3.936  11.007  1.5067 -0.0620  0.4421
 1449TIP3    H225839   6.012   3.924  11.079  0.5314 -0.2687 -1.3098
 1450TIP3   OH225840   0.040   0.054   0.054  0.1246  0.0075  0.3347
 1450TIP3    H125841   0.019   0.025   0.143  1.2614  2.7151  1.6002
 1450TIP3    H225842   0.127   0.092   0.061  0.2644  0.2752 -1.9856
 1451TIP3   OH225843   3.093   2.528  12.961 -0.2632  0.0341  0.2344
 1451TIP3    H125844   3.146   2.603  12.935 -0.9071 -0.4874 -3.0174
 1451TIP3    H225845   3.037   2.561  13.031  2.6575  1.2147  2.2240
 1452TIP3   OH225846   2.810   3.003  15.489  0.8015 -0.3252 -0.2472
 1452TIP3    H125847   2.870   3.068  15.453 -0.4896  1.0419 -0.0007
 1452TIP3    H225848   2.819   2.928  15.430  1.6178  0.4161 -1.1086
 1453TIP3   OH225849   5.026   4.586   2.415 -0.0073  0.6919  0.5254
 1453TIP3    H125850   5.017   4.680   2.402 -0.7574  0.7139  1.1523
 1453TIP3    H225851   5.117   4.574   2.443 -0.5505  1.5537  2.9162
 1454TIP3   OH225852   3.828   4.883  11.991  0.4443  0.1527  0.1359
 1454TIP3    H125853   3.749   4.925  12.024 -0.2893 -0.6640 -0.5413
 1454TIP3    H225854   3.895   4.903  12.056 -0.2174  1.1930  0.5175
 1455TIP3   OH225855   4.534   1.404   5.820  0.5974  0.0616  0.1465
 1455TIP3    H125856   4.504   1.489   5.850 -1.7216 -0.4779 -0.4354
 1455TIP3    H225857   4.616   1.422   5.773 -0.9458  2.3452 -1.9589
 1456TIP3   OH225858   3.039   3.600  15.340 -0.2219 -0.1465 -0.4791
 1456TIP3    H125859   2.999   3.636  15.418 -1.5236  0.6115 -1.4693
 1456TIP3    H225860   3.123   3.564  15.370 -0.9264 -0.3412  1.3326
 1457TIP3   OH225861   3.984   3.417  12.030 -0.4727 -0.5249 -0.1720
 1457TIP3    H125862   4.067   3.375  12.053 -0.2791 -0.1013 -0.0949
 1457TIP3    H225863   3.934   3.417  12.111 -1.7550 -3.4510 -0.8262
 1458TIP3   OH225864   3.374   1.206  16.114 -0.0456 -0.2549 -0.1635
 1458TIP3    H125865   3.348   1.273  16.050  1.8782 -1.0088 -1.8736
 1458TIP3    H225866   3.315   1.133  16.098  1.2616 -0.9658 -2.1634
 1459TIP3   OH225867   0.586   0.440  13.931  0.5723 -0.0053  0.1189
 1459TIP3    H125868   0.649   0.437  13.859  0.8085 -1.8063  0.3467
 1459TIP3    H225869   0.640   0.450  14.009  0.6977 -2.0058  0.3575
 1460TIP3   OH225870   4.218   1.483   1.169 -0.0367  0.6254  0.0972
 1460TIP3    H125871   4.251   1.442   1.250 -1.5857 -0.5832  0.1673
 1460TIP3    H225872   4.261   1.434   1.099 -0.8862 -0.2955  0.1950
 1461TIP3   OH225873   5.431   1.610   2.419  0.0590  0.2680  0.7847
 1461TIP3    H125874   5.413   1.554   2.344 -0.4465  0.9748  0.3754
 1461TIP3    H225875   5.404   1.697   2.392  0.0243  0.5657  1.7301
 1462TIP3   OH225876   0.196   5.988  16.799  0.1069 -0.3025  0.3270
 1462TIP3    H125877   0.207   5.896  16.821  3.5008 -0.5465 -1.6246
 1462TIP3    H225878   0.252   6.035  16.861  1.8708 -0.0847 -1.3259
 1463TIP3   OH225879   0.751   2.177   2.565  0.4223  0.4174  0.1491
 1463TIP3    H125880   0.660   2.184   2.592  0.5141 -0.9790  0.9145
 1463TIP3    H225881   0.750   2.116   2.491  0.7869 -0.1079  0.5655
 1464TIP3   OH225882   3.571   5.865   1.471 -0.0553  0.1823 -0.6548
 1464TIP3    H125883   3.560   5.958   1.454  0.3330  0.5471  0.9222
 1464TIP3    H225884   3.645   5.839   1.415 -0.6703  0.6253 -1.6917
 1465TIP3   OH225885   3.128   5.347   3.107  0.0307 -0.4463  0.3836
 1465TIP3    H125886   3.107   5.435   3.076  3.3773 -0.2768 -2.0369
 1465TIP3    H225887   3.052   5.294   3.084 -1.2510  1.4203  0.0997
 1466TIP3   OH225888   1.932   1.297  16.988  0.6000 -0.4622 -0.1030
 1466TIP3    H125889   1.928   1.260  17.076  0.0203 -0.4138 -0.1111
 1466TIP3    H225890   1.884   1.236  16.933  3.0793 -1.8726 -0.8845
 1467TIP3   OH225891   5.506   1.776  15.363  0.6780  1.0496  0.2794
 1467TIP3    H125892   5.419   1.804  15.391  1.3282  1.4413  2.0121
 1467TIP3    H225893   5.523   1.829  15.285 -1.4189 -0.4928 -1.3714
 1468TIP3   OH225894   5.766   3.978  12.573 -0.3418 -0.4300 -0.0071
 1468TIP3    H125895   5.834   4.031  12.533  0.2693 -0.7459  0.5973
 1468TIP3    H225896   5.803   3.890  12.576 -0.8865 -0.6629  0.0760
 1469TIP3   OH225897   1.780   4.554   4.482 -0.1490  0.1494 -0.1699
 1469TIP3    H125898   1.873   4.556   4.460 -0.1520 -0.7419 -0.3063
 1469TIP3    H225899   1.741   4.498   4.415 -0.9345  1.1769 -0.6154
 1470TIP3   OH225900   5.280   1.983   4.499 -0.2060 -0.3394 -0.5544
 1470TIP3    H125901   5.262   1.937   4.417 -2.2801 -1.2730  0.3489
 1470TIP3    H225902   5.195   1.988   4.543  0.7496  0.6121  1.3067
 1471TIP3   OH225903   5.802   6.491   6.029  0.0582 -0.2090  0.1317
 1471TIP3    H125904   5.810   6.413   5.975  0.9461 -0.5639  0.7435
 1471TIP3    H225905   5.803   6.458   6.119 -0.0540  0.4654  0.3883
 1472TIP3   OH225906   6.715   0.945   5.167  0.5132  0.0169  0.4207
 1472TIP3    H125907   6.751   0.980   5.085  0.7249 -1.6778 -0.2558
 1472TIP3    H225908   6.791   0.910   5.213  0.0589 -1.4543  0.0834
 1473TIP3   OH225909   5.493   0.667   4.470  0.4497 -0.0890 -0.3579
 1473TIP3    H125910   5.541   0.607   4.412  1.6009 -0.1601  0.6336
 1473TIP3    H225911   5.561   0.720   4.511 -0.4038  0.4705  0.3741
 1474TIP3   OH225912   5.085   0.246  12.096  0.0069 -0.5462  0.6292
 1474TIP3    H125913   5.155   0.206  12.043 -0.3701  0.5939 -0.8034
 1474TIP3    H225914   5.047   0.173  12.144  0.0108 -1.7735 -1.1221
 1475TIP3   OH225915   5.758   3.996  12.017 -0.7661  0.1282  0.5848
 1475TIP3    H125916   5.703   3.929  12.058  0.5410 -1.3966 -0.0792
 1475TIP3    H225917   5.755   4.069  12.079 -0.6791 -1.2579  2.3083
 1476TIP3   OH225918   1.090   4.810  16.304 -0.1970 -0.5839  0.4400
 1476TIP3    H125919   0.996   4.818  16.290 -0.8344 -2.8096  2.7363
 1476TIP3    H225920   1.099   4.778  16.394  2.8615  1.2125  0.9429
 1477TIP3   OH225921   5.036   4.135  15.655  0.8059  0.3607  0.1579
 1477TIP3    H125922   5.127   4.135  15.685  1.4691 -1.0870 -1.6935
 1477TIP3    H225923   5.010   4.043  15.657  0.1975  0.4674 -1.5777
 1478TIP3   OH225924   2.990   0.786   4.425  0.0117  0.5976  0.0397
 1478TIP3    H125925   2.909   0.831   4.402  1.2093  2.8678  0.0013
 1478TIP3    H225926   3.055   0.818   4.363  2.1467  2.9927  3.1937
 1479TIP3   OH225927   1.686   1.764   5.676 -0.2333  0.0544 -0.2759
 1479TIP3    H125928   1.672   1.711   5.754 -1.5242 -1.2506 -1.3413
 1479TIP3    H225929   1.646   1.849   5.697 -0.8427 -0.3804  0.3595
 1480TIP3   OH225930   0.871   6.555   3.309  0.0827  0.0492 -0.3012
 1480TIP3    H125931   0.865   6.459   3.311 -1.8609  0.1165 -1.2587
 1480TIP3    H225932   0.826   6.580   3.229  1.4887  1.7397 -0.6274
 1481TIP3   OH225933   0.100   2.980  10.822  0.0265  0.7134 -0.9955
 1481TIP3    H125934   0.089   2.962  10.729  0.6020  0.4324 -1.0120
 1481TIP3    H225935   0.017   3.019  10.849 -1.1043 -1.5068 -1.0779
 1482TIP3   OH225936   2.356   1.012  11.645 -0.8435 -0.5195 -0.4357
 1482TIP3    H125937   2.263   1.003  11.667 -1.3681  1.2615 -1.6661
 1482TIP3    H225938   2.359   0.999  11.550  0.2888 -1.2369 -0.3161
 1483TIP3   OH225939   4.242   5.252   2.188  0.6439 -0.3384 -0.5386
 1483TIP3    H125940   4.255   5.344   2.164  0.9078 -0.1725  0.2123
 1483TIP3    H225941   4.175   5.221   2.128  2.1591 -0.2990 -2.3275
 1484TIP3   OH225942   4.884   1.910   2.692 -0.0144  0.8704  0.1157
 1484TIP3    H125943   4.878   1.987   2.635 -2.9799  2.3456  2.1639
 1484TIP3    H225944   4.813   1.921   2.755 -1.3144 -4.1007 -0.0785
 1485TIP3   OH225945   0.633   4.184  12.743  0.2784 -0.3590 -0.3186
 1485TIP3    H125946   0.582   4.223  12.672  1.3642 -0.0942 -0.9856
 1485TIP3    H225947   0.659   4.099  12.710  0.2505 -0.5012  0.0238
 1486TIP3   OH225948   0.760   5.022   2.701  0.3638 -0.4459  0.4564
 1486TIP3    H125949   0.666   5.017   2.685 -0.3542  1.7860  3.1715
 1486TIP3    H225950   0.795   5.070   2.626 -1.0066  0.3369  0.2870
 1487TIP3   OH225951   3.424   3.634  14.670 -0.0112 -0.1853  0.0595
 1487TIP3    H125952   3.338   3.607  14.638  0.5164 -1.0783 -0.6303
 1487TIP3    H225953   3.406   3.673  14.756 -1.0842 -0.4925 -0.0124
 1488TIP3   OH225954   5.351   6.444   5.435 -0.3323 -0.2528  0.1909
 1488TIP3    H125955   5.287   6.469   5.501  0.8958  0.8922  0.9798
 1488TIP3    H225956   5.423   6.405   5.484  0.7423  0.9104 -0.3999
 1489TIP3   OH225957   3.024   4.145   0.659 -0.1508  0.1960 -0.5012
 1489TIP3    H125958   2.998   4.228   0.701  0.3950 -0.0315  0.3189
 1489TIP3    H225959   2.942   4.102   0.638 -0.4417  0.4750  0.0351
 1490TIP3   OH225960   1.152   6.200   4.768  0.2265  0.0687  0.2687
 1490TIP3    H125961   1.101   6.127   4.733 -0.0185 -0.1321  1.0264
 1490TIP3    H225962   1.226   6.158   4.811 -0.2358  0.2271  1.2366
 1491TIP3   OH225963   5.076   5.843   1.003  0.0752 -0.1920  0.1121
 1491TIP3    H125964   5.063   5.819   0.911  0.3631  0.7835 -0.1961
 1491TIP3    H225965   5.134   5.775   1.037  1.0038  0.1236 -0.7810
 1492TIP3   OH225966   5.298   0.761   2.650  0.3640 -0.0162 -0.0020
 1492TIP3    H125967   5.336   0.781   2.565 -0.0601 -0.4701 -0.3015
 1492TIP3    H225968   5.209   0.796   2.645  0.1992 -0.4167  0.1037
 1493TIP3   OH225969   6.667   6.414  15.600 -0.1081 -0.2321 -0.2301
 1493TIP3    H125970   6.692   6.334  15.553 -0.8434 -1.2264  0.9995
 1493TIP3    H225971   6.668   6.389  15.692  0.7181  1.5004  0.2880
 1494TIP3   OH225972   4.275   1.468   2.813  0.4400 -0.1091  0.5975
 1494TIP3    H125973   4.239   1.557   2.820 -0.2301 -0.4322  1.5595
 1494TIP3    H225974   4.318   1.466   2.728  1.7016  1.5954  1.1202
 1495TIP3   OH225975   2.249   4.777  11.199  0.0031 -0.3999 -0.3638
 1495TIP3    H125976   2.247   4.872  11.196  0.6501 -0.3571  0.1652
 1495TIP3    H225977   2.342   4.754  11.191 -0.0812 -0.9501  0.0848
 1496TIP3   OH225978   6.047   4.271  16.305  0.0332 -0.1725 -0.0157
 1496TIP3    H125979   5.993   4.219  16.244 -0.6626  0.6985 -0.1642
 1496TIP3    H225980   5.983   4.320  16.357  0.6500 -0.2741  0.8668
 1497TIP3   OH225981   1.785   1.555   6.200  0.0772  0.3690  0.4101
 1497TIP3    H125982   1.856   1.568   6.137 -0.4951 -0.6250 -0.4792
 1497TIP3    H225983   1.829   1.552   6.285  1.1401 -0.3705 -0.1348
 1498TIP3   OH225984   6.561   0.119  14.422 -0.3569 -0.1116  0.1828
 1498TIP3    H125985   6.578   0.038  14.470  2.3631  0.1598 -0.1845
 1498TIP3    H225986   6.556   0.186  14.491  0.6880 -0.1364  0.2968
 1499TIP3   OH225987   4.384   3.828  11.100  0.3688  0.1208 -0.0900
 1499TIP3    H125988   4.301   3.789  11.070  0.5536  0.3339 -0.9164
 1499TIP3    H225989   4.445   3.754  11.102  0.9398  0.4472 -2.4786
 1500TIP3   OH225990   6.333   3.513   5.550 -0.3134  0.5723 -0.0942
 1500TIP3    H125991   6.358   3.606   5.546  0.7003  0.3100 -0.1681
 1500TIP3    H225992   6.290   3.497   5.466  1.0547  0.5638 -0.8180
 1501TIP3   OH225993   6.130   4.331  14.726  0.0465 -0.5307 -0.7476
 1501TIP3    H125994   6.188   4.404  14.702 -0.1262 -0.3282 -0.5557
 1501TIP3    H225995   6.043   4.361  14.701 -0.5303  0.7396  2.3445
 1502TIP3   OH225996   1.253   2.334   0.188  0.4779  0.4252  0.1397
 1502TIP3    H125997   1.308   2.368   0.118 -0.5461  1.0700 -0.3631
 1502TIP3    H225998   1.191   2.404   0.208 -0.1189 -0.2501  0.7485
 1503TIP3   OH225999   3.919   1.412   0.787 -0.4221 -0.5744  0.0196
 1503TIP3    H126000   3.885   1.488   0.741 -1.8584 -0.6380  0.8966
 1503TIP3    H226001   3.968   1.448   0.861  3.5572 -0.4044 -2.4378
 1504TIP3   OH226002   5.607   4.173  11.174 -0.1876  0.7402  0.1788
 1504TIP3    H126003   5.564   4.129  11.100  0.3649 -0.7353  0.6975
 1504TIP3    H226004   5.564   4.258  11.179  0.0842  1.0680 -2.1356
 1505TIP3   OH226005   2.028   4.091   0.978  0.4583  0.1358 -0.1410
 1505TIP3    H126006   2.061   4.106   0.890  0.9804 -1.0553 -0.1772
 1505TIP3    H226007   2.047   3.998   0.995 -2.3569 -0.5176  0.0483
 1506TIP3   OH226008   6.664   1.237   3.756 -0.0455 -0.6211 -0.0605
 1506TIP3    H126009   6.707   1.193   3.829 -0.8573 -0.6223  0.4334
 1506TIP3    H226010   6.602   1.173   3.722 -2.0753  0.4300  1.3939
 1507TIP3   OH226011   3.556   0.028  12.329 -0.0070  0.1731  0.1382
 1507TIP3    H126012   3.570   0.025  12.234  0.2860  2.7990  0.0131
 1507TIP3    H226013   3.492   0.098  12.342  0.1995  0.0930  1.9110
 1508TIP3   OH226014   1.034   1.359   0.978  0.1227  0.1517 -0.2131
 1508TIP3    H126015   0.980   1.432   1.008  0.7893  0.7986 -0.5515
 1508TIP3    H226016   1.088   1.336   1.054  1.1047  1.1344 -0.5886
 1509TIP3   OH226017   6.522   4.223  14.596  0.2881 -0.0894  0.1205
 1509TIP3    H126018   6.507   4.150  14.655  1.4698 -0.4065  0.0521
 1509TIP3    H226019   6.570   4.287  14.648  0.5115  0.0280 -0.2194
 1510TIP3   OH226020   3.748   0.374   0.862  0.4165  0.4876  0.0312
 1510TIP3    H126021   3.778   0.331   0.942 -0.3507  1.7523  1.0248
 1510TIP3    H226022   3.653   0.367   0.865  0.2434  2.5060  0.3989
 1511TIP3   OH226023   2.756   1.304   0.735 -0.5199 -0.2754 -0.6124
 1511TIP3    H126024   2.783   1.293   0.644 -0.3691 -3.3001 -0.2977
 1511TIP3    H226025   2.665   1.333   0.730 -0.2395  0.4919 -1.6839
 1512TIP3   OH226026   6.181   2.064  13.936  0.0672  0.3316  0.0953
 1512TIP3    H126027   6.254   2.058  13.874 -1.4119  0.4054 -1.7066
 1512TIP3    H226028   6.131   2.141  13.908 -1.1261 -0.1450  0.8368
 1513TIP3   OH226029   4.549   5.511   5.469 -0.0120 -0.8292 -0.2111
 1513TIP3    H126030   4.479   5.473   5.522 -2.7366  0.3527 -2.6507
 1513TIP3    H226031   4.553   5.603   5.497  2.6375 -1.4272  1.7921
 1514TIP3   OH226032   0.722   4.537   6.051 -0.0955  0.4220 -0.4228
 1514TIP3    H126033   0.671   4.503   6.124  0.8314  0.3540  0.2018
 1514TIP3    H226034   0.715   4.470   5.983  0.4259 -0.3090  0.2303
 1515TIP3   OH226035   3.464   4.280  14.297  0.0579  0.2859  0.6586
 1515TIP3    H126036   3.409   4.227  14.239 -0.1790  0.2898  0.8780
 1515TIP3    H226037   3.420   4.275  14.382 -0.6248  1.7717  0.4324
 1516TIP3   OH226038   6.216   6.585  13.450 -0.0005 -0.3741 -0.4720
 1516TIP3    H126039   6.277   6.533  13.503  1.3697  2.2236  0.6457
 1516TIP3    H226040   6.272   6.642  13.398 -1.4641  0.8650 -0.7527
 1517TIP3   OH226041   6.594   5.888  13.787 -0.2224  0.6486 -0.1549
 1517TIP3    H126042   6.589   5.983  13.783  1.5993  0.7603 -0.6690
 1517TIP3    H226043   6.594   5.868  13.881 -0.9629  1.1053 -0.0459
 1518TIP3   OH226044   0.527   2.135   3.402 -0.2134 -0.1312  0.1097
 1518TIP3    H126045   0.473   2.066   3.365  0.5866 -1.1776  0.8468
 1518TIP3    H226046   0.478   2.216   3.385 -0.1264 -0.5693 -2.8265
 1519TIP3   OH226047   3.132   6.743   0.828 -0.1403 -0.0192  0.5195
 1519TIP3    H126048   3.214   6.719   0.784  0.2287 -0.1501  1.2555
 1519TIP3    H226049   3.158   6.760   0.919 -0.7302  1.1754  0.4838
 1520TIP3   OH226050   3.411   6.427  16.804  0.1266 -0.4051 -0.4695
 1520TIP3    H126051   3.451   6.477  16.732  0.3601 -0.2545 -0.2420
 1520TIP3    H226052   3.331   6.391  16.767  0.6335 -0.9811 -1.0401
 1521TIP3   OH226053   3.450   1.942  16.144  0.6018  0.3523 -0.2746
 1521TIP3    H126054   3.518   1.960  16.209  0.0806  0.3773  0.2798
 1521TIP3    H226055   3.441   2.025  16.096  1.3412  0.1801 -0.7221
 1522TIP3   OH226056   6.070   3.294  12.300 -0.3479  0.1717 -0.0487
 1522TIP3    H126057   6.143   3.261  12.352 -0.6952 -3.9474 -1.7997
 1522TIP3    H226058   6.101   3.292  12.210 -1.5201  1.8680 -0.5562
 1523TIP3   OH226059   0.539   1.124   1.326 -0.0077 -0.2466 -0.6796
 1523TIP3    H126060   0.473   1.070   1.370  2.0388 -2.3700 -0.0065
 1523TIP3    H226061   0.538   1.095   1.235 -0.6569  0.4724 -0.9208
 1524TIP3   OH226062   5.914   0.376  13.787  0.1213 -0.1520  0.2079
 1524TIP3    H126063   5.884   0.352  13.699  0.6820 -0.1803  0.0197
 1524TIP3    H226064   5.860   0.451  13.811 -1.8444 -1.6667  0.8909
 1525TIP3   OH226065   1.176   4.957   4.052  0.5217  0.0548  0.1276
 1525TIP3    H126066   1.175   5.000   3.966  2.3799 -1.0880 -0.5227
 1525TIP3    H226067   1.255   4.989   4.094 -0.3727  0.6084  1.4716
 1526TIP3   OH226068   1.701   4.687   0.841  0.8602  0.4219 -0.0213
 1526TIP3    H126069   1.688   4.766   0.892  0.1033  1.0912 -1.1968
 1526TIP3    H226070   1.620   4.637   0.852  1.4348 -0.3381  0.9261
 1527TIP3   OH226071   0.140   0.114   3.062 -0.1749 -0.1664  0.2715
 1527TIP3    H126072   0.123   0.022   3.082 -2.5199 -0.5791 -2.8669
 1527TIP3    H226073   0.068   0.161   3.104 -1.1386 -0.2781 -1.1604
 1528TIP3   OH226074   5.272   1.079   0.701 -0.3058 -0.0948  0.6255
 1528TIP3    H126075   5.344   1.138   0.725  1.0199 -1.3358 -0.1015
 1528TIP3    H226076   5.224   1.065   0.783  1.2730 -0.4885  1.5383
 1529TIP3   OH226077   3.714   5.735  12.322  0.1503  0.5725  0.1180
 1529TIP3    H126078   3.649   5.757  12.388  0.2197  4.0876 -0.7943
 1529TIP3    H226079   3.664   5.694  12.251 -0.0108 -2.6108  1.8799
 1530TIP3   OH226080   4.846   3.189   1.662 -1.1773  0.2314 -0.9740
 1530TIP3    H126081   4.820   3.199   1.754 -1.1533 -0.0171 -0.9388
 1530TIP3    H226082   4.941   3.176   1.666 -1.5147 -2.9779 -0.7583
 1531TIP3   OH226083   2.048   5.317  15.530  0.2275  0.3944  0.3193
 1531TIP3    H126084   1.987   5.267  15.585  0.6006  0.9558  1.2752
 1531TIP3    H226085   2.106   5.361  15.592  0.0598  1.8284 -0.4889
 1532TIP3   OH226086   2.502   3.279   4.289  0.6013  0.3011  0.1920
 1532TIP3    H126087   2.447   3.356   4.270 -0.7468 -0.7959 -0.5238
 1532TIP3    H226088   2.553   3.305   4.365 -1.6055  1.0689  1.4993
 1533TIP3   OH226089   3.535   5.999   4.720 -0.0223  0.3116  0.0924
 1533TIP3    H126090   3.511   6.084   4.755  0.8415  1.1527 -1.2722
 1533TIP3    H226091   3.613   5.973   4.771 -0.7004 -0.0273  0.9908
 1534TIP3   OH226092   0.798   3.524  13.313 -0.3025 -0.0879  0.1459
 1534TIP3    H126093   0.827   3.564  13.395 -1.0374  2.2969 -0.6919
 1534TIP3    H226094   0.736   3.587  13.275  0.6790 -0.6754 -2.6805
 1535TIP3   OH226095   0.691   4.812  12.439  0.2390  0.0015  0.0979
 1535TIP3    H126096   0.636   4.844  12.510 -0.8533  1.7156 -1.4364
 1535TIP3    H226097   0.761   4.764  12.483 -2.3405 -2.2174  2.1634
 1536TIP3   OH226098   1.623   4.886   2.094  0.1744  0.5023 -0.0214
 1536TIP3    H126099   1.633   4.878   2.189 -2.2601  0.8167  0.3127
 1536TIP3    H226100   1.706   4.924   2.064  2.0449 -1.9964  1.5803
 1537TIP3   OH226101   1.094   2.426   3.605  0.1427  0.0390  0.2227
 1537TIP3    H126102   1.052   2.386   3.529  0.4736  1.7237 -0.8948
 1537TIP3    H226103   1.026   2.481   3.644  0.3976  0.3045  0.2963
 1538TIP3   OH226104   1.392   2.491  14.178 -0.1273  0.6633  0.1896
 1538TIP3    H126105   1.475   2.525  14.209  0.4980  0.7929 -1.4967
 1538TIP3    H226106   1.328   2.518  14.243  0.8088  2.5327  0.3765
 1539TIP3   OH226107   2.478   2.945   6.542  0.3394 -0.1480  0.2045
 1539TIP3    H126108   2.449   2.887   6.613 -0.6631 -0.4635 -0.4509
 1539TIP3    H226109   2.412   2.935   6.474 -0.2229  2.2240  0.3021
 1540TIP3   OH226110   4.405   4.542  13.361  0.1760 -0.0906 -0.3419
 1540TIP3    H126111   4.320   4.508  13.336  0.0068 -0.1468  0.3089
 1540TIP3    H226112   4.467   4.474  13.335  0.1508  0.4427 -1.8877
 1541TIP3   OH226113   3.711   4.465   1.123  0.0726  0.1832 -0.3718
 1541TIP3    H126114   3.737   4.486   1.213 -1.0021  1.4939 -0.3271
 1541TIP3    H226115   3.616   4.452   1.128 -0.3677  2.4528 -1.6440
 1542TIP3   OH226116   3.618   1.167  15.448  0.5317  0.2619  0.0261
 1542TIP3    H126117   3.577   1.088  15.484 -1.1994  0.4489 -1.4273
 1542TIP3    H226118   3.545   1.220  15.418  1.8078  0.3204 -3.3171
 1543TIP3   OH226119   5.495   1.746   1.531  0.4267  0.5004 -0.1451
 1543TIP3    H126120   5.439   1.744   1.609  0.5182 -0.5345 -0.0973
 1543TIP3    H226121   5.561   1.813   1.551  2.3928 -1.8870  2.0819
 1544TIP3   OH226122   5.962   1.423   5.619 -0.0290  0.0376 -0.6150
 1544TIP3    H126123   6.013   1.492   5.577  0.6902  0.7969  1.3918
 1544TIP3    H226124   5.919   1.466   5.693 -0.6927 -1.3758 -0.1398
 1545TIP3   OH226125   6.537   0.150   2.269 -0.0003 -0.7559  0.2727
 1545TIP3    H126126   6.497   0.068   2.239 -3.4637  0.4051  1.2543
 1545TIP3    H226127   6.537   0.143   2.365  1.1391 -0.2391  0.3207
 1546TIP3   OH226128   2.917   1.886   2.795 -0.3171  0.3698  0.0966
 1546TIP3    H126129   2.874   1.809   2.834 -1.3452  1.1339  0.5238
 1546TIP3    H226130   3.003   1.854   2.768 -0.5483 -0.8187  0.6817
 1547TIP3   OH226131   4.969   0.986  11.720 -0.4544 -0.4881 -0.2262
 1547TIP3    H126132   4.913   1.055  11.756 -1.3689 -0.0356 -2.3295
 1547TIP3    H226133   4.909   0.914  11.701  0.1195 -0.9957 -0.1508
 1548TIP3   OH226134   2.309   4.980   5.936  0.0683  0.2160  0.1032
 1548TIP3    H126135   2.383   4.923   5.959  1.0820  1.9051  1.3133
 1548TIP3    H226136   2.232   4.924   5.943  1.1310 -1.3336 -0.1159
 1549TIP3   OH226137   4.242   1.982  16.980 -0.3005  0.4074  0.4719
 1549TIP3    H126138   4.272   1.932  16.905  1.5131  2.7432 -0.4898
 1549TIP3    H226139   4.149   1.960  16.989 -0.0141 -1.6161 -1.0102
 1550TIP3   OH226140   4.853   0.497  14.155 -0.0164 -0.4662  0.6073
 1550TIP3    H126141   4.946   0.513  14.138  0.0575  1.0785  2.1571
 1550TIP3    H226142   4.814   0.585  14.158 -1.5908 -1.1026 -0.2568
 1551TIP3   OH226143   4.521   3.609   4.119 -0.2914  0.0160  0.0120
 1551TIP3    H126144   4.467   3.597   4.041 -1.7365 -3.8679  1.3411
 1551TIP3    H226145   4.605   3.639   4.086 -1.2140 -0.2525 -2.8810
 1552TIP3   OH226146   1.891   1.838  16.951  0.2449 -0.0471  0.7875
 1552TIP3    H126147   1.931   1.766  16.901  1.5777  0.3140  1.2790
 1552TIP3    H226148   1.810   1.801  16.985 -0.1709 -0.6266 -0.7453
 1553TIP3   OH226149   1.355   3.460  16.476 -0.4601 -0.5031 -0.0556
 1553TIP3    H126150   1.350   3.365  16.465 -0.7716 -0.6181  0.9415
 1553TIP3    H226151   1.341   3.495  16.388 -0.0754 -1.3836 -0.4796
 1554TIP3   OH226152   2.295   5.549   4.836  0.0107  0.4248 -0.0683
 1554TIP3    H126153   2.371   5.548   4.894 -0.3574  0.0674  0.4154
 1554TIP3    H226154   2.220   5.553   4.895 -0.3269  2.2961 -0.5494
 1555TIP3   OH226155   3.473   6.796   5.086 -0.0526 -0.1219  0.2303
 1555TIP3    H126156   3.445   6.887   5.099 -0.5976  0.0704 -1.8385
 1555TIP3    H226157   3.416   6.764   5.015  0.7752 -1.7745  0.2695
 1556TIP3   OH226158   6.358   0.342  13.792  0.4054  0.3966  0.4679
 1556TIP3    H126159   6.370   0.416  13.731  0.8402  0.3220  0.4618
 1556TIP3    H226160   6.445   0.328  13.830  0.3150 -0.0859  0.5014
 1557TIP3   OH226161   1.924   1.578  12.841  0.2322  0.1388  0.0939
 1557TIP3    H126162   1.970   1.646  12.791 -1.1887 -0.1798 -1.7422
 1557TIP3    H226163   1.839   1.617  12.862 -0.3894 -0.8465 -0.5002
 1558TIP3   OH226164   5.862   1.800  15.713  0.2758 -0.5135  0.1494
 1558TIP3    H126165   5.772   1.770  15.704  0.1207  0.1218 -0.5088
 1558TIP3    H226166   5.857   1.873  15.775  0.1488  0.2552 -0.7331
 1559TIP3   OH226167   5.198   3.612   2.164 -0.0265  0.8035  0.2909
 1559TIP3    H126168   5.289   3.622   2.140 -0.3408  0.9911 -0.8528
 1559TIP3    H226169   5.185   3.675   2.235  0.1873  2.3458 -1.0110
 1560TIP3   OH226170   3.802   1.012  16.043  0.5714 -0.3451 -0.0376
 1560TIP3    H126171   3.714   0.989  16.012 -0.3379  1.5337  0.9805
 1560TIP3    H226172   3.787   1.080  16.108  2.7506 -0.6559  0.8534
 1561TIP3   OH226173   2.414   5.197   3.044  0.1243  0.0769  0.0866
 1561TIP3    H126174   2.347   5.149   2.994 -1.6457  0.7540  1.6638
 1561TIP3    H226175   2.491   5.141   3.039 -1.1956 -1.8730  0.0033
 1562TIP3   OH226176   0.773   5.497   6.613 -0.5121  0.0593 -0.7770
 1562TIP3    H126177   0.766   5.429   6.680  1.3108  2.0350  1.6127
 1562TIP3    H226178   0.867   5.510   6.602 -0.8061  1.4589 -1.9276
 1563TIP3   OH226179   0.691   1.408   5.392  0.0743  0.5566  0.2541
 1563TIP3    H126180   0.729   1.464   5.459  0.0604 -1.1851  1.8104
 1563TIP3    H226181   0.597   1.414   5.407  0.0918 -0.1725  0.7089
 1564TIP3   OH226182   2.599   3.816   6.297  0.4811 -0.6965 -0.8793
 1564TIP3    H126183   2.533   3.748   6.288 -0.6778  0.3425 -0.4264
 1564TIP3    H226184   2.555   3.887   6.342  2.1828 -0.3508  0.3596
 1565TIP3   OH226185   5.414   0.608  14.331  0.0877  0.4740  0.5850
 1565TIP3    H126186   5.405   0.700  14.357 -0.2332  0.4602  0.5232
 1565TIP3    H226187   5.391   0.607  14.239  2.0980  0.6753  0.0210
 1566TIP3   OH226188   6.801   6.435  14.390  0.5753  0.3198  0.0053
 1566TIP3    H126189   6.833   6.452  14.479  0.4916  0.1548  0.0658
 1566TIP3    H226190   6.706   6.439  14.397  0.4989 -1.2153  0.2405
 1567TIP3   OH226191   6.783   2.796  14.501 -0.1814 -0.0803  0.1679
 1567TIP3    H126192   6.812   2.864  14.440 -1.5981  0.9414  0.5705
 1567TIP3    H226193   6.725   2.740  14.448  0.2377 -0.4215  0.0689
 1568TIP3   OH226194   2.406   4.920   5.579  0.0021 -0.3372 -0.0383
 1568TIP3    H126195   2.469   4.992   5.576 -0.2175 -0.1671 -1.1579
 1568TIP3    H226196   2.439   4.857   5.515 -0.5139 -0.6247 -0.0280
 1569TIP3   OH226197   3.902   1.373   5.960  0.6186 -0.2745 -0.5772
 1569TIP3    H126198   3.918   1.430   5.884  1.6833 -0.6813 -0.6781
 1569TIP3    H226199   3.844   1.424   6.016  1.6887  0.9962 -0.5858
 1570TIP3   OH226200   3.704   0.660   0.831 -0.3179  0.4805  0.0280
 1570TIP3    H126201   3.768   0.589   0.843 -0.0709  0.6100 -0.5170
 1570TIP3    H226202   3.620   0.616   0.824 -0.4131  0.3483  1.5865
 1571TIP3   OH226203   1.794   4.254   0.321 -0.1081 -0.3246 -0.2322
 1571TIP3    H126204   1.815   4.182   0.380 -2.8525 -0.6787  0.4559
 1571TIP3    H226205   1.850   4.326   0.350 -0.1417 -1.0135  1.6920
 1572TIP3   OH226206   6.066   6.461  11.089 -0.5888  0.2169  0.4429
 1572TIP3    H126207   5.998   6.427  11.031 -0.7913 -0.1127  0.8625
 1572TIP3    H226208   6.146   6.418  11.061 -0.7701 -0.3031  0.7048
 1573TIP3   OH226209   3.683   1.276   3.802  0.4553 -0.2306  0.1058
 1573TIP3    H126210   3.630   1.202   3.774 -0.7629  0.9710 -0.9560
 1573TIP3    H226211   3.752   1.283   3.735 -0.7028  0.8337 -1.0557
 1574TIP3   OH226212   2.120   3.459  15.991 -0.0265 -0.4317  0.0464
 1574TIP3    H126213   2.177   3.385  15.968 -0.1354 -1.5397  2.9353
 1574TIP3    H226214   2.045   3.419  16.034 -0.8462  1.2908  0.2858
 1575TIP3   OH226215   2.311   6.557  12.240  0.1885  0.4154 -0.0469
 1575TIP3    H126216   2.275   6.469  12.247  1.2865 -0.0308  0.1952
 1575TIP3    H226217   2.289   6.584  12.151 -0.0702 -0.1413 -0.1598
 1576TIP3   OH226218   0.221   5.510  12.243  0.0689  0.4690  0.0715
 1576TIP3    H126219   0.299   5.537  12.291 -0.2676 -0.2344  1.0494
 1576TIP3    H226220   0.230   5.415  12.234 -0.9409  0.2965  0.7096
 1577TIP3   OH226221   1.874   4.405   2.533 -0.2731  0.5786 -0.4157
 1577TIP3    H126222   1.939   4.336   2.517  0.7961  1.3068  0.6073
 1577TIP3    H226223   1.883   4.425   2.627 -2.8945 -0.1826  0.0849
 1578TIP3   OH226224   4.491   0.877   5.067  0.3873  0.0561 -0.1285
 1578TIP3    H126225   4.544   0.893   4.989 -0.5879 -0.5920 -0.9586
 1578TIP3    H226226   4.535   0.926   5.137 -0.0236  2.6846 -1.5653
 1579TIP3   OH226227   4.707   3.952   2.555  0.2946  0.2364 -0.0029
 1579TIP3    H126228   4.628   3.970   2.504  1.4384  1.8631 -1.3177
 1579TIP3    H226229   4.723   4.032   2.604  2.5754  1.0533 -1.8783
 1580TIP3   OH226230   3.016   1.321  11.977  0.1038  0.1006  0.2867
 1580TIP3    H126231   3.014   1.302  12.071  1.0637 -2.2257 -0.0873
 1580TIP3    H226232   2.976   1.244  11.937 -1.2336  1.4970 -1.2105
 1581TIP3   OH226233   0.637   0.627  12.936  0.2146 -0.0633  0.2772
 1581TIP3    H126234   0.715   0.607  12.989 -1.2574 -1.3845  2.0605
 1581TIP3    H226235   0.619   0.719  12.955  0.2995 -0.2479  1.3354
 1582TIP3   OH226236   1.952   4.249   3.447  0.2678 -0.7900  0.2896
 1582TIP3    H126237   1.993   4.240   3.361 -0.0906  0.4302 -0.0285
 1582TIP3    H226238   1.913   4.336   3.446 -1.0179 -1.3223  1.1469
 1583TIP3   OH226239   4.657   1.884   0.732 -0.0280 -0.0412 -0.7029
 1583TIP3    H126240   4.656   1.978   0.750  0.2072  0.2412 -2.0266
 1583TIP3    H226241   4.568   1.855   0.751 -0.0140  0.3795  0.0348
 1584TIP3   OH226242   4.095   3.590  15.279 -0.0196  0.1764 -0.3972
 1584TIP3    H126243   4.011   3.636  15.273 -1.0752 -1.6609 -0.3086
 1584TIP3    H226244   4.132   3.619  15.362 -0.7482  0.7219 -0.2478
 1585TIP3   OH226245   4.305   0.027   0.297 -0.3775 -0.3575  0.3760
 1585TIP3    H126246   4.293   0.023   0.392 -0.9478 -0.7714  0.2872
 1585TIP3    H226247   4.333   0.118   0.281 -0.3840 -0.2544  0.9229
 1586TIP3   OH226248   5.976   5.844  11.893 -0.6182  0.1976  0.4967
 1586TIP3    H126249   5.953   5.806  11.977  0.0002  0.3759  0.7481
 1586TIP3    H226250   5.894   5.881  11.860 -1.5095 -2.2364 -0.2378
 1587TIP3   OH226251   6.402   5.045   2.770  0.2582  0.5181  0.4207
 1587TIP3    H126252   6.420   4.951   2.769  2.7711  0.9180 -1.5757
 1587TIP3    H226253   6.310   5.051   2.793  0.1686 -2.3798  1.2640
 1588TIP3   OH226254   1.370   6.290   5.150  0.0296 -0.2821 -0.0446
 1588TIP3    H126255   1.420   6.215   5.183 -1.4405 -1.0201  0.5458
 1588TIP3    H226256   1.405   6.304   5.062  0.1107 -1.8671 -0.2906
 1589TIP3   OH226257   5.266   1.230   1.773 -0.0799 -0.1532 -0.0276
 1589TIP3    H126258   5.305   1.144   1.760  0.6420  0.1297  0.2109
 1589TIP3    H226259   5.323   1.289   1.723  1.1148  0.5774  2.0687
 1590TIP3   OH226260   1.966   4.537   0.249 -0.6316 -0.0598 -0.7191
 1590TIP3    H126261   1.898   4.551   0.183 -0.3121  1.8638 -0.7142
 1590TIP3    H226262   2.043   4.509   0.200 -0.2632  1.7944 -1.2861
 1591TIP3   OH226263   5.940   4.442   1.597  0.0384 -0.5554  0.4922
 1591TIP3    H126264   5.899   4.516   1.553  1.4527 -0.3721 -0.5634
 1591TIP3    H226265   5.894   4.365   1.563 -0.3387 -0.2769  0.3627
 1592TIP3   OH226266   2.972   3.285  16.533 -0.5141  0.0032 -0.9374
 1592TIP3    H126267   2.931   3.201  16.512 -0.2417 -0.6888  1.0127
 1592TIP3    H226268   3.066   3.269  16.524 -0.4506  0.0190 -0.3388
 1593TIP3   OH226269   5.545   6.279   0.223  0.2379  0.2067  0.2949
 1593TIP3    H126270   5.575   6.352   0.277  0.1331  0.4509  0.0225
 1593TIP3    H226271   5.449   6.287   0.223  0.1870 -0.3181  0.8106
 1594TIP3   OH226272   0.303   3.045   0.425  0.7367  0.0643  0.1378
 1594TIP3    H126273   0.308   2.953   0.451 -1.3954 -0.0214  0.4154
 1594TIP3    H226274   0.211   3.059   0.404  0.9876  2.1771  0.2085
 1595TIP3   OH226275   0.157   4.190   5.588 -0.3052  0.4413 -0.2953
 1595TIP3    H126276   0.208   4.129   5.535  1.8805  1.8334  0.0805
 1595TIP3    H226277   0.174   4.276   5.549  0.4927  1.3615  1.9214
 1596TIP3   OH226278   1.830   0.716  16.111  0.4201  0.2562  0.1285
 1596TIP3    H126279   1.827   0.742  16.019 -0.1769  2.1883  0.6518
 1596TIP3    H226280   1.738   0.709  16.138  0.5633  1.1589  0.9321
 1597TIP3   OH226281   1.359   0.975  12.000 -0.3729  0.5428  0.1459
 1597TIP3    H126282   1.280   1.029  11.998 -0.7743 -0.0058  0.6805
 1597TIP3    H226283   1.400   0.990  11.916 -2.9499 -1.9803 -1.7401
 1598TIP3   OH226284   5.950   1.038   0.816  0.2729  0.1923 -0.2424
 1598TIP3    H126285   5.893   0.962   0.823  0.3134  0.1731 -0.1259
 1598TIP3    H226286   5.972   1.061   0.906 -0.3355  0.7942 -0.2337
 1599TIP3   OH226287   4.524   3.099  11.596  0.7652  0.3121  0.3997
 1599TIP3    H126288   4.538   3.088  11.690  2.5311 -0.0287  0.1291
 1599TIP3    H226289   4.447   3.154  11.590 -1.2600 -2.0882  2.0004
 1600TIP3   OH226290   0.013   5.740  14.042  0.0427  0.5323 -0.5256
 1600TIP3    H126291  -0.077   5.759  14.016 -0.4932 -0.0365  0.8688
 1600TIP3    H226292   0.049   5.692  13.968 -0.8069  0.7344 -1.0869
 1601TIP3   OH226293   3.095   4.577   0.441 -1.0941 -0.4000  0.1516
 1601TIP3    H126294   3.076   4.671   0.436 -1.3244 -0.5075 -1.7304
 1601TIP3    H226295   3.178   4.572   0.488 -0.7900  0.7894 -0.2174
 1602TIP3   OH226296   1.473   0.448  10.580 -0.1064  0.3757 -0.4803
 1602TIP3    H126297   1.431   0.519  10.532  0.2257 -0.6892 -2.4268
 1602TIP3    H226298   1.468   0.373  10.522  0.5952 -0.9136  1.0500
 1603TIP3   OH226299   0.232   4.441   0.278  0.3599  0.0320 -0.3498
 1603TIP3    H126300   0.201   4.449   0.368  1.5642  0.1089  0.0773
 1603TIP3    H226301   0.285   4.519   0.263  1.4735 -0.7309 -0.5719
 1604TIP3   OH226302   3.517   5.773  11.972 -0.6182  0.1783  0.2016
 1604TIP3    H126303   3.456   5.847  11.978 -0.4738  0.1945  2.4622
 1604TIP3    H226304   3.595   5.809  11.931 -1.3186  0.7135 -0.7027
 1605TIP3   OH226305   1.760   4.432   3.699  0.3339 -0.0603  0.3748
 1605TIP3    H126306   1.666   4.451   3.695  0.0858 -1.2142  0.3549
 1605TIP3    H226307   1.793   4.488   3.769 -0.4619 -0.0101  0.7227
 1606TIP3   OH226308   0.724   5.008   1.673  0.1705  0.1111  0.4951
 1606TIP3    H126309   0.676   5.027   1.753 -0.1852 -0.2914  0.3806
 1606TIP3    H226310   0.657   4.988   1.608  0.4989 -1.9887  0.7239
 1607TIP3   OH226311   0.657   0.694   4.930 -0.4049  0.4933 -0.1683
 1607TIP3    H126312   0.729   0.702   4.867 -0.1480  1.3680  0.2213
 1607TIP3    H226313   0.686   0.628   4.993  0.2403  1.1293  0.2162
 1608TIP3   OH226314   1.336   0.241  10.885  0.7029 -0.2126  0.5744
 1608TIP3    H126315   1.295   0.242  10.799 -1.1103  0.3045  1.3892
 1608TIP3    H226316   1.373   0.153  10.893  0.4192 -0.4466 -0.5063
 1609TIP3   OH226317   2.924   1.294  12.845  0.8786 -0.3231 -0.4154
 1609TIP3    H126318   2.960   1.260  12.928  0.0469 -3.3833 -1.1734
 1609TIP3    H226319   2.830   1.281  12.852  0.5785  1.3095 -1.0769
 1610TIP3   OH226320   1.408   0.227  10.456 -0.0635  0.1595 -0.0202
 1610TIP3    H126321   1.339   0.250  10.518 -0.5437  0.3816 -0.6219
 1610TIP3    H226322   1.380   0.142  10.421  0.9119 -0.6331  1.0628
 1611TIP3   OH226323   4.025   2.805  12.741  0.3119 -0.0744 -0.5991
 1611TIP3    H126324   4.078   2.885  12.747  0.9575 -0.4024 -1.6320
 1611TIP3    H226325   3.957   2.826  12.677 -0.4317  0.1338  0.2502
 1612TIP3   OH226326   2.119   4.918   5.566  0.1929 -0.3081  0.4471
 1612TIP3    H126327   2.105   4.910   5.472  0.4009  1.2958  0.2465
 1612TIP3    H226328   2.210   4.892   5.580 -0.0422 -1.2198  0.3180
 1613TIP3   OH226329   1.548   0.984  11.286 -0.5006 -0.4511 -0.2820
 1613TIP3    H126330   1.623   0.924  11.287 -0.4267 -0.4016 -1.4776
 1613TIP3    H226331   1.507   0.972  11.372 -0.1067 -1.7382 -0.2457
 1614TIP3   OH226332   0.343   2.482  15.281  0.3192 -0.1121 -0.1068
 1614TIP3    H126333   0.426   2.434  15.279  1.4124  1.7117 -1.1301
 1614TIP3    H226334   0.363   2.563  15.327 -1.0204  0.1706  0.0229
 1615TIP3   OH226335   3.616   0.868   5.346  0.2695  0.0771 -0.4158
 1615TIP3    H126336   3.661   0.828   5.421  1.3406  2.1593  0.1263
 1615TIP3    H226337   3.593   0.956   5.375  1.4071  1.2418 -2.7393
 1616TIP3   OH226338   3.851   5.716  10.775  0.0846 -0.0363 -0.2062
 1616TIP3    H126339   3.907   5.640  10.789  0.1330  0.2231  1.1730
 1616TIP3    H226340   3.771   5.681  10.736  0.0759 -0.8143  0.4907
 1617TIP3   OH226341   5.752   3.034  12.044  0.2804  0.0577  0.1469
 1617TIP3    H126342   5.778   2.955  12.090  0.5555 -1.9544 -3.1510
 1617TIP3    H226343   5.833   3.070  12.009 -0.0754  0.5955 -0.1545
 1618TIP3   OH226344   5.750   0.303  15.234 -0.3800 -0.1701  0.5197
 1618TIP3    H126345   5.714   0.353  15.308  0.5062  0.6115  0.4386
 1618TIP3    H226346   5.742   0.363  15.159  1.3989  0.1688  0.5756
 1619TIP3   OH226347   5.963   5.821  16.022 -0.2427 -0.3650 -0.1799
 1619TIP3    H126348   5.891   5.770  16.057 -0.8435 -0.1649 -1.0995
 1619TIP3    H226349   6.001   5.765  15.953  0.1468 -0.2525 -0.0621
 1620TIP3   OH226350   2.204   1.203  11.225 -0.5823 -0.4471 -0.0506
 1620TIP3    H126351   2.180   1.141  11.294 -0.6658  0.9473  1.2294
 1620TIP3    H226352   2.123   1.249  11.204 -0.0720  1.0016  0.9113
 1621TIP3   OH226353   1.618   1.680  13.316  0.3927 -0.7123 -0.0880
 1621TIP3    H126354   1.621   1.592  13.277 -1.6153 -0.4426 -1.0308
 1621TIP3    H226355   1.570   1.668  13.398 -0.5525 -0.4099 -0.5833
 1622TIP3   OH226356   2.056   4.189   3.204 -0.0704 -0.3422  0.1347
 1622TIP3    H126357   2.044   4.094   3.201 -0.8413 -0.2594  0.3413
 1622TIP3    H226358   2.151   4.201   3.202  0.1834 -1.2431  2.6602
 1623TIP3   OH226359   0.100   5.663  13.794 -0.2237  0.1715  0.0163
 1623TIP3    H126360   0.070   5.726  13.728  0.5199  1.5402  0.9130
 1623TIP3    H226361   0.137   5.591  13.743 -0.2005  0.9150 -1.0697
 1624TIP3   OH226362   1.264   1.304  12.581  0.2719 -0.0552  0.0595
 1624TIP3    H126363   1.353   1.335  12.568  0.4993  0.0586  1.7001
 1624TIP3    H226364   1.272   1.227  12.637 -0.5835 -0.8229 -0.8190
 1625TIP3   OH226365   5.723   3.774   5.276 -1.5849  0.4859  0.3486
 1625TIP3    H126366   5.659   3.838   5.308 -0.2776  1.8082  0.4010
 1625TIP3    H226367   5.741   3.802   5.186 -1.0469  0.1601  0.3539
 1626TIP3   OH226368   2.973   3.277  13.873  0.2012 -0.4820  0.2559
 1626TIP3    H126369   3.001   3.279  13.781 -0.3709 -0.8922  0.0692
 1626TIP3    H226370   3.026   3.207  13.912  0.4173 -0.3341  0.2274
 1627TIP3   OH226371   5.918   1.840  16.947  0.4888  0.6920 -0.1892
 1627TIP3    H126372   5.862   1.917  16.935 -1.3735 -0.7555 -1.2785
 1627TIP3    H226373   5.935   1.837  17.041 -1.7072  0.9389  0.2672
 1628TIP3   OH226374   0.607   6.464  16.626 -0.0827 -0.0916 -0.1329
 1628TIP3    H126375   0.611   6.557  16.600  0.2529 -0.1701 -0.3724
 1628TIP3    H226376   0.603   6.417  16.543 -1.2168 -0.2613 -0.0073
 1629TIP3   OH226377   1.487   0.750  11.828 -0.6845 -0.3590  0.2849
 1629TIP3    H126378   1.393   0.741  11.838 -0.8181  0.2237 -0.4123
 1629TIP3    H226379   1.503   0.844  11.835  0.1925 -0.6241  3.3159
 1630TIP3   OH226380   1.863   3.205   0.598  0.2151  0.2390  0.2394
 1630TIP3    H126381   1.905   3.183   0.515 -0.9122  0.0890 -0.3101
 1630TIP3    H226382   1.867   3.300   0.603  0.3066  0.2485  0.0086
 1631TIP3   OH226383   3.361   5.690   1.484 -0.3142  0.1214 -0.4080
 1631TIP3    H126384   3.414   5.769   1.488 -0.0969 -0.0791  1.2720
 1631TIP3    H226385   3.414   5.628   1.434  0.2677  0.4865 -0.2561
 1632TIP3   OH226386   4.662   1.902  10.758  0.3733  0.8625  0.5712
 1632TIP3    H126387   4.755   1.877  10.765  0.2108 -0.2137 -0.6018
 1632TIP3    H226388   4.622   1.828  10.712 -1.0002  1.4926  0.7221
 1633TIP3   OH226389   0.219   4.610  14.337  0.5358 -0.2269  0.3296
 1633TIP3    H126390   0.312   4.626  14.322  0.9355 -1.4922  1.2572
 1633TIP3    H226391   0.174   4.676  14.285  1.9682  1.0536  0.6665
 1634TIP3   OH226392   2.274   6.031   2.583 -0.3719 -0.0194  0.3504
 1634TIP3    H126393   2.268   5.957   2.644 -0.1403  1.5599  2.3654
 1634TIP3    H226394   2.201   6.016   2.521 -0.8438 -1.4734  1.1914
 1635TIP3   OH226395   1.287   3.542  15.023 -0.0951  0.1365 -0.1248
 1635TIP3    H126396   1.220   3.514  15.085  0.8118  0.5604  1.0718
 1635TIP3    H226397   1.366   3.550  15.075  0.5320  1.1905 -1.1999
 1636TIP3   OH226398   5.966   3.846   6.253 -0.1795  0.1543 -0.2132
 1636TIP3    H126399   5.950   3.938   6.269  0.7763  0.1513  0.8958
 1636TIP3    H226400   6.060   3.835   6.268 -0.3674 -1.0909  0.2026
 1637TIP3   OH226401   4.531   0.190   1.933  0.2250 -0.0426 -0.0035
 1637TIP3    H126402   4.595   0.146   1.877  1.3710 -1.3406  2.2049
 1637TIP3    H226403   4.475   0.119   1.964 -2.4006  1.0554 -1.8566
 1638TIP3   OH226404   6.406   5.455  13.873  0.0734  0.7168 -0.0617
 1638TIP3    H126405   6.381   5.520  13.808 -0.2849  1.0204  0.3788
 1638TIP3    H226406   6.496   5.431  13.850  0.1212  1.1902 -0.3670
 1639TIP3   OH226407   5.791   3.387   0.068 -0.2631  0.0509  0.2361
 1639TIP3    H126408   5.699   3.375   0.093 -0.6426  0.1678 -1.0282
 1639TIP3    H226409   5.820   3.300   0.040  0.1319 -0.0659  0.9992
 1640TIP3   OH226410   4.319   4.061  13.845 -0.0158 -0.4081  1.1472
 1640TIP3    H126411   4.331   3.969  13.821 -0.6155 -0.4460  1.0003
 1640TIP3    H226412   4.389   4.077  13.909 -0.2902 -1.1422  1.6533
 1641TIP3   OH226413   4.009   5.040   0.196 -0.1757  0.3413  0.0393
 1641TIP3    H126414   4.097   5.027   0.161 -0.8183 -3.1810 -0.6400
 1641TIP3    H226415   3.960   5.078   0.123  0.3467  0.5718 -0.1970
 1642TIP3   OH226416   1.278   4.920  14.875  0.6482  0.1929 -0.3147
 1642TIP3    H126417   1.334   4.947  14.802 -0.0904 -1.2559 -1.4780
 1642TIP3    H226418   1.336   4.876  14.936  0.7837 -1.5582 -1.6450
 1643TIP3   OH226419   3.673   2.038   5.347 -0.3638  0.2808  0.1809
 1643TIP3    H126420   3.731   2.111   5.325 -0.7114  1.4008  2.5667
 1643TIP3    H226421   3.729   1.977   5.395 -0.5431  0.0161  0.0539
 1644TIP3   OH226422   5.429   4.961  14.308 -0.0005 -0.3897  0.5587
 1644TIP3    H126423   5.488   4.912  14.365  1.1541 -1.0285 -1.1362
 1644TIP3    H226424   5.462   4.946  14.220 -2.7335 -0.8168 -0.4766
 1645TIP3   OH226425   4.259   0.604  12.016  0.2968  0.0186  0.3015
 1645TIP3    H126426   4.312   0.683  12.005  0.7698 -0.4543 -0.9437
 1645TIP3    H226427   4.308   0.551  12.078  0.8274 -0.0162 -0.1435
 1646TIP3   OH226428   4.710   4.647   4.759 -0.3643  0.1778  0.4782
 1646TIP3    H126429   4.737   4.708   4.691 -2.0281  0.0775 -0.3289
 1646TIP3    H226430   4.718   4.561   4.720 -2.2647  0.1666 -0.0231
 1647TIP3   OH226431   5.319   4.977  13.903  0.3520  0.1992  0.3925
 1647TIP3    H126432   5.407   4.993  13.868 -0.0969 -2.4657 -2.3856
 1647TIP3    H226433   5.288   5.063  13.930  2.4300  1.8630 -2.0533
 1648TIP3   OH226434   6.275   1.895   5.534 -0.4821  0.2519  0.7106
 1648TIP3    H126435   6.293   1.988   5.544  0.5435  0.0180  1.1892
 1648TIP3    H226436   6.293   1.857   5.620 -0.1890 -0.4904  0.3360
 1649TIP3   OH226437   0.898   6.754  14.626 -0.0453  0.3486 -0.0543
 1649TIP3    H126438   0.874   6.847  14.633 -1.6414  0.0819 -1.4248
 1649TIP3    H226439   0.984   6.755  14.585 -0.5190  1.2138 -1.0616
 1650TIP3   OH226440   5.696   1.917   4.939  0.1348  0.0659 -0.5110
 1650TIP3    H126441   5.615   1.949   4.900 -0.6279 -1.9651 -0.7073
 1650TIP3    H226442   5.759   1.988   4.927 -1.2548  1.1613 -1.5362
 1651TIP3   OH226443   3.316   1.104  11.621 -0.1028  0.2332 -0.1745
 1651TIP3    H126444   3.351   1.154  11.547  0.2949  1.1439  0.6087
 1651TIP3    H226445   3.227   1.138  11.633  0.4605  1.4219  0.9031
 1652TIP3   OH226446   4.450   5.730   5.928 -0.4736 -0.4276  0.3842
 1652TIP3    H126447   4.458   5.788   5.852 -0.3586 -1.6635 -0.5854
 1652TIP3    H226448   4.519   5.760   5.988  0.7683 -0.6537 -0.8584
 1653TIP3   OH226449   1.105   2.452   2.232 -0.5136  0.0387 -0.2548
 1653TIP3    H126450   1.156   2.412   2.162 -0.4096  0.0847 -0.2045
 1653TIP3    H226451   1.154   2.531   2.255  0.2464 -0.7668  0.9198
 1654TIP3   OH226452   5.149   6.388  12.500 -0.3262  0.8747  0.0882
 1654TIP3    H126453   5.116   6.318  12.444 -1.1235 -0.4135  2.0706
 1654TIP3    H226454   5.085   6.395  12.570  1.2101  1.6108  1.4862
 1655TIP3   OH226455   5.674   5.312   4.837 -0.1374 -0.5325  0.4343
 1655TIP3    H126456   5.583   5.316   4.866 -0.5234 -2.7994 -0.2346
 1655TIP3    H226457   5.720   5.268   4.909 -0.5025 -3.3639 -0.9086
 1656TIP3   OH226458   3.376   2.598   6.143  0.0823  0.5805  0.4535
 1656TIP3    H126459   3.403   2.506   6.144  1.1132  0.8704  0.9771
 1656TIP3    H226460   3.296   2.600   6.196 -0.9798 -0.2822 -1.0445
 1657TIP3   OH226461   6.277   2.034  14.353 -0.1434  0.1399  0.0522
 1657TIP3    H126462   6.299   2.009  14.264 -0.6839  1.0083 -0.3414
 1657TIP3    H226463   6.247   2.125  14.346  0.3341  0.4107  1.1986
 1658TIP3   OH226464   5.501   0.020   1.009  0.5145 -0.1624  0.6135
 1658TIP3    H126465   5.494  -0.070   0.978 -0.2596 -0.0831  0.5440
 1658TIP3    H226466   5.578   0.019   1.066  1.3977 -0.5220 -0.5331
 1659TIP3   OH226467   3.087   1.073  12.466  0.5712  0.3750 -0.3912
 1659TIP3    H126468   3.025   1.064  12.539  1.3000  1.4059  0.3858
 1659TIP3    H226469   3.168   1.034  12.498  0.3927 -0.8541 -1.3599
 1660TIP3   OH226470   5.791   3.190   5.275 -0.2090  0.1369 -0.9724
 1660TIP3    H126471   5.806   3.177   5.368  1.8571  0.8262 -1.1621
 1660TIP3    H226472   5.764   3.104   5.243 -2.7021  0.2701  0.5003
 1661TIP3   OH226473   1.838   4.802  12.098  0.1078 -0.5923  0.0748
 1661TIP3    H126474   1.911   4.821  12.039  1.7779 -1.0742  1.8796
 1661TIP3    H226475   1.851   4.710  12.122 -1.9963 -1.1510 -0.7033
 1662TIP3   OH226476   0.316   1.417  16.776 -0.3404  0.0701 -0.3048
 1662TIP3    H126477   0.368   1.466  16.840 -0.5964 -2.1201  1.7238
 1662TIP3    H226478   0.376   1.398  16.705  1.7369 -2.1572  1.8556
 1663TIP3   OH226479   3.944   5.607   0.319 -0.6894  0.5165  0.0576
 1663TIP3    H126480   3.908   5.685   0.279 -0.4508  0.5517 -0.0918
 1663TIP3    H226481   3.919   5.613   0.411 -0.8499  0.6619  0.0044
 1664TIP3   OH226482   6.446   0.498   4.635  0.3084 -0.2949 -0.6446
 1664TIP3    H126483   6.430   0.534   4.723  0.8263  0.5886 -0.8963
 1664TIP3    H226484   6.413   0.408   4.640  0.7890 -0.4343  0.6150
 1665TIP3   OH226485   2.592   0.540   0.988  0.3876 -0.7530 -0.0108
 1665TIP3    H126486   2.657   0.508   1.050  0.2503  0.8312  1.0075
 1665TIP3    H226487   2.606   0.634   0.984 -2.8981 -0.0132  1.6458
 1666TIP3   OH226488   1.715   5.246  16.940 -0.4665  0.0852  0.4754
 1666TIP3    H126489   1.696   5.292  16.859  0.0227  0.1794  0.4071
 1666TIP3    H226490   1.742   5.158  16.912  0.4834  0.3615  0.4724
 1667TIP3   OH226491   2.963   3.839  12.671 -0.0213  0.7037 -0.0497
 1667TIP3    H126492   3.058   3.855  12.672  0.6182 -2.3819  0.1643
 1667TIP3    H226493   2.928   3.896  12.739  1.7523  1.5294  0.2421
 1668TIP3   OH226494   3.579   5.015  12.736 -0.0843 -0.0772 -0.2374
 1668TIP3    H126495   3.496   5.063  12.737  0.3326  0.6831  1.1455
 1668TIP3    H226496   3.555   4.925  12.759 -0.7552 -0.3663 -1.9195
 1669TIP3   OH226497   6.226   5.788   5.097 -0.5418  0.4877 -0.0991
 1669TIP3    H126498   6.254   5.856   5.036 -2.0713  0.5903 -0.7284
 1669TIP3    H226499   6.209   5.835   5.178  2.3948  0.2277  0.7997
 1670TIP3   OH226500   2.974   4.507   5.581 -0.6233 -0.0155  0.3547
 1670TIP3    H126501   3.056   4.546   5.553  0.4818 -1.5142  1.3641
 1670TIP3    H226502   2.925   4.579   5.621  0.1978  0.8878 -0.2225
 1671TIP3   OH226503   3.596   2.757   0.152  0.0606  0.1375 -0.5728
 1671TIP3    H126504   3.571   2.693   0.219 -1.2198  0.0135 -1.1324
 1671TIP3    H226505   3.530   2.826   0.159  0.6199  0.7189 -0.9099
 1672TIP3   OH226506   2.129   5.876  16.457  0.2037  0.0636  0.3729
 1672TIP3    H126507   2.089   5.802  16.502 -1.8994 -0.0549 -1.5017
 1672TIP3    H226508   2.080   5.952  16.486 -0.7788  0.0588 -1.1355
 1673TIP3   OH226509   0.931   3.831   2.775  0.1375 -0.2347  0.2767
 1673TIP3    H126510   0.993   3.761   2.754  0.4218  0.1831 -0.3018
 1673TIP3    H226511   0.845   3.796   2.750  0.1411 -0.7885  1.0137
 1674TIP3   OH226512   2.068   5.888   1.002 -0.5972  0.5134  0.3073
 1674TIP3    H126513   2.066   5.851   1.091  0.1077  1.5216  0.7611
 1674TIP3    H226514   2.044   5.980   1.014 -0.9879  0.5392 -0.6219
 1675TIP3   OH226515   2.688   3.722   5.440  0.4042  0.4261  0.1897
 1675TIP3    H126516   2.635   3.672   5.501  2.4712 -0.9303  0.9918
 1675TIP3    H226517   2.656   3.812   5.446  0.1928  0.2247  2.8774
 1676TIP3   OH226518   4.960   4.892   0.352 -0.0109 -0.0389 -0.2433
 1676TIP3    H126519   4.929   4.970   0.305 -1.1777 -1.3097 -1.6620
 1676TIP3    H226520   4.933   4.818   0.298  1.2770 -1.4529  0.9501
 1677TIP3   OH226521   2.250   3.226   0.455  0.0070  0.3027 -0.3738
 1677TIP3    H126522   2.308   3.270   0.517 -0.1711 -0.4476  0.3455
 1677TIP3    H226523   2.225   3.145   0.499 -3.4451  1.5787  0.4020
 1678TIP3   OH226524   3.002   5.431   4.897 -0.0222  0.6819 -0.0777
 1678TIP3    H126525   2.941   5.503   4.890 -1.1053 -0.1993  0.0283
 1678TIP3    H226526   3.041   5.441   4.984 -0.6215  0.7967  0.1840
 1679TIP3   OH226527   5.535   5.852  10.913  0.0578 -0.1251  0.2603
 1679TIP3    H126528   5.456   5.890  10.875  0.4772  1.4924  0.9427
 1679TIP3    H226529   5.506   5.768  10.949 -0.9727 -0.3090 -0.9527
 1680TIP3   OH226530   0.477   4.673  16.946  0.4759 -0.8637  0.4036
 1680TIP3    H126531   0.530   4.752  16.948  1.2243 -1.3240 -0.5488
 1680TIP3    H226532   0.534   4.607  16.906 -0.6759 -1.4739 -0.2683
 1681TIP3   OH226533   2.701   6.054   0.077  0.2658 -0.0628  0.1341
 1681TIP3    H126534   2.729   6.112   0.148  1.2122  1.1651 -1.1962
 1681TIP3    H226535   2.618   6.092   0.046 -0.0513 -0.4919  0.4413
 1682TIP3   OH226536   3.118   2.903   2.265 -0.1720 -0.3423  0.0352
 1682TIP3    H126537   3.157   2.921   2.180  1.2790 -0.0854  0.7218
 1682TIP3    H226538   3.096   2.990   2.300 -1.9552 -0.5045 -0.5735
 1683TIP3   OH226539   4.579   3.874  12.866  0.5681  0.1260 -0.1046
 1683TIP3    H126540   4.563   3.838  12.953 -0.5011 -0.4103 -0.5046
 1683TIP3    H226541   4.674   3.887  12.862  0.4910  1.4201  1.6169
 1684TIP3   OH226542   3.018   1.502   2.399  0.2065 -0.1569 -0.4011
 1684TIP3    H126543   3.018   1.406   2.406 -0.3202 -0.2811 -1.7742
 1684TIP3    H226544   2.968   1.520   2.319  3.2089  1.0814 -2.1831
 1685TIP3   OH226545   1.888   2.111  13.262 -0.6746 -0.7682 -0.2316
 1685TIP3    H126546   1.882   2.190  13.315  0.0141 -0.9191  0.0667
 1685TIP3    H226547   1.851   2.042  13.317 -0.4645 -0.8206 -0.1559
 1686TIP3   OH226548   1.141   0.303   5.258 -0.1567  0.1126  0.1618
 1686TIP3    H126549   1.120   0.213   5.235  1.6814 -0.2231 -0.3603
 1686TIP3    H226550   1.117   0.311   5.350 -0.5399 -0.8371  0.1563
 1687TIP3   OH226551   1.167   6.304  10.911  0.0137  0.0966  0.1793
 1687TIP3    H126552   1.141   6.330  11.000  3.1467  2.5623  0.5739
 1687TIP3    H226553   1.228   6.231  10.924 -0.4031 -0.2973 -0.0587
 1688TIP3   OH226554   1.899   4.088   2.624  0.0025 -0.1878 -0.1349
 1688TIP3    H126555   1.966   4.032   2.584  0.0104 -1.0800  1.0961
 1688TIP3    H226556   1.884   4.050   2.710 -1.2282  0.7203  0.0706
 1689TIP3   OH226557   0.573   4.553   5.230  0.7634 -0.0199 -0.7049
 1689TIP3    H126558   0.498   4.496   5.246  1.6259 -0.8325  0.6762
 1689TIP3    H226559   0.581   4.605   5.311  0.4439  1.5700 -1.6454
 1690TIP3   OH226560   6.723   1.251  11.780 -0.7204 -0.5680 -0.2219
 1690TIP3    H126561   6.638   1.235  11.820 -0.9644 -0.4176 -0.6715
 1690TIP3    H226562   6.786   1.235  11.850 -1.1562  0.1220  0.3384
 1691TIP3   OH226563   1.690   4.180   0.651 -0.3375  0.0496 -0.0423
 1691TIP3    H126564   1.679   4.116   0.580  1.0793  0.1623 -0.3865
 1691TIP3    H226565   1.650   4.260   0.617  0.6328  0.2025 -0.8900
 1692TIP3   OH226566   5.306   2.234   4.287 -0.0753  0.1037  0.6113
 1692TIP3    H126567   5.322   2.180   4.364  0.0313  0.7546  1.0518
 1692TIP3    H226568   5.387   2.231   4.237 -0.5356 -1.2883 -0.0947
 1693TIP3   OH226569   6.695   4.699   3.882 -0.2375 -1.0275 -0.0643
 1693TIP3    H126570   6.768   4.686   3.943  1.1898 -1.8515 -1.8469
 1693TIP3    H226571   6.636   4.626   3.899 -1.2164  0.1771  2.0652
 1694TIP3   OH226572   4.071   3.059  16.434  0.3904  0.3137 -0.2883
 1694TIP3    H126573   4.153   3.011  16.428 -0.3563 -1.0430 -0.0549
 1694TIP3    H226574   4.007   3.004  16.388 -0.5372  0.9652  0.1769
 1695TIP3   OH226575   6.374   3.580  12.052  0.1727  0.3547 -0.4898
 1695TIP3    H126576   6.417   3.604  12.134  0.7529 -0.1733 -0.6345
 1695TIP3    H226577   6.432   3.515  12.013 -0.1881  0.4734 -1.2367
 1696TIP3   OH226578   0.962   5.308  11.772 -0.0523  0.0498 -0.1956
 1696TIP3    H126579   0.984   5.313  11.679 -0.6617 -1.0593 -0.4087
 1696TIP3    H226580   0.881   5.258  11.775  0.3605 -0.5795  0.9866
 1697TIP3   OH226581   3.385   3.584  11.801  0.4035  0.0610  0.1366
 1697TIP3    H126582   3.464   3.637  11.798 -0.0318  0.8643  1.8066
 1697TIP3    H226583   3.338   3.605  11.720  0.7982  1.3500  0.2332
 1698TIP3   OH226584   4.126   1.123   3.569 -0.2743  0.4180 -0.5556
 1698TIP3    H126585   4.215   1.122   3.604 -0.0994 -2.1407 -0.8372
 1698TIP3    H226586   4.137   1.137   3.475  0.0271 -1.4186 -0.8365
 1699TIP3   OH226587   4.938   5.293   5.502  0.0733  0.3036 -0.0704
 1699TIP3    H126588   4.913   5.377   5.463 -0.7675  0.3271  0.4977
 1699TIP3    H226589   4.953   5.235   5.427  0.3929  0.8752 -0.4616
 1700TIP3   OH226590   3.778   1.006   4.821  0.5471 -0.1487  0.6033
 1700TIP3    H126591   3.777   0.953   4.901  1.8295 -1.9353 -0.4945
 1700TIP3    H226592   3.696   0.985   4.777  0.3503 -0.0142  0.9017
 1701TIP3   OH226593   0.829   2.242  11.703 -0.0433 -0.8131  0.3571
 1701TIP3    H126594   0.860   2.331  11.720 -2.5870 -0.2607  2.8954
 1701TIP3    H226595   0.876   2.188  11.767 -1.4822 -0.5468  1.7043
 1702TIP3   OH226596   4.890   2.334  13.635 -0.2094 -0.1947 -0.2842
 1702TIP3    H126597   4.891   2.324  13.540  0.7636  2.1946 -0.5907
 1702TIP3    H226598   4.937   2.416  13.651 -1.4846  0.1420  2.1825
 1703TIP3   OH226599   0.428   6.497  16.929 -0.0450  0.3181  0.0156
 1703TIP3    H126600   0.341   6.524  16.958 -0.5213 -0.9073 -0.2186
 1703TIP3    H226601   0.488   6.550  16.981 -0.9160  0.4938  0.8651
 1704TIP3   OH226602   5.393   1.428  11.401  0.3813 -0.0445 -0.3514
 1704TIP3    H126603   5.347   1.471  11.473 -0.3124  0.7879 -1.2579
 1704TIP3    H226604   5.446   1.498  11.363  0.9415 -0.5427 -0.4996
 1705TIP3   OH226605   3.962   0.290   1.301 -0.4688 -0.0489 -0.2061
 1705TIP3    H126606   3.982   0.382   1.285 -1.0448  0.2610  0.7972
 1705TIP3    H226607   3.979   0.278   1.394  1.0291 -1.3405 -0.6094
 1706TIP3   OH226608   3.922   1.056   2.790 -0.0456 -0.8288 -0.4300
 1706TIP3    H126609   4.010   1.029   2.815  0.0734  0.0879  0.1790
 1706TIP3    H226610   3.865   1.016   2.855  0.1465  0.4848  0.5803
 1707TIP3   OH226611   4.234   3.029   4.810  0.1651 -0.2369  0.2408
 1707TIP3    H126612   4.233   2.933   4.815  1.9694 -0.2445  1.1969
 1707TIP3    H226613   4.281   3.049   4.729  0.0900 -0.1487  0.2180
 1708TIP3   OH226614   1.000   6.105  12.124 -0.3390 -0.3030  0.1456
 1708TIP3    H126615   1.026   6.020  12.089  0.2591  0.0852 -0.3693
 1708TIP3    H226616   1.078   6.138  12.168  0.9719  1.8925 -3.3599
 1709TIP3   OH226617   1.319   5.244   1.161 -0.1759  0.0820  0.0415
 1709TIP3    H126618   1.350   5.155   1.141 -1.1886 -0.3223  0.2112
 1709TIP3    H226619   1.330   5.292   1.079 -1.0441 -0.6173 -0.5021
 1710TIP3   OH226620   6.181   5.892  11.231  0.1794 -0.0228  0.5258
 1710TIP3    H126621   6.142   5.866  11.314 -1.2271 -0.5663 -0.2649
 1710TIP3    H226622   6.120   5.860  11.165  0.4339  1.7938 -0.6617
 1711TIP3   OH226623   6.783   0.737  12.165 -0.9036 -0.1487 -0.0296
 1711TIP3    H126624   6.834   0.656  12.165 -0.0181  0.3361 -2.0507
 1711TIP3    H226625   6.760   0.750  12.072 -1.1212  1.8559  0.2687
 1712TIP3   OH226626   0.390   0.807  11.519  0.3056 -0.0559 -0.1995
 1712TIP3    H126627   0.320   0.750  11.550  0.5864  0.3083  1.1439
 1712TIP3    H226628   0.422   0.765  11.439 -1.7215 -0.0043 -1.0942
 1713TIP3   OH226629   2.018   0.221  16.353 -0.1353 -0.4892 -0.5582
 1713TIP3    H126630   2.084   0.158  16.322  1.3552  0.1540  1.1267
 1713TIP3    H226631   2.014   0.287  16.284 -1.7730 -2.3761 -2.3892
 1714TIP3   OH226632   2.208   1.541  13.859 -0.2463  0.2053  0.1152
 1714TIP3    H126633   2.174   1.612  13.805 -1.4269 -1.2834 -1.2197
 1714TIP3    H226634   2.294   1.522  13.822 -0.4339  0.1551 -0.2989
 1715TIP3   OH226635   3.689   2.267   3.524  0.0468  0.0812  0.1135
 1715TIP3    H126636   3.651   2.355   3.523 -0.2223 -0.0085  1.2283
 1715TIP3    H226637   3.673   2.235   3.613  0.7302 -0.8402 -0.0819
 1716TIP3   OH226638   6.565   1.771   1.539 -0.3246  0.3384  0.4629
 1716TIP3    H126639   6.551   1.737   1.628  1.0900  0.0555  0.6021
 1716TIP3    H226640   6.610   1.855   1.552  0.8320 -0.1809  0.0285
 1717TIP3   OH226641   4.959   0.745   2.120  0.2840  0.5265  0.3282
 1717TIP3    H126642   4.875   0.702   2.100  0.6241 -0.6998  1.3715
 1717TIP3    H226643   4.937   0.838   2.125 -1.1676  0.1748  1.2003
 1718TIP3   OH226644   5.292   3.003   2.280 -0.1491 -0.2888  0.1086
 1718TIP3    H126645   5.219   3.063   2.296 -0.0357  0.1129 -0.8303
 1718TIP3    H226646   5.370   3.058   2.287 -0.0978  0.0129 -2.0626
 1719TIP3   OH226647   0.184   3.230  11.634 -0.1839  0.0974  0.7897
 1719TIP3    H126648   0.166   3.184  11.552 -0.3119  0.0259  0.8589
 1719TIP3    H226649   0.114   3.204  11.693  0.1734 -0.2207  1.0781
 1720TIP3   OH226650   3.108   5.886  15.440 -0.3062  0.0994  0.1148
 1720TIP3    H126651   3.154   5.970  15.436 -0.4101  0.0931 -1.8274
 1720TIP3    H226652   3.136   5.839  15.362 -2.2195 -0.6458 -0.1718
 1721TIP3   OH226653   4.109   1.247  16.720  0.2823 -0.0213 -0.2146
 1721TIP3    H126654   4.117   1.185  16.792  1.4510  1.3314  0.8791
 1721TIP3    H226655   4.015   1.255  16.705  0.0962 -1.8356 -0.2343
 1722TIP3   OH226656   3.341   2.221  15.794 -0.1843 -0.5372  0.7926
 1722TIP3    H126657   3.324   2.127  15.786 -0.6011 -0.3559 -0.8092
 1722TIP3    H226658   3.255   2.262  15.795 -0.0005 -0.1522  1.2068
 1723TIP3   OH226659   5.605   2.100  11.862 -0.3058 -0.5421  0.1862
 1723TIP3    H126660   5.579   2.090  11.953  0.9734  0.1149  0.6478
 1723TIP3    H226661   5.671   2.033  11.848 -0.4122 -0.5666 -0.2339
 1724TIP3   OH226662   6.798   5.531  12.284  0.1541 -0.1163  0.3667
 1724TIP3    H126663   6.882   5.564  12.317 -0.1170  1.4047 -0.3475
 1724TIP3    H226664   6.822   5.459  12.225  0.9287  0.0616  0.4527
 1725TIP3   OH226665   2.101   3.958  16.641 -0.1669 -0.1902 -0.6428
 1725TIP3    H126666   2.055   3.943  16.558  1.6297 -0.9939 -1.5286
 1725TIP3    H226667   2.179   4.008  16.617  0.6318 -0.8519  0.4926
 1726TIP3   OH226668   5.836   1.330  13.393 -0.4280  0.3185 -0.1057
 1726TIP3    H126669   5.924   1.322  13.356  0.2519  0.9761  1.3016
 1726TIP3    H226670   5.820   1.245  13.434  0.5946  0.9907  1.7734
 1727TIP3   OH226671   1.197   5.813   4.632  0.5941 -1.0340  0.3006
 1727TIP3    H126672   1.149   5.894   4.611  2.4385  0.6903  2.3266
 1727TIP3    H226673   1.186   5.759   4.554 -2.5021  0.2527 -0.3030
 1728TIP3   OH226674   0.758   1.185   1.628  0.1217 -0.7380 -0.8721
 1728TIP3    H126675   0.762   1.101   1.583 -0.1322 -0.9099 -0.5772
 1728TIP3    H226676   0.706   1.241   1.570  0.3660 -0.7537 -1.1102
 1729TIP3   OH226677   4.916   1.495  11.662 -0.1426 -0.6902 -0.6087
 1729TIP3    H126678   4.980   1.447  11.610  0.9342 -0.1860  0.2008
 1729TIP3    H226679   4.968   1.559  11.710 -1.2877 -0.1423 -0.0553
 1730TIP3   OH226680   5.506   1.432  11.837 -0.1560 -0.2623 -0.1165
 1730TIP3    H126681   5.573   1.375  11.798  0.9128  1.9329 -1.6622
 1730TIP3    H226682   5.426   1.410  11.789  0.8620  1.4552 -2.8407
 1731TIP3   OH226683   3.978   5.014  10.992 -0.2590  0.0262 -0.3824
 1731TIP3    H126684   4.036   5.082  10.958 -0.5110  0.0948 -0.6743
 1731TIP3    H226685   4.000   4.936  10.942  0.4765 -0.2825  0.3865
 1732TIP3   OH226686   5.161   0.745   1.418 -0.2473 -0.1052  0.3335
 1732TIP3    H126687   5.163   0.691   1.497 -1.5050  1.5391  1.5694
 1732TIP3    H226688   5.249   0.737   1.382 -0.2699 -2.6171  0.6610
 1733TIP3   OH226689   4.926   0.836  12.238  0.2464  0.2027  0.1701
 1733TIP3    H126690   4.849   0.888  12.262 -0.6455 -0.8724 -0.2775
 1733TIP3    H226691   4.922   0.829  12.142 -0.1507 -1.4091  0.2767
 1734TIP3   OH226692   6.024   1.309  16.001 -0.0300 -0.5080 -0.5106
 1734TIP3    H126693   6.105   1.316  16.050 -0.5397 -0.1650  0.3080
 1734TIP3    H226694   5.974   1.240  16.046 -1.3507  1.1779  0.7626
 1735TIP3   OH226695   1.766   5.739  15.118  0.1908  0.0801  0.0687
 1735TIP3    H126696   1.749   5.668  15.180  0.4450 -0.3619 -0.3646
 1735TIP3    H226697   1.685   5.748  15.069  0.4136 -0.4258 -0.3920
 1736TIP3   OH226698   0.142   4.190  16.506  0.0105  0.3193  0.0187
 1736TIP3    H126699   0.085   4.130  16.554 -0.2733  0.9849  0.5320
 1736TIP3    H226700   0.230   4.158  16.523 -0.2035 -1.1618 -1.3741
 1737TIP3   OH226701   5.708   0.551   1.904 -0.4746  0.1548 -0.2409
 1737TIP3    H126702   5.701   0.630   1.958 -1.4782 -0.1588  0.1172
 1737TIP3    H226703   5.730   0.481   1.966 -1.7666 -0.2334 -0.1857
 1738TIP3   OH226704   1.357   1.497   5.657  0.1169 -0.3103 -0.1739
 1738TIP3    H126705   1.332   1.583   5.691  0.3856  0.4089 -1.7102
 1738TIP3    H226706   1.399   1.515   5.573  1.2677 -1.8671  0.0163
 1739TIP3   OH226707   6.331   5.355  15.838  0.0873  0.2449  0.9746
 1739TIP3    H126708   6.376   5.384  15.759 -0.4691 -1.1333  0.1232
 1739TIP3    H226709   6.345   5.260  15.840 -2.8864 -0.3028  0.5666
 1740TIP3   OH226710   5.878   4.849  16.883 -0.0660  0.3579 -0.4007
 1740TIP3    H126711   5.790   4.848  16.922 -0.1133 -0.3767 -0.5095
 1740TIP3    H226712   5.914   4.763  16.904  0.2816  0.3190 -1.1320
 1741TIP3   OH226713   3.465   4.082  16.313 -0.1507  0.0265 -0.2376
 1741TIP3    H126714   3.395   4.095  16.377  0.7146  0.7336  0.5859
 1741TIP3    H226715   3.536   4.042  16.363 -0.8190 -3.2185 -1.5901
 1742TIP3   OH226716   6.065   2.438  16.012  0.1703 -0.0815 -0.0014
 1742TIP3    H126717   6.113   2.475  16.086  1.2552 -0.4213 -0.5158
 1742TIP3    H226718   6.016   2.512  15.976 -0.0550  0.1765  0.7986
 1743TIP3   OH226719   1.398   4.280  13.545  0.1152  0.2760  0.1032
 1743TIP3    H126720   1.456   4.319  13.481  1.8245 -0.7147  0.9779
 1743TIP3    H226721   1.333   4.348  13.563 -0.1208  0.7551 -2.2344
 1744TIP3   OH226722   4.439   0.041  11.793 -0.2166  0.4146  0.0757
 1744TIP3    H126723   4.367   0.103  11.806  0.4885  1.4661 -0.8322
 1744TIP3    H226724   4.442  -0.010  11.874 -2.0222  0.2873  0.1115
 1745TIP3   OH226725   3.025   4.164  11.219  0.9486  0.1242 -0.2389
 1745TIP3    H126726   2.943   4.142  11.175 -0.0879  1.5270  0.8544
 1745TIP3    H226727   3.093   4.145  11.155 -0.2425 -0.9649 -1.2307
 1746TIP3   OH226728   1.003   1.394  13.903 -0.5422  0.2503 -0.4890
 1746TIP3    H126729   1.058   1.374  13.827  1.6091 -0.8037  1.2367
 1746TIP3    H226730   0.976   1.308  13.935  0.1313  0.5579  0.9701
 1747TIP3   OH226731   3.893   4.782   4.373 -0.1382  0.2195 -0.1398
 1747TIP3    H126732   3.811   4.736   4.353  0.4777 -1.7845  1.6940
 1747TIP3    H226733   3.871   4.839   4.446  0.2569 -0.9476  0.9174
 1748TIP3   OH226734   2.461   3.804   4.681 -0.2443  0.0316  0.2506
 1748TIP3    H126735   2.511   3.751   4.742 -0.7216  1.0101  1.5304
 1748TIP3    H226736   2.523   3.871   4.652  0.3895 -1.2211 -1.4444
 1749TIP3   OH226737   3.890   6.845  12.233  0.0674  0.0681 -0.3053
 1749TIP3    H126738   3.881   6.784  12.160 -0.3768  1.0010 -1.0684
 1749TIP3    H226739   3.943   6.917  12.197  1.5500 -0.3678  0.9058
 1750TIP3   OH226740   2.426   2.960   4.546 -0.2848 -0.0854  0.0911
 1750TIP3    H126741   2.493   2.904   4.506  2.0292  2.1011  0.6710
 1750TIP3    H226742   2.419   2.930   4.636  0.8202  0.4258  0.3537
 1751TIP3   OH226743   2.810   0.048   5.677  0.0468  0.0255 -0.1819
 1751TIP3    H126744   2.829   0.091   5.760 -1.1644  0.4334 -0.0908
 1751TIP3    H226745   2.753   0.109   5.631 -0.3510 -0.7621 -0.7594
 1752TIP3   OH226746   6.286   2.424  12.315  0.5016  0.2674  0.0054
 1752TIP3    H126747   6.261   2.510  12.347 -0.8642 -0.3855  0.7833
 1752TIP3    H226748   6.378   2.415  12.338  0.1000  0.6490  1.9164
 1753TIP3   OH226749   0.973   0.392   1.218  0.0146  0.2108  0.4193
 1753TIP3    H126750   0.971   0.401   1.313  0.0481 -1.2457  0.5808
 1753TIP3    H226751   0.947   0.302   1.202  2.4012 -0.3457 -0.8201
 1754TIP3   OH226752   4.568   5.984  16.121 -0.0706 -0.6224 -0.0709
 1754TIP3    H126753   4.597   5.975  16.212 -0.2032  0.2793  0.0705
 1754TIP3    H226754   4.476   6.010  16.128  0.7917  3.1033 -0.3153
 1755TIP3   OH226755   4.572   2.623  15.305  0.0690  0.4025  0.0017
 1755TIP3    H126756   4.642   2.678  15.268  0.7306 -1.3124 -1.4548
 1755TIP3    H226757   4.617   2.559  15.360 -0.4384 -0.1293 -0.1854
 1756TIP3   OH226758   6.477   3.429   1.630  0.0979 -0.5039 -0.0970
 1756TIP3    H126759   6.420   3.425   1.553 -0.6263  2.4995  0.1659
 1756TIP3    H226760   6.540   3.358   1.616 -0.9583 -1.0799 -2.6430
 1757TIP3   OH226761   3.913   1.029   6.029 -0.2580 -0.0867 -0.3947
 1757TIP3    H126762   3.823   1.055   6.012 -0.4918 -0.8950 -0.4533
 1757TIP3    H226763   3.922   1.033   6.124  0.7622  3.5000 -0.4865
 1758TIP3   OH226764   2.894   4.324   6.023 -0.0331 -0.1431  0.0566
 1758TIP3    H126765   2.930   4.412   6.034 -0.1339 -0.2988  1.9731
 1758TIP3    H226766   2.805   4.338   5.991  0.1671  0.4168 -0.2614
 1759TIP3   OH226767   6.593   3.796   2.478 -0.4304  0.2123 -0.1566
 1759TIP3    H126768   6.661   3.734   2.506 -1.1573 -1.0094 -1.0017
 1759TIP3    H226769   6.512   3.762   2.516 -1.0057  0.0165 -1.4994
 1760TIP3   OH226770   5.236   6.836   1.440  0.7359  0.2527 -0.4322
 1760TIP3    H126771   5.329   6.843   1.462  1.0828 -0.0941 -1.6740
 1760TIP3    H226772   5.232   6.856   1.346 -0.0580 -2.2244 -1.0180
 1761TIP3   OH226773   0.637   4.422  16.569 -0.0868  0.4108 -0.3715
 1761TIP3    H126774   0.681   4.373  16.498 -0.1869  0.1764 -0.2736
 1761TIP3    H226775   0.565   4.365  16.595 -1.9441  1.7772 -2.1374
 1762TIP3   OH226776   4.352   0.933   5.944  0.0490  0.4076  0.9141
 1762TIP3    H126777   4.360   1.027   5.960  2.6572  0.2749  0.9098
 1762TIP3    H226778   4.380   0.922   5.853  0.9150 -0.4655  1.2653
 1763TIP3   OH226779   2.097   2.474   3.738 -0.4621  0.4934  0.1657
 1763TIP3    H126780   2.075   2.384   3.714  0.0870  0.6695 -1.0553
 1763TIP3    H226781   2.015   2.511   3.769 -1.2082  0.2146 -1.3873
 1764TIP3   OH226782   4.030   4.399  12.567 -0.0735  0.5700 -0.1488
 1764TIP3    H126783   4.035   4.445  12.483 -1.3553 -0.1067 -0.6214
 1764TIP3    H226784   4.027   4.306  12.544  0.4240  0.3287  0.6942
 1765TIP3   OH226785   5.739   4.347  11.409 -0.1412  0.3449  0.1223
 1765TIP3    H126786   5.692   4.326  11.328  0.7291 -0.3716 -0.2242
 1765TIP3    H226787   5.818   4.392  11.380  0.7460 -0.9233  0.4559
 1766TIP3   OH226788   1.049   4.506   4.068  0.2069  0.6706  0.2270
 1766TIP3    H126789   1.141   4.526   4.049 -0.0517  0.0014 -1.9620
 1766TIP3    H226790   1.051   4.418   4.107  0.5037  0.7817  0.4667
 1767TIP3   OH226791   3.187   2.146  14.361 -0.0751 -0.0617  0.3683
 1767TIP3    H126792   3.256   2.200  14.322 -0.5388  0.0764 -0.2529
 1767TIP3    H226793   3.235   2.077  14.408  0.5089  0.6515  0.8333
 1768TIP3   OH226794   2.287   2.438   4.879  0.2721 -0.0428  0.2918
 1768TIP3    H126795   2.219   2.370   4.877  0.3849 -0.1372 -0.3735
 1768TIP3    H226796   2.276   2.485   4.797  3.1580 -2.1532 -1.4461
 1769TIP3   OH226797   0.821   6.753   0.348  0.3482  0.2254 -0.4813
 1769TIP3    H126798   0.900   6.772   0.296 -0.0311  1.3720 -0.6685
 1769TIP3    H226799   0.781   6.679   0.303 -0.2634  1.5265 -2.2122
 1770TIP3   OH226800   2.081   5.242  14.253  0.0986 -0.4731  0.4247
 1770TIP3    H126801   2.070   5.312  14.188 -2.2523 -1.3485 -0.2491
 1770TIP3    H226802   2.175   5.233  14.264  0.5305  0.7831 -1.6958
 1771TIP3   OH226803   0.807   0.931   1.506  0.3111  0.0302 -0.0068
 1771TIP3    H126804   0.887   0.909   1.458 -0.0491 -0.3295 -0.4461
 1771TIP3    H226805   0.736   0.906   1.447 -0.1295  1.6458 -0.2105
 1772TIP3   OH226806   1.659   0.941  13.369  0.0201  0.3301  0.0586
 1772TIP3    H126807   1.639   0.942  13.276  0.2108  0.9409  0.0205
 1772TIP3    H226808   1.745   0.984  13.376  0.0070  0.2890  0.5126
 1773TIP3   OH226809   3.053   2.684   0.933 -0.4753 -0.5835  0.0596
 1773TIP3    H126810   2.967   2.725   0.945 -0.4000 -0.1691 -0.7360
 1773TIP3    H226811   3.113   2.758   0.920 -0.2950 -0.9174 -1.1215
 1774TIP3   OH226812   4.288   5.792   6.280  0.4533  0.1003  0.3174
 1774TIP3    H126813   4.210   5.740   6.297  0.8303 -0.5221  0.1555
 1774TIP3    H226814   4.294   5.851   6.355 -0.5304  0.6064  0.0207
 1775TIP3   OH226815   3.007   0.439   2.281 -0.8698 -0.4428  0.2294
 1775TIP3    H126816   2.932   0.476   2.234 -1.9149 -2.6851  0.0102
 1775TIP3    H226817   3.083   0.484   2.245 -2.0773  2.1000  0.6465
 1776TIP3   OH226818   4.256   2.456  16.491 -0.6603  0.2673 -0.1666
 1776TIP3    H126819   4.343   2.422  16.513 -0.7467  0.7614  0.9930
 1776TIP3    H226820   4.258   2.466  16.395  0.9295  1.2428 -0.0734
 1777TIP3   OH226821   5.542   3.683   5.882 -0.7275  0.1991  0.0508
 1777TIP3    H126822   5.507   3.752   5.939 -0.6804 -1.5596  2.3361
 1777TIP3    H226823   5.601   3.633   5.938  3.8438  1.5475 -2.9797
 1778TIP3   OH226824   2.812   1.049  14.012  0.0544 -0.4590  0.0055
 1778TIP3    H126825   2.824   0.956  14.031  2.3455 -0.2768 -0.2921
 1778TIP3    H226826   2.878   1.069  13.946  0.5724  1.6784  1.0798
 1779TIP3   OH226827   6.194   1.356   2.317 -0.3999  0.7406  0.2635
 1779TIP3    H126828   6.122   1.403   2.360 -1.0511 -0.5074  0.5878
 1779TIP3    H226829   6.226   1.417   2.251 -2.2913  1.0520 -0.4429
 1780TIP3   OH226830   5.944   5.244  16.544  0.5447  0.0493  0.6452
 1780TIP3    H126831   5.910   5.175  16.601  0.9743  0.3033  1.2164
 1780TIP3    H226832   6.035   5.220  16.527  0.2977 -0.2530 -0.3015
 1781TIP3   OH226833   2.513   3.336   4.815  0.0878 -1.0580  0.3889
 1781TIP3    H126834   2.503   3.265   4.752 -0.8103  0.1255 -0.8698
 1781TIP3    H226835   2.598   3.320   4.856  0.8157 -1.7430 -1.2862
 1782TIP3   OH226836   3.966   5.785   1.618 -0.4201  0.0502  0.1594
 1782TIP3    H126837   3.873   5.770   1.631 -0.2666 -1.4923 -0.2999
 1782TIP3    H226838   4.006   5.758   1.701 -0.3757  0.5685  0.3050
 1783TIP3   OH226839   2.283   6.241  16.833 -0.3253  0.0636 -0.4918
 1783TIP3    H126840   2.198   6.284  16.828 -0.6553 -0.3589  1.0230
 1783TIP3    H226841   2.263   6.147  16.835  0.2486 -0.0858 -1.0810
 1784TIP3   OH226842   5.637   4.197   3.394  0.4578  0.4304  0.1807
 1784TIP3    H126843   5.543   4.179   3.395  0.2831  1.2754  0.2216
 1784TIP3    H226844   5.673   4.143   3.464  0.1564 -0.6617 -0.4948
 1785TIP3   OH226845   3.920   4.285   4.616 -0.2601 -0.2768 -0.4427
 1785TIP3    H126846   3.985   4.332   4.669  0.5511 -0.4132 -1.2888
 1785TIP3    H226847   3.856   4.352   4.592 -0.1185 -0.0085 -0.0884
 1786TIP3   OH226848   3.268   0.580  13.428 -0.1954  0.3555 -0.1320
 1786TIP3    H126849   3.318   0.658  13.404 -0.1697  0.5802  0.6048
 1786TIP3    H226850   3.334   0.518  13.458 -0.3505  0.7442  1.0867
 1787TIP3   OH226851   1.586   3.910   2.598 -0.3442  0.2815 -0.6673
 1787TIP3    H126852   1.553   3.900   2.509 -1.0764 -1.6300 -0.2306
 1787TIP3    H226853   1.661   3.852   2.602 -1.6501 -1.4347  0.5447
 1788TIP3   OH226854   1.820   1.415  14.899  0.2798 -0.3012  0.6298
 1788TIP3    H126855   1.880   1.340  14.895  0.0963 -0.4430  0.5109
 1788TIP3    H226856   1.877   1.492  14.895  0.7628 -0.3410  3.8587
 1789TIP3   OH226857   4.082   1.390  14.211  0.1254 -0.3514 -0.4471
 1789TIP3    H126858   4.120   1.305  14.190  0.6877 -0.5000  1.0245
 1789TIP3    H226859   4.156   1.452  14.205  0.1744 -0.3077  0.4027
 1790TIP3   OH226860   3.182   0.710   1.254  0.6186 -0.1902  0.3117
 1790TIP3    H126861   3.245   0.737   1.187  1.4966 -0.3493  1.0740
 1790TIP3    H226862   3.134   0.791   1.275  1.3523  0.1870  0.5661
 1791TIP3   OH226863   6.186   6.547  16.713  0.3168  0.7311  0.1838
 1791TIP3    H126864   6.274   6.543  16.751 -0.6628 -0.5485  2.5175
 1791TIP3    H226865   6.201   6.561  16.620  3.1272 -2.4928 -0.0264
 1792TIP3   OH226866   1.235   5.469  12.812 -0.1523 -0.8564  0.3914
 1792TIP3    H126867   1.322   5.498  12.838 -0.2342 -0.3652  0.1377
 1792TIP3    H226868   1.206   5.411  12.882  0.9874 -2.2499 -0.2422
 1793TIP3   OH226869   5.134   1.909  15.895  0.6049 -0.1176  0.2152
 1793TIP3    H126870   5.049   1.951  15.907 -0.1220 -1.9068  1.8746
 1793TIP3    H226871   5.197   1.972  15.931 -0.0392  1.0408 -0.6223
 1794TIP3   OH226872   0.132   0.495   0.034 -0.1527 -0.1716 -0.0170
 1794TIP3    H126873   0.098   0.459  -0.049  0.8420 -0.0611 -0.4867
 1794TIP3    H226874   0.097   0.436   0.101  1.5203 -2.1405 -0.7660
 1795TIP3   OH226875   2.247   5.093   0.387 -0.6069  0.2570  0.4751
 1795TIP3    H126876   2.323   5.058   0.434 -0.8357 -0.8299  0.0643
 1795TIP3    H226877   2.274   5.181   0.360 -0.3094  0.7408  2.2347
 1796TIP3   OH226878   1.216   4.390  14.529  0.0473  0.3291 -1.1630
 1796TIP3    H126879   1.292   4.423  14.482  1.7901  0.1941  1.3568
 1796TIP3    H226880   1.244   4.305  14.563 -0.1506  1.4165  2.0622
 1797TIP3   OH226881   3.619   1.042   0.164 -0.6272 -1.1329 -0.3286
 1797TIP3    H126882   3.630   1.041   0.259  0.8301  1.6849 -0.3584
 1797TIP3    H226883   3.705   1.019   0.129 -0.8380 -0.9920 -0.9485
 1798TIP3   OH226884   3.176   1.418  13.331  0.8613  0.0747 -0.3088
 1798TIP3    H126885   3.151   1.501  13.291 -0.2516 -0.2598 -0.3206
 1798TIP3    H226886   3.101   1.393  13.385  2.1755  0.3870  1.8299
 1799TIP3   OH226887   5.603   0.937  13.477  0.6936  0.4341  0.9273
 1799TIP3    H126888   5.655   0.856  13.475  0.1368  0.0744  0.8088
 1799TIP3    H226889   5.515   0.909  13.500  0.0579  0.7569 -0.8931
 1800TIP3   OH226890   2.347   0.247   3.987 -0.3320 -0.5964  0.4224
 1800TIP3    H126891   2.259   0.264   3.955  0.1482 -0.1254 -0.7067
 1800TIP3    H226892   2.357   0.152   3.982  0.0206 -0.4883 -1.7076
 1801TIP3   OH226893   1.108   1.658  13.841  0.3663  0.0713 -0.9949
 1801TIP3    H126894   1.077   1.708  13.916  0.5624 -0.2610 -0.6901
 1801TIP3    H226895   1.088   1.567  13.862 -2.8920  0.2003 -2.9027
 1802TIP3   OH226896   3.325   3.412   4.838  0.0988  0.1178  0.4250
 1802TIP3    H126897   3.362   3.487   4.791 -0.9135  0.4008  0.0519
 1802TIP3    H226898   3.401   3.366   4.873  0.8044  0.6710 -0.3321
 1803TIP3   OH226899   0.154   6.626  14.239 -0.5060 -0.2092 -0.0858
 1803TIP3    H126900   0.082   6.680  14.272  0.5332  1.5945 -0.6702
 1803TIP3    H226901   0.190   6.675  14.166 -0.1944 -2.2493 -1.3890
 1804TIP3   OH226902   3.220   6.212  15.256 -0.1182  0.5457  0.6281
 1804TIP3    H126903   3.303   6.169  15.277 -0.1988 -0.4625 -0.9230
 1804TIP3    H226904   3.243   6.278  15.190 -0.5328  0.2792  0.2124
 1805TIP3   OH226905   0.009   4.726  15.613  0.3418  0.1445  0.2469
 1805TIP3    H126906  -0.009   4.814  15.580  1.0412 -0.3542 -1.5989
 1805TIP3    H226907  -0.068   4.703  15.665  0.2678  1.9341  0.9918
 1806TIP3   OH226908   6.172   4.469   4.935 -0.0264  0.2348  0.6564
 1806TIP3    H126909   6.257   4.475   4.891 -0.5704  0.3917 -0.4292
 1806TIP3    H226910   6.159   4.556   4.973  0.3350  0.1786  0.9167
 1807TIP3   OH226911   3.224   1.783  15.200  0.3271 -0.3797 -0.1575
 1807TIP3    H126912   3.185   1.774  15.287  1.3916  0.5820  0.4449
 1807TIP3    H226913   3.199   1.870  15.171  0.6838 -0.3702 -0.4518
 1808TIP3   OH226914   1.130   4.596  14.195  0.2587  0.3510 -0.3380
 1808TIP3    H126915   1.112   4.625  14.105 -2.0749  0.5937  0.1512
 1808TIP3    H226916   1.150   4.503  14.185 -0.5975  0.2213 -1.0833
 1809TIP3   OH226917   6.851   5.598   2.275  0.3366 -0.2641  0.6112
 1809TIP3    H126918   6.941   5.565   2.267 -0.0506 -1.0397 -1.0213
 1809TIP3    H226919   6.839   5.652   2.197 -0.8594 -0.8041  0.4072
 1810TIP3   OH226920   5.933   0.117   1.699 -0.4483  0.1116  0.2315
 1810TIP3    H126921   5.874   0.150   1.631 -0.9346  0.1902  0.6770
 1810TIP3    H226922   5.915   0.173   1.775  1.3914  1.2013 -0.1014
 1811TIP3   OH226923   4.266   3.258   1.918  0.9447 -0.0359 -1.0460
 1811TIP3    H126924   4.298   3.231   1.832  0.4858  1.5574 -1.7584
 1811TIP3    H226925   4.173   3.234   1.918  1.2056 -1.0926 -0.5197
 1812TIP3   OH226926   5.428   2.527  13.673 -0.2920 -0.0321  0.4451
 1812TIP3    H126927   5.479   2.448  13.654 -0.5551 -0.1546  0.2423
 1812TIP3    H226928   5.411   2.522  13.767  0.5898  0.3243  0.6298
 1813TIP3   OH226929   6.473   4.234   4.731  0.0401  0.1279 -0.1959
 1813TIP3    H126930   6.531   4.168   4.692  0.7788  0.8937 -0.4149
 1813TIP3    H226931   6.385   4.204   4.709  0.3640 -0.7111 -0.4096
 1814TIP3   OH226932   0.959   6.242   4.947  0.0412 -0.5688  0.4905
 1814TIP3    H126933   0.991   6.231   5.036  1.0084 -2.8079 -0.0753
 1814TIP3    H226934   1.039   6.249   4.894 -0.5065 -0.4964 -0.3468
 1815TIP3   OH226935   1.932   6.751   2.740 -0.3003  0.3966  0.0978
 1815TIP3    H126936   1.937   6.722   2.649  1.9809 -0.1843  0.3607
 1815TIP3    H226937   1.983   6.687   2.789 -1.5839  0.6262  1.8401
 1816TIP3   OH226938   4.411   5.904  13.030  0.2761 -0.5326  0.0662
 1816TIP3    H126939   4.480   5.853  12.987  0.6583 -0.2645  0.3591
 1816TIP3    H226940   4.347   5.838  13.058  2.0886 -1.2570  2.9751
 1817TIP3   OH226941   0.094   0.017   5.861 -0.5846 -0.7821 -0.1618
 1817TIP3    H126942   0.120  -0.074   5.874 -1.0709 -0.9870 -0.5845
 1817TIP3    H226943   0.009   0.011   5.818 -0.9207 -0.1281  0.4011
 1818TIP3   OH226944   2.247   4.126  12.032  0.2608  0.0794 -0.6654
 1818TIP3    H126945   2.252   4.036  12.064  0.0382  0.3773  0.2380
 1818TIP3    H226946   2.251   4.118  11.937 -1.3412 -1.0137 -0.6826
 1819TIP3   OH226947   6.805   2.845   1.359  0.4166  0.3196  0.3484
 1819TIP3    H126948   6.831   2.855   1.451  0.8796  0.0001  0.2517
 1819TIP3    H226949   6.721   2.890   1.354  0.4059  0.3784  0.9224
 1820TIP3   OH226950   0.612   3.656  12.131  0.7979  0.4222 -0.3670
 1820TIP3    H126951   0.584   3.734  12.178 -0.8415  0.0871 -0.7180
 1820TIP3    H226952   0.687   3.685  12.079  0.7235  1.5551  0.1311
 1821TIP3   OH226953   2.947   5.009  11.756  0.1534 -0.5110  0.8662
 1821TIP3    H126954   2.939   4.985  11.848  2.6309  0.6324  1.4780
 1821TIP3    H226955   3.039   4.991  11.735  0.1810  1.2203 -0.7538
 1822TIP3   OH226956   5.940   6.756  15.380  0.0525 -0.4100  0.0323
 1822TIP3    H126957   5.908   6.814  15.311  0.3639  0.7894  0.8600
 1822TIP3    H226958   5.861   6.712  15.412 -0.2811 -0.0290 -0.2416
 1823TIP3   OH226959   0.039   3.309  10.723  0.3953  0.2965 -0.2814
 1823TIP3    H126960   0.071   3.398  10.738 -0.6321  0.3106  2.3039
 1823TIP3    H226961   0.106   3.269  10.667  1.0545  2.5467 -1.2126
 1824TIP3   OH226962   6.016   6.447  15.952 -0.3384  0.0570  0.1899
 1824TIP3    H126963   6.038   6.537  15.977  1.2966  0.0833 -1.1870
 1824TIP3    H226964   5.943   6.456  15.892  1.3877  0.7536 -1.9412
 1825TIP3   OH226965   1.682   3.811   3.055  0.1099 -0.1288 -0.1116
 1825TIP3    H126966   1.610   3.774   3.003 -1.9145  1.1496  1.6187
 1825TIP3    H226967   1.691   3.901   3.023 -0.8873  0.5431  1.3625
 1826TIP3   OH226968   4.034   4.553  11.105  0.0993 -0.2683 -0.2309
 1826TIP3    H126969   4.015   4.460  11.115 -2.5893  0.2841  0.6035
 1826TIP3    H226970   4.053   4.584  11.193  0.8461  0.0317 -0.4850
 1827TIP3   OH226971   4.041   2.967   5.611  0.1259 -0.3828 -0.5873
 1827TIP3    H126972   3.998   3.019   5.679 -1.5995 -0.3014 -1.6627
 1827TIP3    H226973   4.108   2.917   5.658 -1.8264 -1.3013  1.4451
 1828TIP3   OH226974   3.564   4.799  15.571 -0.6562 -1.2002  0.1328
 1828TIP3    H126975   3.593   4.786  15.481 -1.3464  3.2688 -0.9715
 1828TIP3    H226976   3.633   4.762  15.625  0.9196 -1.9161 -2.2424
 1829TIP3   OH226977   0.365   6.110  14.371 -0.0396 -0.2760  0.1619
 1829TIP3    H126978   0.299   6.177  14.391  0.5670 -0.1550  1.9204
 1829TIP3    H226979   0.437   6.158  14.332  0.6470  0.2464  1.9790
 1830TIP3   OH226980   6.678   2.057  10.863  0.5815  0.0660  0.2016
 1830TIP3    H126981   6.583   2.044  10.873  0.5964 -0.6700 -0.5391
 1830TIP3    H226982   6.716   1.997  10.927  0.5536  0.0045  0.1611
 1831TIP3   OH226983   3.642   0.907  13.524  0.0095 -0.2638 -0.5444
 1831TIP3    H126984   3.672   0.965  13.454 -0.0208 -0.5395 -0.7939
 1831TIP3    H226985   3.717   0.898  13.582 -0.7354  2.0244  0.8983
 1832TIP3   OH226986   4.409   3.272  12.448 -0.0931  0.3830 -0.0956
 1832TIP3    H126987   4.341   3.340  12.441 -0.3941  0.3541  1.9307
 1832TIP3    H226988   4.431   3.270  12.541 -0.0648 -2.2793 -0.0923
 1833TIP3   OH226989   0.491   1.072   1.056 -0.1474  0.3474  0.1897
 1833TIP3    H126990   0.440   1.032   0.986 -0.3498 -1.1727  1.1540
 1833TIP3    H226991   0.582   1.060   1.029 -0.2222 -0.2445  0.1849
 1834TIP3   OH226992   3.608   6.261   6.052 -0.1249  0.3223 -0.1907
 1834TIP3    H126993   3.531   6.264   6.109  1.1807 -1.7317  1.8589
 1834TIP3    H226994   3.675   6.310   6.099  0.4883  0.0620 -0.7728
 1835TIP3   OH226995   2.344   5.713  10.489 -0.0952  0.2217 -0.6783
 1835TIP3    H126996   2.318   5.772  10.560  0.4585 -0.2658 -0.0570
 1835TIP3    H226997   2.308   5.753  10.410 -0.3730  0.9903 -0.1723
 1836TIP3   OH226998   3.819   5.777  14.271 -0.4238  0.1086  0.3026
 1836TIP3    H126999   3.865   5.770  14.354  0.5887 -1.2769 -0.3353
 1836TIP3    H227000   3.885   5.809  14.209 -0.9290  0.2932 -0.1529
 1837TIP3   OH227001   3.360   6.225  11.199  0.7472 -0.0588  0.3090
 1837TIP3    H127002   3.348   6.179  11.116  1.5112 -0.1902  0.2558
 1837TIP3    H227003   3.394   6.311  11.174  1.0312 -0.1172  0.4767
 1838TIP3   OH227004   6.430   2.210  16.244  0.1231  0.7940 -0.0606
 1838TIP3    H127005   6.506   2.236  16.297 -0.6428  1.2881  0.8255
 1838TIP3    H227006   6.407   2.123  16.276 -0.0303  0.8824  0.0698
 1839TIP3   OH227007   1.580   4.332   5.741  0.6103 -0.6807 -0.2354
 1839TIP3    H127008   1.505   4.317   5.799  0.5953  0.4894  0.0648
 1839TIP3    H227009   1.614   4.417   5.767  1.9476 -1.1187 -0.4894
 1840TIP3   OH227010   6.229   2.439  14.764 -0.0032 -0.0808 -0.2204
 1840TIP3    H127011   6.226   2.507  14.831  0.9228  0.8657 -1.0838
 1840TIP3    H227012   6.224   2.356  14.812 -1.1924  0.5968  0.8479
 1841TIP3   OH227013   0.357   2.511   2.796 -0.5372  0.0901  0.5930
 1841TIP3    H127014   0.335   2.599   2.766  2.0618  1.1770  1.5403
 1841TIP3    H227015   0.305   2.498   2.875  0.2150  1.5153  1.3782
 1842TIP3   OH227016   5.421   2.161   1.382  0.2575  0.3621  0.5686
 1842TIP3    H127017   5.378   2.202   1.307 -1.0010  1.0657  1.6282
 1842TIP3    H227018   5.402   2.067   1.372  1.5149  0.2188 -0.8399
 1843TIP3   OH227019   5.802   2.971  14.917  0.8133  0.0408  0.3554
 1843TIP3    H127020   5.729   3.028  14.894 -0.3450 -0.7958  1.8145
 1843TIP3    H227021   5.843   2.950  14.833 -0.6856  0.4324 -0.5112
 1844TIP3   OH227022   2.219   1.871   1.155  0.4663 -0.2232  0.2449
 1844TIP3    H127023   2.266   1.818   1.090  0.6879 -1.5162  1.4020
 1844TIP3    H227024   2.275   1.868   1.233 -0.3140  0.3634  0.8376
 1845TIP3   OH227025   4.003   3.303   1.290 -0.0280  0.3322  0.1057
 1845TIP3    H127026   4.039   3.229   1.241 -0.3510  0.9026 -1.0180
 1845TIP3    H227027   4.078   3.361   1.304  0.7019 -1.0707  2.7719
 1846TIP3   OH227028   3.108   3.241  12.661 -0.8914 -0.1730  0.1041
 1846TIP3    H127029   3.079   3.327  12.693 -1.6177 -0.2765 -0.2772
 1846TIP3    H227030   3.039   3.212  12.602 -0.4097 -0.8002 -0.1639
 1847TIP3   OH227031   0.952   0.909  11.120  0.0296 -0.4033  0.5607
 1847TIP3    H127032   0.979   1.000  11.115  3.2766 -1.1490  1.8882
 1847TIP3    H227033   0.927   0.896  11.211  0.4273 -1.0111  0.5891
 1848TIP3   OH227034   5.314   1.925   1.360  0.0551 -0.0336 -0.4535
 1848TIP3    H127035   5.339   1.925   1.267  0.5736 -0.3110 -0.3198
 1848TIP3    H227036   5.272   1.840   1.372  0.9058 -0.4277 -0.2021
 1849TIP3   OH227037   0.079   4.661   1.990 -0.5091  0.2035 -0.2551
 1849TIP3    H127038   0.133   4.600   1.940  1.8816  0.9431  1.2491
 1849TIP3    H227039   0.002   4.610   2.016  1.3828 -2.2118  0.9341
 1850TIP3   OH227040   0.660   5.000  10.801  0.2913 -0.0103  0.2343
 1850TIP3    H127041   0.692   5.037  10.884  1.6098  0.8296 -0.5994
 1850TIP3    H227042   0.735   4.954  10.765 -0.0042  0.3438 -0.8819
 1851TIP3   OH227043   3.229   3.445   5.096 -0.3237 -0.1858 -0.1123
 1851TIP3    H127044   3.266   3.533   5.101  1.4219 -0.8850 -0.0116
 1851TIP3    H227045   3.213   3.431   5.002  3.2012 -1.1640 -0.7276
 1852TIP3   OH227046   0.052   6.231  14.667  0.1719  0.0007  0.1779
 1852TIP3    H127047  -0.003   6.168  14.618  0.0904  0.2493 -0.0529
 1852TIP3    H227048   0.104   6.176  14.725 -0.7911 -0.1960  0.8745
 1853TIP3   OH227049   1.899   0.273  12.712  0.3417 -0.1244 -0.5999
 1853TIP3    H127050   1.938   0.331  12.646  2.5259 -1.7492 -0.8625
 1853TIP3    H227051   1.947   0.190  12.702 -2.4114 -1.9340 -0.0619
 1854TIP3   OH227052   1.393   5.144   0.642 -0.3683  0.1877 -0.2072
 1854TIP3    H127053   1.364   5.163   0.553 -0.9663  2.2361  0.3679
 1854TIP3    H227054   1.461   5.209   0.659 -0.6237  0.1610  0.9857
 1855TIP3   OH227055   6.485   2.984  15.282  0.7486  0.1708  0.1276
 1855TIP3    H127056   6.541   2.954  15.210  0.5007 -1.0162  0.4032
 1855TIP3    H227057   6.405   3.013  15.239 -0.0301 -2.0159 -0.0221
 1856TIP3   OH227058   1.225   0.515   0.494 -0.0509 -0.8414 -0.6008
 1856TIP3    H127059   1.264   0.499   0.408 -1.0725  0.3422 -1.3164
 1856TIP3    H227060   1.278   0.586   0.531  0.9193 -1.9088  0.1484
 1857TIP3   OH227061   4.720   0.377  16.491  0.4625 -0.1230  0.2731
 1857TIP3    H127062   4.634   0.351  16.525  0.5804  1.0719  1.5670
 1857TIP3    H227063   4.719   0.472  16.494  1.8717 -0.1000  0.4225
 1858TIP3   OH227064   5.474   1.972  14.032 -0.0924  0.0383  0.0696
 1858TIP3    H127065   5.531   1.951  14.106  0.5488  0.5877 -0.2634
 1858TIP3    H227066   5.530   2.018  13.970 -0.4091 -1.1108 -1.1224
 1859TIP3   OH227067   6.503   2.323   1.221 -0.1473 -0.4477  0.0959
 1859TIP3    H127068   6.527   2.257   1.155  1.1820  0.0844  0.0184
 1859TIP3    H227069   6.580   2.328   1.279 -0.5106  0.5296  0.5112
 1860TIP3   OH227070   6.348   6.281   1.614 -0.4754  0.8849  0.0327
 1860TIP3    H127071   6.328   6.341   1.686  0.7914  1.7483 -0.2927
 1860TIP3    H227072   6.342   6.194   1.654 -1.1350  1.2847  0.8343
 1861TIP3   OH227073   5.036   0.638   5.154  0.0246  0.2151 -0.2860
 1861TIP3    H127074   5.095   0.632   5.229 -0.4401  1.3470  0.2034
 1861TIP3    H227075   5.014   0.731   5.149 -0.8515 -0.0231 -1.1247
 1862TIP3   OH227076   3.650   6.076   2.747  0.7693 -0.1527  0.8031
 1862TIP3    H127077   3.594   6.042   2.676 -1.2258 -0.5539  2.4840
 1862TIP3    H227078   3.708   6.003   2.768  0.7357 -0.3525  0.2194
 1863TIP3   OH227079   5.163   3.401  14.046  0.9806  1.1176 -0.0673
 1863TIP3    H127080   5.086   3.435  13.999 -0.0322  0.5312  1.1055
 1863TIP3    H227081   5.191   3.474  14.101 -1.2873  0.1834  2.5684
 1864TIP3   OH227082   1.335   3.876   3.597  0.5310  0.0170  0.2892
 1864TIP3    H127083   1.304   3.955   3.553  0.1317  0.4336  1.3084
 1864TIP3    H227084   1.403   3.906   3.656  0.3647 -0.3974  0.6976
 1865TIP3   OH227085   2.007   0.737  16.699 -0.0757 -0.3346 -0.6472
 1865TIP3    H127086   2.013   0.815  16.644  1.3215  0.6465  0.8261
 1865TIP3    H227087   2.034   0.666  16.641  0.6679  0.5618 -1.4483
 1866TIP3   OH227088   2.190   2.444  15.287 -0.3298  0.5958 -0.0404
 1866TIP3    H127089   2.188   2.535  15.258  0.6893  0.0679 -1.9447
 1866TIP3    H227090   2.149   2.395  15.215  0.3944 -0.5885  0.3280
 1867TIP3   OH227091   1.561   4.271  14.385  0.3197  0.1940  0.7220
 1867TIP3    H127092   1.624   4.265  14.313 -0.2029  0.5967  0.2300
 1867TIP3    H227093   1.540   4.179  14.405 -0.3979  0.1004 -0.4059
 1868TIP3   OH227094   4.958   2.568   2.146  0.1320  0.3667  0.1313
 1868TIP3    H127095   4.977   2.544   2.237  1.0975 -0.3175 -0.2389
 1868TIP3    H227096   5.041   2.597   2.111 -0.6606  2.7167  0.0501
 1869TIP3   OH227097   1.937   5.791  13.757  0.2478  0.4546  0.7818
 1869TIP3    H127098   1.887   5.872  13.754 -0.2433  0.1449  0.3408
 1869TIP3    H227099   1.879   5.728  13.799  0.0966 -0.0090 -0.0818
 1870TIP3   OH227100   6.367   3.324   5.298 -0.0130 -0.0403  0.2560
 1870TIP3    H127101   6.431   3.367   5.355  0.0054 -0.9310  0.9251
 1870TIP3    H227102   6.393   3.351   5.210  0.0948  1.1676  0.6434
 1871TIP3   OH227103   1.132   4.463   5.655 -0.3290  0.0809 -0.2211
 1871TIP3    H127104   1.129   4.474   5.750  0.3107  0.2615 -0.2165
 1871TIP3    H227105   1.040   4.461   5.628 -0.5718 -1.3668  0.5589
 1872TIP3   OH227106   0.808   3.006   3.041  0.2657  0.3358 -0.2972
 1872TIP3    H127107   0.737   2.955   3.079 -0.5464  1.4153 -0.3237
 1872TIP3    H227108   0.879   2.943   3.029  0.5125 -0.1302  2.7797
 1873TIP3   OH227109   5.883   1.427  11.214 -0.5424  0.3216 -0.1209
 1873TIP3    H127110   5.788   1.412  11.216 -0.4388 -0.4388  2.1864
 1873TIP3    H227111   5.898   1.493  11.282  0.5285  1.0047 -0.9882
 1874TIP3   OH227112   6.553   4.646   4.986 -0.4813 -0.8066 -0.5301
 1874TIP3    H127113   6.502   4.669   5.063 -1.9160 -1.4534 -1.2658
 1874TIP3    H227114   6.512   4.568   4.951  0.2883 -0.6683 -1.8291
 1875TIP3   OH227115   2.680   3.309   2.197 -0.5047 -0.0631  0.5514
 1875TIP3    H127116   2.729   3.389   2.176 -0.2414  1.2064  5.0196
 1875TIP3    H227117   2.588   3.335   2.189 -0.5114 -0.6129 -1.8339
 1876TIP3   OH227118   3.712   3.730  12.152  0.6179  0.2544 -0.2312
 1876TIP3    H127119   3.736   3.796  12.087 -1.5252  0.6477 -0.7024
 1876TIP3    H227120   3.672   3.660  12.101  0.8089 -0.3830  0.4817
 1877TIP3   OH227121   0.763   3.782   3.877 -1.0132  0.4786  0.2061
 1877TIP3    H127122   0.719   3.721   3.817 -1.9105 -0.7501  2.0181
 1877TIP3    H227123   0.735   3.869   3.848  0.0835  0.0926 -2.2717
 1878TIP3   OH227124   2.033   1.813  12.146  0.1923  0.3202  0.0756
 1878TIP3    H127125   1.987   1.733  12.171 -0.9284  0.6109 -0.9204
 1878TIP3    H227126   1.989   1.883  12.195  0.9160  0.3829  0.6537
 1879TIP3   OH227127   5.381   5.111  12.053 -0.9327 -0.2605  0.4539
 1879TIP3    H127128   5.353   5.192  12.094  0.8967  0.6616 -0.0254
 1879TIP3    H227129   5.405   5.136  11.964 -0.4480 -1.3440  0.2584
 1880TIP3   OH227130   4.325   1.923  12.138 -0.1659 -0.3067 -0.1649
 1880TIP3    H127131   4.413   1.887  12.147  0.4330  1.0997 -0.1580
 1880TIP3    H227132   4.299   1.900  12.049  1.2367  1.3758 -1.0670
 1881TIP3   OH227133   5.203   1.097   2.870 -0.2592  0.2057  0.2541
 1881TIP3    H127134   5.259   1.164   2.908 -0.1605 -1.2597  2.9842
 1881TIP3    H227135   5.115   1.117   2.902 -0.6876  0.4252 -0.9980
 1882TIP3   OH227136   2.154   5.933  13.636  0.7594 -0.3620  0.1033
 1882TIP3    H127137   2.098   5.893  13.703 -1.3967  1.4097 -0.5399
 1882TIP3    H227138   2.106   5.922  13.554  1.9321  0.1540 -0.6752
 1883TIP3   OH227139   6.129   0.023   0.698  0.8156  0.0956 -0.7959
 1883TIP3    H127140   6.171   0.109   0.708  4.1269 -1.3705 -0.7374
 1883TIP3    H227141   6.148  -0.022   0.780 -1.3176 -0.5833 -0.6224
 1884TIP3   OH227142   5.148   3.925  13.318 -0.4565  0.5861 -0.4813
 1884TIP3    H127143   5.070   3.953  13.365  0.1002  1.0709  0.1653
 1884TIP3    H227144   5.216   3.986  13.345  0.2485 -0.0762 -0.7183
 1885TIP3   OH227145   0.313   6.181  16.250  0.0842 -0.0443 -0.1590
 1885TIP3    H127146   0.233   6.131  16.232  0.7963 -1.0521 -0.6236
 1885TIP3    H227147   0.341   6.212  16.164  1.7684 -2.1975 -0.4932
 1886TIP3   OH227148   0.596   2.261   5.680 -0.1510 -0.3626  0.0999
 1886TIP3    H127149   0.646   2.339   5.705 -2.1363  0.0391  3.5135
 1886TIP3    H227150   0.531   2.293   5.617  0.0282  0.4096  0.2940
 1887TIP3   OH227151   3.582   4.287   4.409 -0.4381 -0.7418 -0.0953
 1887TIP3    H127152   3.626   4.262   4.328  1.5999 -0.6657  0.9266
 1887TIP3    H227153   3.489   4.290   4.386  0.1800  0.8504 -2.8310
 1888TIP3   OH227154   0.537   6.632  13.826  0.1837  0.4493  0.8676
 1888TIP3    H127155   0.454   6.589  13.807  0.7910  0.2346 -1.7721
 1888TIP3    H227156   0.524   6.723  13.799  0.9041  0.3048 -0.0360
 1889TIP3   OH227157   5.322   2.448   5.243  0.5625  0.0353  0.0194
 1889TIP3    H127158   5.392   2.510   5.261  0.2110  0.8966 -1.3938
 1889TIP3    H227159   5.246   2.483   5.289  0.3128  0.8077 -0.9409
 1890TIP3   OH227160   1.560   0.725   5.175 -0.2940  0.2294 -1.2476
 1890TIP3    H127161   1.635   0.667   5.185 -0.1681  0.7764  1.6807
 1890TIP3    H227162   1.577   0.772   5.092  1.2092 -1.5285 -2.0001
 1891TIP3   OH227163   0.901   4.937  13.855  0.2196  0.6753  0.2802
 1891TIP3    H127164   0.855   4.855  13.837  1.1770  0.5212 -1.7100
 1891TIP3    H227165   0.940   4.961  13.771  1.7689  2.0334  1.3472
 1892TIP3   OH227166   1.785   4.735  13.513 -0.2035  0.1678  0.1875
 1892TIP3    H127167   1.712   4.729  13.575  0.5120  1.4167  1.2032
 1892TIP3    H227168   1.863   4.741  13.569  0.5983 -0.2019 -0.8612
 1893TIP3   OH227169   1.551   3.964   5.328 -0.1395 -0.0819  0.3751
 1893TIP3    H127170   1.614   3.909   5.374 -1.1756 -0.1052  1.8069
 1893TIP3    H227171   1.490   3.993   5.395 -1.9047 -0.3594 -1.0252
 1894TIP3   OH227172   0.034   1.365   5.892 -0.3983 -0.1132 -0.5698
 1894TIP3    H127173   0.022   1.455   5.920 -0.2036 -0.0441 -0.7105
 1894TIP3    H227174   0.085   1.324   5.962 -0.0541  0.0163 -0.7460
 1895TIP3   OH227175   0.492   3.422   2.548  0.7730  0.2731 -0.1941
 1895TIP3    H127176   0.548   3.351   2.580 -1.0167 -0.2628  1.9726
 1895TIP3    H227177   0.456   3.389   2.466  0.6911 -0.9603  0.3136
 1896TIP3   OH227178   0.367   0.278  15.299 -0.0227 -0.2358 -0.3037
 1896TIP3    H127179   0.424   0.269  15.376 -0.3113 -0.2808 -0.0903
 1896TIP3    H227180   0.409   0.226  15.231  0.3435 -0.0275 -0.2337
 1897TIP3   OH227181   0.829   4.200   2.277  0.1634 -0.7917  0.6167
 1897TIP3    H127182   0.879   4.249   2.212 -0.6074 -0.6377  0.1174
 1897TIP3    H227183   0.782   4.135   2.225 -0.6118 -0.5421  0.9957
 1898TIP3   OH227184   6.723   1.742  16.072 -0.7290  0.1164  0.3413
 1898TIP3    H127185   6.630   1.758  16.086 -1.8005 -1.5231 -3.7215
 1898TIP3    H227186   6.740   1.658  16.115 -1.7314 -0.6944 -0.8189
 1899TIP3   OH227187   4.050   0.789   6.076  0.0982 -0.6065  0.2959
 1899TIP3    H127188   3.972   0.838   6.052  0.9346  0.5781 -0.0940
 1899TIP3    H227189   4.111   0.855   6.108  1.5367 -1.2747 -0.9453
 1900TIP3   OH227190   2.617   6.871   5.163 -0.2342 -0.6062  0.0069
 1900TIP3    H127191   2.647   6.795   5.214  0.9943  0.3687  0.8048
 1900TIP3    H227192   2.612   6.942   5.227 -1.8612 -0.1015 -0.6285
 1901TIP3   OH227193   0.794   1.114   0.427  0.4526 -0.2802  0.4451
 1901TIP3    H127194   0.858   1.044   0.439 -0.5558 -1.3693 -0.2791
 1901TIP3    H227195   0.747   1.090   0.347 -0.3837  0.8597  0.5685
 1902TIP3   OH227196   2.434   3.857  13.146  0.3232 -0.3332 -0.2818
 1902TIP3    H127197   2.477   3.785  13.192  2.5215  1.4835  0.7092
 1902TIP3    H227198   2.386   3.903  13.214 -0.7919 -0.6212 -0.8484
 1903TIP3   OH227199   0.012   3.885   3.582 -0.0254  0.2993 -0.0081
 1903TIP3    H127200   0.019   3.792   3.561 -0.6128 -0.2003  1.8448
 1903TIP3    H227201   0.008   3.889   3.677 -0.1277  2.2225 -0.0365
 1904TIP3   OH227202   0.940   5.927  16.126 -0.1815  0.0127 -0.3163
 1904TIP3    H127203   0.886   5.917  16.048 -0.1332  0.4185 -0.4051
 1904TIP3    H227204   0.885   5.896  16.197  0.2554 -1.6288 -0.6701
 1905TIP3   OH227205   3.352   5.342  15.864  0.3872  0.0619  0.3740
 1905TIP3    H127206   3.399   5.416  15.903 -0.9628  0.7774  0.7118
 1905TIP3    H227207   3.337   5.283  15.937  0.5935 -0.0775  0.3041
 1906TIP3   OH227208   5.223   1.875   4.265 -0.5044  0.6230 -0.3673
 1906TIP3    H127209   5.261   1.820   4.196 -1.3987 -1.3132  0.6234
 1906TIP3    H227210   5.133   1.891   4.235 -0.5289  0.7828 -0.2072
 1907TIP3   OH227211   5.465   5.930  16.650 -0.5176  0.0010  0.2638
 1907TIP3    H127212   5.557   5.920  16.675 -0.3301  1.1045  0.0513
 1907TIP3    H227213   5.441   5.845  16.613  0.3913 -0.3234  0.4001
 1908TIP3   OH227214   1.495   2.413  15.651 -0.2735  0.5397 -0.2481
 1908TIP3    H127215   1.401   2.401  15.642 -0.0267 -3.1991  0.5527
 1908TIP3    H227216   1.529   2.404  15.562 -0.5801  1.2517 -0.4460
 1909TIP3   OH227217   6.598   2.008  11.568 -0.1991  0.2727 -0.2802
 1909TIP3    H127218   6.659   2.023  11.496 -0.2919  0.6134 -0.2928
 1909TIP3    H227219   6.553   1.926  11.547  1.0173 -0.5684  0.2619
 1910TIP3   OH227220   4.143   0.853  13.592 -0.2501 -0.0134 -0.2658
 1910TIP3    H127221   4.205   0.881  13.659 -1.2477  1.5657  0.0517
 1910TIP3    H227222   4.164   0.905  13.515 -0.5722 -0.1665 -0.4609
 1911TIP3   OH227223   4.466   3.337  13.516  0.2694 -0.0440  0.0909
 1911TIP3    H127224   4.492   3.275  13.585  0.0263  0.5992  0.7785
 1911TIP3    H227225   4.475   3.287  13.435  2.4224 -0.2442  0.3932
 1912TIP3   OH227226   5.310   2.969  12.335  0.1102  0.4545 -0.8554
 1912TIP3    H127227   5.227   2.967  12.288  0.0204 -2.7154 -0.7501
 1912TIP3    H227228   5.303   3.045  12.393 -2.1658  0.9962 -1.7297
 1913TIP3   OH227229   5.354   1.280   0.269 -0.4122 -0.0694 -0.6805
 1913TIP3    H127230   5.425   1.247   0.324  0.1512  0.1525 -1.2582
 1913TIP3    H227231   5.360   1.375   0.277 -1.8304 -0.0673  0.7265
 1914TIP3   OH227232   1.280   1.475  12.190  0.5896  0.5049 -0.5833
 1914TIP3    H127233   1.217   1.450  12.258  1.5103 -2.0981 -0.5645
 1914TIP3    H227234   1.229   1.528  12.129 -0.3000  2.8407  1.9917
 1915TIP3   OH227235   0.156   2.090   0.058  0.2117  0.2415  0.4980
 1915TIP3    H127236   0.159   2.173   0.011  0.3936  0.6474  1.2113
 1915TIP3    H227237   0.095   2.035   0.008 -0.4053  1.0256  0.3802
 1916TIP3   OH227238   2.006   6.829   4.834 -0.6496 -0.2200 -0.2816
 1916TIP3    H127239   1.939   6.877   4.883  0.5409 -0.1745  1.3937
 1916TIP3    H227240   2.067   6.896   4.806  0.3919 -0.5692  1.0417
 1917TIP3   OH227241   5.064   1.272  11.843  0.3701  0.5404  0.5473
 1917TIP3    H127242   5.054   1.363  11.873 -0.6323  0.9549 -0.9156
 1917TIP3    H227243   5.019   1.220  11.909  0.2838  1.1863  1.0126
 1918TIP3   OH227244   4.000   0.558  11.933 -0.1420  0.2926 -0.2827
 1918TIP3    H127245   4.094   0.572  11.932 -0.0742 -0.1435 -0.9391
 1918TIP3    H227246   3.989   0.468  11.964 -0.3119  0.2133 -0.5589
 1919TIP3   OH227247   2.561   1.222   3.529 -0.1779 -0.5329  0.0378
 1919TIP3    H127248   2.552   1.147   3.470  2.9441 -1.7253  0.8264
 1919TIP3    H227249   2.624   1.279   3.485  1.8925 -1.2432  1.8417
 1920TIP3   OH227250   5.135   5.501  12.136  0.2149 -0.1427  0.0306
 1920TIP3    H127251   5.209   5.441  12.139  1.4386  0.9687 -3.3320
 1920TIP3    H227252   5.170   5.585  12.165 -0.5186 -0.2086  1.1633
 1921TIP3   OH227253   5.516   1.034  15.322 -0.3494  0.5142 -0.3205
 1921TIP3    H127254   5.478   1.113  15.283 -2.1286  0.0037  0.2798
 1921TIP3    H227255   5.556   0.988  15.248 -1.2624  0.8969 -1.0866
 1922TIP3   OH227256   1.992   5.238   2.923 -0.6202 -0.7394 -0.4431
 1922TIP3    H127257   1.939   5.298   2.975 -1.3630 -0.8690 -1.0280
 1922TIP3    H227258   2.003   5.161   2.979  1.0688  0.2420  0.6539
 1923TIP3   OH227259   6.406   4.370  11.342  0.7032 -0.7062  0.6011
 1923TIP3    H127260   6.432   4.411  11.425  0.8277  0.0686  0.1920
 1923TIP3    H227261   6.312   4.358  11.349  0.3747  1.2525  0.0658
 1924TIP3   OH227262   1.292   6.495  15.658  0.1378  0.3571  0.2845
 1924TIP3    H127263   1.253   6.531  15.737  1.9678  1.3677  0.8011
 1924TIP3    H227264   1.355   6.561  15.630 -1.5849  0.8091 -3.0058
 1925TIP3   OH227265   4.862   3.981  16.632 -0.1599  0.5589 -0.0592
 1925TIP3    H127266   4.775   4.009  16.605 -0.9033 -0.3485  1.2991
 1925TIP3    H227267   4.896   4.055  16.683 -0.6548  0.4224  0.4785
 1926TIP3   OH227268   0.810   6.614  13.949  0.3045  0.3245  0.4956
 1926TIP3    H127269   0.715   6.619  13.960  0.2325  0.5807 -0.2180
 1926TIP3    H227270   0.840   6.705  13.952  0.1493  0.5598 -2.3957
 1927TIP3   OH227271   3.922   4.926   1.614  0.0392 -0.0859 -0.0552
 1927TIP3    H127272   3.969   4.880   1.545  2.1737 -0.1219  1.3088
 1927TIP3    H227273   3.946   5.018   1.602 -1.4243  0.2383 -0.6935
 1928TIP3   OH227274   6.621   3.935   1.249 -0.3456 -0.2762 -0.3530
 1928TIP3    H127275   6.701   3.986   1.239 -0.2701 -0.2093  0.5253
 1928TIP3    H227276   6.551   3.997   1.229 -0.2500  0.1596  0.6336
 1929TIP3   OH227277   1.303   3.089   0.587  0.2322  0.5605 -0.3770
 1929TIP3    H127278   1.343   3.009   0.621  0.2332  1.0809  0.8741
 1929TIP3    H227279   1.302   3.076   0.492 -0.2602 -1.1545 -0.1693
 1930TIP3   OH227280   4.691   3.524  15.777 -0.1391 -0.6813 -0.4054
 1930TIP3    H127281   4.761   3.479  15.729  1.4986 -0.3238  1.5075
 1930TIP3    H227282   4.613   3.473  15.757  0.5911 -1.0457 -2.7113
 1931TIP3   OH227283   4.678   0.162   2.406 -0.1942 -0.2031 -0.4583
 1931TIP3    H127284   4.642   0.234   2.457 -1.8448 -1.5761  0.4388
 1931TIP3    H227285   4.731   0.204   2.339  0.3700  1.7648  1.1024
 1932TIP3   OH227286   2.243   2.426  17.027  0.4293 -0.0026 -0.3381
 1932TIP3    H127287   2.159   2.446  17.067 -0.4208 -3.2160 -0.2586
 1932TIP3    H227288   2.307   2.449  17.094 -0.3787  1.9464 -0.1875
 1933TIP3   OH227289   2.219   2.347  15.940 -0.1041  0.0936  0.0401
 1933TIP3    H127290   2.281   2.300  15.995 -0.6124 -0.8086 -0.1373
 1933TIP3    H227291   2.198   2.426  15.990  0.5178 -0.0178  0.4907
 1934TIP3   OH227292   2.649   3.325  10.653 -0.1421 -0.0676 -0.3016
 1934TIP3    H127293   2.590   3.394  10.624 -0.0740 -0.2834 -0.9611
 1934TIP3    H227294   2.591   3.251  10.671 -0.0777 -0.2983 -1.0060
 1935TIP3   OH227295   3.537   5.256  12.275 -0.4224  0.7099  0.1667
 1935TIP3    H127296   3.502   5.339  12.243  1.7531  1.8436  0.5034
 1935TIP3    H227297   3.629   5.274  12.294  0.1413 -1.7987  0.2544
 1936TIP3   OH227298   6.804   6.396  10.926 -0.0256  0.1855  0.6981
 1936TIP3    H127299   6.854   6.339  10.868 -2.0341  1.6450 -2.8424
 1936TIP3    H227300   6.861   6.471  10.942  0.2737  0.1808 -0.2650
 1937TIP3   OH227301   0.844   3.082   2.386 -0.0674 -0.2874  0.2193
 1937TIP3    H127302   0.814   3.123   2.305 -0.8150  0.3282  0.7896
 1937TIP3    H227303   0.935   3.109   2.394  0.4269 -1.4442 -1.0762
 1938TIP3   OH227304   3.473   4.757  12.755  0.1931  0.2413  0.0284
 1938TIP3    H127305   3.403   4.791  12.811  0.6295  2.3199 -0.5943
 1938TIP3    H227306   3.430   4.690  12.701 -1.2333  1.1368 -0.0190
 1939TIP3   OH227307   0.712   3.955  13.549  0.0852 -0.8268 -0.4535
 1939TIP3    H127308   0.657   4.001  13.485  1.7961 -0.6011 -1.8534
 1939TIP3    H227309   0.722   4.017  13.621 -2.1381 -1.2027  0.2584
 1940TIP3   OH227310   6.517   2.109  12.360  0.2721  1.0964 -0.0938
 1940TIP3    H127311   6.545   2.200  12.374 -0.5050  1.1640  1.1038
 1940TIP3    H227312   6.468   2.086  12.439 -1.7399  0.4864 -1.4175
 1941TIP3   OH227313   1.170   4.343  14.233  0.6801 -0.0424  0.2842
 1941TIP3    H127314   1.165   4.248  14.225  1.7707  0.0022 -1.7909
 1941TIP3    H227315   1.133   4.362  14.318 -0.3428 -2.2514  0.4035
 1942TIP3   OH227316   2.723   0.741  11.658  0.0750 -0.1362 -0.1133
 1942TIP3    H127317   2.697   0.818  11.607 -0.2152 -0.5721 -0.6394
 1942TIP3    H227318   2.819   0.739  11.652  0.0103 -0.6815 -1.4203
 1943TIP3   OH227319   2.719   1.943   0.001  0.2234  1.1832  0.3147
 1943TIP3    H127320   2.655   1.989   0.056 -0.1898  1.9472 -0.7704
 1943TIP3    H227321   2.746   2.008  -0.064  1.5057  0.6203  0.2577
 1944TIP3   OH227322   3.026   1.425   2.797  0.2174  0.0839  0.2370
 1944TIP3    H127323   3.070   1.463   2.721 -0.6924  1.9746  0.6037
 1944TIP3    H227324   3.096   1.412   2.861  0.5414  1.4970  0.2145
 1945TIP3   OH227325   4.616   6.556  10.894  0.7114  0.0649 -0.0613
 1945TIP3    H127326   4.559   6.620  10.849  2.0954  0.5584 -1.1770
 1945TIP3    H227327   4.641   6.494  10.826  1.5735 -0.1042  0.3995
 1946TIP3   OH227328   3.307   5.491  11.109 -0.1569  0.2243  0.5087
 1946TIP3    H127329   3.362   5.568  11.120  0.2534 -0.0589  0.4544
 1946TIP3    H227330   3.346   5.444  11.035 -1.8384  1.2040 -1.0861
 1947TIP3   OH227331   5.548   3.177   6.109 -0.1188 -0.3278 -0.2193
 1947TIP3    H127332   5.597   3.254   6.139  0.7904 -1.1422  0.4655
 1947TIP3    H227333   5.464   3.182   6.155 -0.7094  1.0721 -1.3796
 1948TIP3   OH227334   6.126   4.202   5.523  0.7291 -0.0643  0.4287
 1948TIP3    H127335   6.159   4.173   5.438  2.4796  0.3592  0.9336
 1948TIP3    H227336   6.071   4.278   5.502 -1.4061 -1.7769 -0.5880
 1949TIP3   OH227337   2.222   1.585  16.177  0.5189  0.2676 -0.1300
 1949TIP3    H127338   2.135   1.578  16.217  0.3585 -1.3215 -0.6813
 1949TIP3    H227339   2.267   1.652  16.229 -0.5600  0.1101  1.0567
 1950TIP3   OH227340   1.249   2.856   4.226  0.1629  0.2685  0.0976
 1950TIP3    H127341   1.183   2.804   4.272  0.1147  0.1619 -0.0912
 1950TIP3    H227342   1.198   2.919   4.175  0.1832 -0.2546 -0.5767
 1951TIP3   OH227343   1.415   1.445  11.843  0.2461  0.6394 -0.4682
 1951TIP3    H127344   1.491   1.414  11.793 -0.6724 -0.0532 -1.4705
 1951TIP3    H227345   1.369   1.504  11.783 -1.1720 -0.6290 -0.6951
 1952TIP3   OH227346   1.303   5.455  10.690  0.2354 -0.9994  0.3438
 1952TIP3    H127347   1.273   5.365  10.692  0.7056 -1.2210 -1.1132
 1952TIP3    H227348   1.252   5.497  10.621  1.7812 -0.8665 -0.7947
 1953TIP3   OH227349   1.183   6.873   6.472  0.6306  0.1788 -0.2284
 1953TIP3    H127350   1.090   6.894   6.472  0.9802  1.8460  0.2197
 1953TIP3    H227351   1.223   6.939   6.529  2.1263 -0.3185 -0.6541
 1954TIP3   OH227352   1.783   0.631   0.658  0.2493  0.4965  0.1134
 1954TIP3    H127353   1.786   0.615   0.564  0.4794 -0.5582  0.2877
 1954TIP3    H227354   1.698   0.672   0.673  0.1730  0.5847 -0.5300
 1955TIP3   OH227355   3.683   3.331  11.529  0.2848 -0.1936  0.2692
 1955TIP3    H127356   3.763   3.318  11.477  0.4182  0.6775  0.2439
 1955TIP3    H227357   3.686   3.423  11.554 -1.4963  0.2757 -1.0592
 1956TIP3   OH227358   2.628   1.089   1.424 -0.8376  0.2564 -0.3174
 1956TIP3    H127359   2.564   1.029   1.387 -1.0611  1.1186 -1.3803
 1956TIP3    H227360   2.592   1.177   1.407  0.6201  0.7591 -0.9801
 1957TIP3   OH227361   1.674   3.967  11.391  0.0437  0.2275  0.0397
 1957TIP3    H127362   1.648   3.947  11.301 -0.8135 -1.5654  0.6149
 1957TIP3    H227363   1.714   4.053  11.387 -0.7920  0.5720 -1.9115
 1958TIP3   OH227364   3.616   5.999  16.273  0.0903  0.1489 -0.0779
 1958TIP3    H127365   3.669   5.970  16.347 -0.3327 -1.5294 -0.3933
 1958TIP3    H227366   3.678   6.006  16.201  0.1978 -0.0083 -0.0023
 1959TIP3   OH227367   3.186   1.807   2.775 -0.4929 -0.1686  0.0723
 1959TIP3    H127368   3.172   1.716   2.748 -1.5533  0.2419 -0.8483
 1959TIP3    H227369   3.253   1.840   2.714 -0.4183 -0.2094  0.1321
 1960TIP3   OH227370   5.631   4.854  15.590  0.6663  0.1072  0.2324
 1960TIP3    H127371   5.552   4.896  15.624 -0.0726  0.3349 -1.6935
 1960TIP3    H227372   5.679   4.924  15.545  1.7905 -0.1224  1.0134
 1961TIP3   OH227373   3.303   1.250  16.380  0.4555  0.0007 -0.4665
 1961TIP3    H127374   3.328   1.254  16.288 -0.3310  1.6967 -0.6362
 1961TIP3    H227375   3.254   1.330  16.396  0.0061 -0.5648  1.2780
 1962TIP3   OH227376   3.087   2.994  17.027  0.0206 -0.9164  0.2173
 1962TIP3    H127377   3.183   2.994  17.027  0.0696 -2.0559 -1.5626
 1962TIP3    H227378   3.064   3.045  16.949 -0.9991  2.9705  2.7345
 1963TIP3   OH227379   3.589   1.188  11.091  0.2441 -0.8833 -0.1293
 1963TIP3    H127380   3.617   1.272  11.128 -1.3011 -1.0529  1.6154
 1963TIP3    H227381   3.517   1.210  11.032  0.1509 -0.9202 -0.0317
 1964TIP3   OH227382   4.929   0.826  16.714  0.2723  0.6935  0.2180
 1964TIP3    H127383   4.947   0.872  16.632  0.3155  1.0840  0.4423
 1964TIP3    H227384   4.966   0.739  16.702 -2.3882 -0.3412 -1.3550
 1965TIP3   OH227385   2.255   1.203  13.019 -0.3191 -0.2612  0.4760
 1965TIP3    H127386   2.328   1.251  13.057 -0.4694 -0.3835  0.9207
 1965TIP3    H227387   2.206   1.269  12.970 -0.4522  0.0193  0.9774
 1966TIP3   OH227388   1.863   1.686  10.877 -0.2813  0.0118  0.3015
 1966TIP3    H127389   1.912   1.615  10.835  2.1236  0.4277  2.1466
 1966TIP3    H227390   1.799   1.642  10.932 -0.8474 -0.6009 -0.8020
 1967TIP3   OH227391   2.878   2.626   1.898 -0.2035  0.1399  0.3582
 1967TIP3    H127392   2.845   2.573   1.826 -0.6060  0.1988  0.4962
 1967TIP3    H227393   2.835   2.711   1.887 -1.4841 -0.3084  1.5456
 1968TIP3   OH227394   1.330   5.074   4.629  0.0392 -0.1452  0.1205
 1968TIP3    H127395   1.289   5.112   4.707  0.3180  0.3334  0.0417
 1968TIP3    H227396   1.301   5.130   4.557  0.3355 -0.1664 -0.0171
 1969TIP3   OH227397   2.508   0.728  16.393  0.4153 -0.1180  0.2232
 1969TIP3    H127398   2.571   0.792  16.425  0.8491  0.1781 -1.1339
 1969TIP3    H227399   2.424   0.755  16.431  1.1500 -0.8448  2.4977
 1970TIP3   OH227400   0.870   0.878   3.598 -0.0200 -0.5231  0.3304
 1970TIP3    H127401   0.885   0.794   3.555  0.7921 -0.1312 -0.1803
 1970TIP3    H227402   0.793   0.914   3.554 -1.0122 -1.4346  1.2507
 1971TIP3   OH227403   5.203   2.262   6.028  0.0833  0.8760  0.3483
 1971TIP3    H127404   5.187   2.180   6.076 -2.2248  0.9880 -0.1266
 1971TIP3    H227405   5.276   2.303   6.075 -0.7277 -0.0086  2.5090
 1972TIP3   OH227406   3.447   0.572  13.655  0.2279  0.1488 -0.4791
 1972TIP3    H127407   3.438   0.513  13.730 -1.7844  1.7717  0.6568
 1972TIP3    H227408   3.483   0.652  13.691 -0.0039  0.6774 -1.3915
 1973TIP3   OH227409   1.161   0.158   1.513 -0.1219 -0.0946  0.2782
 1973TIP3    H127410   1.074   0.176   1.479 -0.5765  1.4118  2.0739
 1973TIP3    H227411   1.221   0.190   1.446 -0.9542  0.6271 -0.1419
 1974TIP3   OH227412   0.524   3.238  15.744  0.5620 -0.2255 -0.1501
 1974TIP3    H127413   0.466   3.162  15.754  1.2174 -0.7468 -0.2628
 1974TIP3    H227414   0.486   3.287  15.671  0.6546 -0.9413 -0.6969
 1975TIP3   OH227415   3.188   4.973   2.800  0.0963  0.1581 -0.1010
 1975TIP3    H127416   3.161   4.960   2.709 -1.2966 -1.1566  0.4489
 1975TIP3    H227417   3.236   4.893   2.822  0.2881  0.3976  0.3713
 1976TIP3   OH227418   4.872   1.765   0.929  0.0456  0.2596  0.2669
 1976TIP3    H127419   4.818   1.689   0.950  0.4573 -0.5872 -1.5924
 1976TIP3    H227420   4.814   1.823   0.880 -0.2454  1.1667  1.6105
 1977TIP3   OH227421   6.593   6.411   0.936  0.3395  0.2531  0.4105
 1977TIP3    H127422   6.619   6.328   0.976  4.0823  0.0126 -1.9668
 1977TIP3    H227423   6.528   6.386   0.870  2.4701 -1.2491 -1.3212
 1978TIP3   OH227424   3.663   6.794   4.050  0.5462 -0.4006 -0.6098
 1978TIP3    H127425   3.754   6.814   4.071 -0.2800  0.4598  2.7646
 1978TIP3    H227426   3.654   6.700   4.066  0.3044 -0.0264  1.7264
 1979TIP3   OH227427   1.221   3.406  14.394  0.3490  0.1580  0.1631
 1979TIP3    H127428   1.191   3.489  14.431  0.3194 -0.2912  1.1688
 1979TIP3    H227429   1.314   3.421  14.375  0.1520  0.6779 -0.4453
 1980TIP3   OH227430   4.663   6.063  11.390  0.5711 -0.8580 -0.0666
 1980TIP3    H127431   4.658   6.158  11.382 -1.2023 -0.8819  0.3062
 1980TIP3    H227432   4.695   6.033  11.306 -0.6558 -0.0297 -0.8624
 1981TIP3   OH227433   2.185   2.685   1.788  0.6380  0.1495  0.3119
 1981TIP3    H127434   2.249   2.684   1.859 -0.0701  2.7703  1.1225
 1981TIP3    H227435   2.237   2.699   1.709  1.2401 -0.1813  0.6407
 1982TIP3   OH227436   2.485   1.441   0.719 -0.0412 -0.1474  0.0247
 1982TIP3    H127437   2.409   1.487   0.684  0.8263  1.5093  0.2408
 1982TIP3    H227438   2.515   1.495   0.792  1.9274 -0.2371 -0.6735
 1983TIP3   OH227439   0.466   5.110   6.005 -0.2182  0.3933  0.0549
 1983TIP3    H127440   0.494   5.181   5.947 -0.3744 -0.2887 -0.8695
 1983TIP3    H227441   0.516   5.034   5.976 -1.5365 -0.3617 -0.2861
 1984TIP3   OH227442   6.881   4.282   3.978 -0.4681 -0.3793  0.0448
 1984TIP3    H127443   6.805   4.267   4.035 -0.9914  0.5390 -0.3968
 1984TIP3    H227444   6.940   4.210   3.999 -1.6651 -1.4136  0.0526
 1985TIP3   OH227445   1.182   1.695  13.518  0.4991  1.1647  0.7368
 1985TIP3    H127446   1.156   1.748  13.593 -0.6966 -0.7298  1.7249
 1985TIP3    H227447   1.133   1.614  13.527 -0.2693  1.1237 -2.5308
 1986TIP3   OH227448   1.843   2.509   4.263 -0.4825  0.2262 -0.3626
 1986TIP3    H127449   1.776   2.443   4.280 -0.3993  0.1847 -0.1990
 1986TIP3    H227450   1.804   2.566   4.197 -0.4932 -0.0791 -0.6209
 1987TIP3   OH227451   5.061   3.386   1.720 -0.0759 -0.1493 -0.0245
 1987TIP3    H127452   5.105   3.421   1.643  3.5935  1.4040  2.4765
 1987TIP3    H227453   5.095   3.297   1.729  1.2143  0.4098  0.8910
 1988TIP3   OH227454   1.616   2.132  15.095 -0.0319  0.0468  0.5220
 1988TIP3    H127455   1.531   2.130  15.140 -0.2909  1.9351  0.2055
 1988TIP3    H227456   1.622   2.047  15.051 -1.4200 -0.4070  1.1561
 1989TIP3   OH227457   3.614   6.149   4.192  0.0783  0.0003 -0.2437
 1989TIP3    H127458   3.655   6.196   4.120 -0.7112 -0.6253 -1.1264
 1989TIP3    H227459   3.523   6.177   4.190 -0.1434 -0.7014 -0.0591
 1990TIP3   OH227460   2.138   4.822   3.870  0.0399  0.7582  0.9295
 1990TIP3    H127461   2.082   4.884   3.822  1.9962  4.2812  2.7450
 1990TIP3    H227462   2.094   4.811   3.954 -1.1245 -1.8466  0.0835
 1991TIP3   OH227463   4.119   1.161   1.992  0.1955  0.0538  0.4088
 1991TIP3    H127464   4.152   1.099   2.057  1.8443  0.5927  0.1453
 1991TIP3    H227465   4.060   1.109   1.936 -0.1387 -0.7379  1.4662
 1992TIP3   OH227466   6.245   3.408  12.660  0.0340  0.4123 -0.7941
 1992TIP3    H127467   6.332   3.377  12.687 -0.0129 -0.2428 -1.3800
 1992TIP3    H227468   6.220   3.350  12.589  0.0937  2.0179 -2.1772
 1993TIP3   OH227469   1.420   0.845   2.735  0.3970 -0.7464 -0.2881
 1993TIP3    H127470   1.349   0.781   2.736  0.6323 -1.0007  0.9004
 1993TIP3    H227471   1.486   0.811   2.794  1.0599  0.0132 -0.5583
 1994TIP3   OH227472   5.470   2.283  16.296  0.3727  0.3341  0.3843
 1994TIP3    H127473   5.503   2.205  16.341 -0.3315  0.1135  0.5220
 1994TIP3    H227474   5.546   2.317  16.249  1.0096  0.2953  1.3533
 1995TIP3   OH227475   3.781   6.172   3.044  0.2998 -0.3030 -0.4412
 1995TIP3    H127476   3.763   6.111   2.973  0.2771  0.0605 -0.7532
 1995TIP3    H227477   3.697   6.216   3.059  0.0585 -1.0523  0.4676
 1996TIP3   OH227478   4.745   6.333  14.749 -0.1486 -0.3894  0.4791
 1996TIP3    H127479   4.815   6.352  14.686  0.1712 -1.2804  0.5408
 1996TIP3    H227480   4.667   6.321  14.695  0.2010 -1.5197  0.1945
 1997TIP3   OH227481   2.814   5.285   5.322  0.1057  0.4380  0.0471
 1997TIP3    H127482   2.898   5.330   5.317  0.5528 -0.4525 -1.0134
 1997TIP3    H227483   2.770   5.307   5.240 -0.2729  0.1333  0.1669
 1998TIP3   OH227484   0.328   5.794   2.271  0.1026 -0.3820  0.0536
 1998TIP3    H127485   0.407   5.773   2.320 -0.0532 -1.8272 -0.2710
 1998TIP3    H227486   0.273   5.716   2.279 -0.1153 -0.4863 -2.0199
 1999TIP3   OH227487   3.451   5.775  15.811 -0.6426 -0.1762 -0.1279
 1999TIP3    H127488   3.474   5.858  15.768  2.1532 -0.1482  1.1799
 1999TIP3    H227489   3.375   5.743  15.763  0.7520  1.0587 -3.4566
 2000TIP3   OH227490   2.617   5.827   4.095  0.0306  0.6005  0.7728
 2000TIP3    H127491   2.525   5.823   4.119  0.3903 -1.3733  2.0954
 2000TIP3    H227492   2.617   5.836   4.000 -1.5257  0.2976  0.7183
 2001TIP3   OH227493   4.073   0.847  11.829 -0.5458 -0.4168 -0.0675
 2001TIP3    H127494   4.119   0.812  11.906  0.9789  0.6820 -0.4219
 2001TIP3    H227495   4.120   0.928  11.809 -1.4514 -0.2578 -1.6606
 2002TIP3   OH227496   0.326   3.926  14.354 -0.4239  0.2260 -0.5438
 2002TIP3    H127497   0.365   3.984  14.289  1.6415  0.0096  0.4236
 2002TIP3    H227498   0.297   3.984  14.424  2.6815  0.1841  0.9618
 2003TIP3   OH227499   3.717   4.927   6.178 -0.6888  0.0866 -0.2678
 2003TIP3    H127500   3.752   5.011   6.149 -0.2196  0.4409  1.2492
 2003TIP3    H227501   3.624   4.929   6.154 -0.0631 -0.2406 -2.9758
 2004TIP3   OH227502   3.796   6.370   2.161 -0.6211  0.6758  0.7166
 2004TIP3    H127503   3.799   6.374   2.066  0.1140 -1.8791  0.5678
 2004TIP3    H227504   3.705   6.345   2.181 -0.6579  0.7609  0.6562
 2005TIP3   OH227505   6.842   0.567   5.347  0.9552  0.2793  0.4285
 2005TIP3    H127506   6.895   0.488   5.361  0.2040 -0.3135 -0.0246
 2005TIP3    H227507   6.816   0.594   5.435 -0.7881 -1.3808  0.4831
 2006TIP3   OH227508   2.804   3.354  13.567 -0.2915  0.2144 -0.1082
 2006TIP3    H127509   2.892   3.366  13.601 -0.8461  1.3364  1.0203
 2006TIP3    H227510   2.752   3.327  13.644 -1.1514  0.7261 -0.4910
 2007TIP3   OH227511   3.014   0.795  11.610 -0.0114 -0.0694 -0.1267
 2007TIP3    H127512   3.081   0.748  11.660 -0.3485  0.0191  0.4173
 2007TIP3    H227513   3.009   0.881  11.652 -1.9586 -0.7797  1.2383
 2008TIP3   OH227514   4.816   0.013   0.207  0.4560 -0.3041 -0.3153
 2008TIP3    H127515   4.751   0.070   0.248 -0.7172 -1.0953 -1.0157
 2008TIP3    H227516   4.814  -0.067   0.259  0.3460 -0.5962 -0.7614
 2009TIP3   OH227517   5.371   1.888   1.088 -0.5132 -0.3260 -0.7008
 2009TIP3    H127518   5.318   1.947   1.035 -0.3795  0.3995 -0.0519
 2009TIP3    H227519   5.335   1.801   1.071 -0.1946 -0.1836 -2.2977
 2010TIP3   OH227520   0.031   1.728  14.952 -0.2724  0.1547  0.0722
 2010TIP3    H127521   0.081   1.770  14.883 -0.0537  0.6387  0.5190
 2010TIP3    H227522   0.051   1.635  14.943  0.2260  0.2798 -0.1338
 2011TIP3   OH227523   5.215   4.969  13.128 -0.0406 -0.0450 -0.0354
 2011TIP3    H127524   5.174   4.935  13.048 -0.9014  3.5476 -1.2853
 2011TIP3    H227525   5.285   5.026  13.097 -1.3422  2.6391  1.6252
 2012TIP3   OH227526   2.806   5.976  16.397 -0.3686  0.1419  0.3002
 2012TIP3    H127527   2.857   6.036  16.453 -1.9702  0.9698  0.9272
 2012TIP3    H227528   2.727   6.026  16.375 -0.8293 -1.0421 -0.8073
 2013TIP3   OH227529   3.663   2.545   4.657  0.0651  0.4895  0.1511
 2013TIP3    H127530   3.641   2.580   4.743  0.3428  0.0774  0.3958
 2013TIP3    H227531   3.700   2.620   4.610 -2.1866  1.3209 -0.4292
 2014TIP3   OH227532   0.278   0.821   5.894  0.2799  1.0737  0.6343
 2014TIP3    H127533   0.318   0.873   5.824 -0.1248  0.1468 -0.3230
 2014TIP3    H227534   0.271   0.733   5.857 -0.5092  0.6967  1.6267
 2015TIP3   OH227535   2.746   0.548   2.188 -0.3524 -0.2902  0.2032
 2015TIP3    H127536   2.732   0.524   2.279  0.4659  0.2385  0.4791
 2015TIP3    H227537   2.673   0.508   2.141 -1.3780  0.3265  1.2276
 2016TIP3   OH227538   4.690   4.979   3.789 -0.5221  0.0107 -0.0017
 2016TIP3    H127539   4.733   5.060   3.760 -1.1373  0.6971  0.9448
 2016TIP3    H227540   4.609   5.008   3.829  0.6418 -0.7614  3.1968
 2017TIP3   OH227541   4.381   1.202   1.806 -0.3136  0.3169 -0.5092
 2017TIP3    H127542   4.299   1.154   1.802 -0.3008  0.1025  1.1019
 2017TIP3    H227543   4.422   1.172   1.887  1.1712  0.7147 -1.0841
 2018TIP3   OH227544   5.085   4.440  15.521 -0.2580 -0.1015 -0.1177
 2018TIP3    H127545   5.096   4.397  15.607  2.8872  0.2171 -0.2474
 2018TIP3    H227546   5.173   4.468  15.497 -1.5072  2.5587 -2.0986
 2019TIP3   OH227547   0.780   3.007   5.740  0.3084 -0.1631  0.0785
 2019TIP3    H127548   0.746   2.965   5.819 -1.8108 -1.5416 -1.4613
 2019TIP3    H227549   0.798   2.934   5.680  0.1520  0.9212 -1.3458
 2020TIP3   OH227550   3.260   3.620   1.866  0.1760  0.6327 -0.3418
 2020TIP3    H127551   3.327   3.551   1.864 -1.8569 -1.4339 -1.2156
 2020TIP3    H227552   3.209   3.602   1.945 -1.1611  0.2965 -1.2499
 2021TIP3   OH227553   6.773   4.683   6.209  0.4676  0.4744  0.4619
 2021TIP3    H127554   6.787   4.698   6.303 -0.8895  0.6982  0.6600
 2021TIP3    H227555   6.702   4.743   6.186 -0.4239 -0.8119 -0.2988
 2022TIP3   OH227556   6.031   0.400  16.958 -0.7780 -0.2904 -0.3608
 2022TIP3    H127557   5.986   0.328  16.912  1.7497 -0.1208 -3.4543
 2022TIP3    H227558   6.099   0.357  17.009 -0.2277 -0.1843 -1.0020
 2023TIP3   OH227559   5.357   3.326   2.609 -0.2196  0.2881 -0.1843
 2023TIP3    H127560   5.273   3.368   2.628 -0.2123  1.5632 -2.5367
 2023TIP3    H227561   5.421   3.378   2.659 -0.6725  0.2060  0.4939
 2024TIP3   OH227562   1.675   6.237  16.162  0.1005 -0.6068  0.0561
 2024TIP3    H127563   1.681   6.152  16.118 -1.3877  0.0079 -1.4541
 2024TIP3    H227564   1.765   6.260  16.184  0.5283 -2.6017  0.5997
 2025TIP3   OH227565   4.526   1.277   4.344  0.6254  0.2215 -0.3763
 2025TIP3    H127566   4.510   1.342   4.413  1.0631 -0.8993  0.8181
 2025TIP3    H227567   4.442   1.266   4.300  0.1986  0.5357  0.3523
 2026TIP3   OH227568   3.511   3.227   4.950 -0.3389 -0.1036 -0.0341
 2026TIP3    H127569   3.581   3.183   4.901  0.7280 -2.5023  3.2367
 2026TIP3    H227570   3.467   3.156   4.996 -0.6859  1.9328  3.0324
 2027TIP3   OH227571   4.347   6.808  14.217  0.2067 -0.5323  0.2379
 2027TIP3    H127572   4.351   6.858  14.299 -0.6673 -0.5621  0.3128
 2027TIP3    H227573   4.262   6.831  14.179  0.0391 -1.5178 -0.0156
 2028TIP3   OH227574   3.836   3.198   0.535 -0.1310  0.7087 -1.0279
 2028TIP3    H127575   3.847   3.115   0.489 -0.3362  0.5989 -0.8807
 2028TIP3    H227576   3.873   3.263   0.476 -1.5063  0.7287 -1.9076
 2029TIP3   OH227577   6.221   4.590  12.166  0.0664 -0.0653  0.1485
 2029TIP3    H127578   6.136   4.625  12.139 -0.3181 -0.5839  0.6898
 2029TIP3    H227579   6.205   4.498  12.184  0.7878 -0.2118  0.0695
 2030TIP3   OH227580   2.844   5.673  13.105 -0.1744 -0.1096  0.2627
 2030TIP3    H127581   2.937   5.686  13.088  0.6174 -1.1002  3.2330
 2030TIP3    H227582   2.819   5.601  13.047  0.9394  0.0309 -0.4262
 2031TIP3   OH227583   3.726   0.333  10.944  0.1055 -0.1450  0.2356
 2031TIP3    H127584   3.706   0.252  10.897 -1.7558  0.6597 -0.4494
 2031TIP3    H227585   3.811   0.360  10.909  0.1577 -1.1391 -0.4445
 2032TIP3   OH227586   2.928   5.333  16.651  0.6938 -0.2134  0.0733
 2032TIP3    H127587   2.867   5.338  16.725  1.4142  1.7388  0.5948
 2032TIP3    H227588   2.996   5.272  16.680  0.1573 -0.6792  0.3752
 2033TIP3   OH227589   3.281   4.184  13.598  0.1214 -0.0448  0.1817
 2033TIP3    H127590   3.255   4.271  13.628  2.7596  1.1673 -0.7667
 2033TIP3    H227591   3.261   4.184  13.505  2.8381  0.7817 -0.4922
 2034TIP3   OH227592   1.329   6.277   0.263 -0.3589  0.6949  0.3649
 2034TIP3    H127593   1.358   6.234   0.183 -2.8357  1.7976 -1.2367
 2034TIP3    H227594   1.283   6.209   0.312 -1.9966  0.8216 -0.9233
 2035TIP3   OH227595   6.684   2.876   0.277  0.9288 -0.1272  0.8472
 2035TIP3    H127596   6.771   2.842   0.255  0.1128 -0.3723 -2.4571
 2035TIP3    H227597   6.686   2.967   0.249 -0.5463 -0.7710 -1.6775
 2036TIP3   OH227598   1.501   1.320  11.392 -0.8686  0.0571  0.4739
 2036TIP3    H127599   1.580   1.283  11.431  0.3275  0.1760 -1.6549
 2036TIP3    H227600   1.429   1.274  11.435  0.4353 -2.1327  0.4767
 2037TIP3   OH227601   0.279   5.172   1.965 -0.2488  0.3211 -0.4163
 2037TIP3    H127602   0.195   5.143   2.001  0.1427 -0.3165 -0.0022
 2037TIP3    H227603   0.275   5.267   1.971 -0.0498  0.2413  1.6867
 2038TIP3   OH227604   0.229   1.366   5.635 -0.6250 -0.2232 -0.1435
 2038TIP3    H127605   0.135   1.356   5.648 -0.9270  0.5419 -1.4466
 2038TIP3    H227606   0.256   1.428   5.702 -1.4152  0.9058 -0.8204
 2039TIP3   OH227607   6.865   3.525  16.008  0.3966  0.9790  0.2332
 2039TIP3    H127608   6.881   3.431  16.014  0.6136  0.9526 -0.5749
 2039TIP3    H227609   6.833   3.550  16.095 -0.8797 -0.0770  0.1040
 2040TIP3   OH227610   3.502   2.715  12.982 -0.3719  0.0056  0.3486
 2040TIP3    H127611   3.547   2.674  12.908 -0.9131  0.7673 -0.4202
 2040TIP3    H227612   3.573   2.745  13.039  0.1486  1.4289 -0.9722
 2041TIP3   OH227613   5.251   1.593  11.595  0.0303 -0.3405  0.3432
 2041TIP3    H127614   5.266   1.676  11.640 -2.6472 -0.1320  1.0630
 2041TIP3    H227615   5.200   1.541  11.658  2.2245 -2.8628  0.1957
 2042TIP3   OH227616   5.876   6.303  12.875 -0.3497  0.0711  0.2837
 2042TIP3    H127617   5.892   6.214  12.905  3.2941  0.5633  0.2054
 2042TIP3    H227618   5.906   6.304  12.784 -0.5583  1.3410  0.2088
 2043TIP3   OH227619   5.968   2.237  13.030  0.1660 -0.1031 -0.4130
 2043TIP3    H127620   6.006   2.159  12.989 -0.5447 -0.0486 -1.1969
 2043TIP3    H227621   5.896   2.203  13.083 -0.9134  0.1210 -1.7059
 2044TIP3   OH227622   4.138   5.138  16.313  0.3270 -0.5840 -0.4329
 2044TIP3    H127623   4.190   5.064  16.281  1.5792  0.6997 -1.5503
 2044TIP3    H227624   4.047   5.109  16.306  0.6874 -1.4350 -2.4921
 2045TIP3   OH227625   0.873   0.156   1.771 -0.6738  0.4399  0.0565
 2045TIP3    H127626   0.858   0.061   1.768 -3.6764  0.8452  0.0352
 2045TIP3    H227627   0.941   0.167   1.839 -1.1305 -1.6270  0.9221
 2046TIP3   OH227628   3.583   5.931  12.752  0.0614  0.3928  0.3265
 2046TIP3    H127629   3.671   5.969  12.755  0.0016  0.9686 -2.6587
 2046TIP3    H227630   3.525   6.007  12.760 -0.1447  0.1969  0.6836
 2047TIP3   OH227631   3.699   6.535  16.306 -0.0523  0.0128  0.1481
 2047TIP3    H127632   3.628   6.496  16.256  1.1607 -3.0322  0.5583
 2047TIP3    H227633   3.746   6.590  16.243 -1.2547 -0.0102 -0.7981
 2048TIP3   OH227634   3.302   6.440   4.075  0.0944 -0.0571 -0.2973
 2048TIP3    H127635   3.233   6.494   4.114  0.6868  0.1438  0.5002
 2048TIP3    H227636   3.279   6.350   4.099  1.1187  0.1543  1.6541
 2049TIP3   OH227637   0.451   0.047  12.969 -0.1248  0.4194 -0.1267
 2049TIP3    H127638   0.518   0.101  13.012 -0.1581 -0.4211  1.0385
 2049TIP3    H227639   0.390   0.110  12.931  1.5045  1.2352 -1.5835
 2050TIP3   OH227640   3.164   6.291  16.075  0.4133 -0.7517  0.4903
 2050TIP3    H127641   3.097   6.262  16.138  0.2291  0.8070  1.0454
 2050TIP3    H227642   3.151   6.234  15.999 -3.8149  1.4933 -0.7974
 2051TIP3   OH227643   5.399   5.582   0.502 -0.4509  0.3719 -0.6190
 2051TIP3    H127644   5.470   5.551   0.446  0.1844  0.4689  0.1143
 2051TIP3    H227645   5.386   5.512   0.566 -2.7552 -0.7964 -2.2123
 2052TIP3   OH227646   0.727   1.448   5.870  0.2716 -0.0561  0.3509
 2052TIP3    H127647   0.821   1.438   5.883  0.1019 -1.3384  0.7644
 2052TIP3    H227648   0.693   1.468   5.957 -0.2189 -3.1914  1.0020
 2053TIP3   OH227649   3.819   2.400  16.926 -1.1499 -0.5492  0.5750
 2053TIP3    H127650   3.838   2.336  16.995  0.7439  0.6760  1.2467
 2053TIP3    H227651   3.753   2.357  16.872  2.0346 -4.3983 -0.7431
 2054TIP3   OH227652   0.791   1.326   5.630  0.2048  0.3407  0.1743
 2054TIP3    H127653   0.727   1.297   5.565 -0.2668  2.2825 -0.2869
 2054TIP3    H227654   0.739   1.368   5.698  0.9586  2.0701 -0.2670
 2055TIP3   OH227655   4.778   3.048   0.968 -0.4489 -0.1085  0.3579
 2055TIP3    H127656   4.825   3.100   1.032  0.1950 -0.5151  0.2318
 2055TIP3    H227657   4.698   3.021   1.012 -0.9614  1.2696  0.2997
 2056TIP3   OH227658   1.697   1.471  16.759  0.6759  0.0226 -0.3629
 2056TIP3    H127659   1.639   1.538  16.794  1.1059  0.3521 -0.2732
 2056TIP3    H227660   1.642   1.393  16.753  0.1650  0.3848 -0.4914
 2057TIP3   OH227661   5.138   6.601  12.044  0.0075 -0.4451 -0.0740
 2057TIP3    H127662   5.225   6.603  12.083 -0.5123  0.6462  1.0859
 2057TIP3    H227663   5.105   6.513  12.063  0.8424 -0.8697 -0.5291
 2058TIP3   OH227664   3.800   2.322  14.481  0.0615  0.5901 -0.2570
 2058TIP3    H127665   3.823   2.265  14.407 -0.2023 -0.2410  0.2849
 2058TIP3    H227666   3.704   2.326  14.478 -0.4622 -3.2539  2.6728
 2059TIP3   OH227667   0.819   4.825  13.474  0.1364  0.0371  0.0374
 2059TIP3    H127668   0.859   4.885  13.537 -1.8555  1.7124 -0.1660
 2059TIP3    H227669   0.844   4.860  13.389 -0.4897  0.2098 -0.0832
 2060TIP3   OH227670   3.362   4.278  16.851  0.7920 -0.6064  0.2742
 2060TIP3    H127671   3.366   4.182  16.848 -0.3526 -0.6887  0.9111
 2060TIP3    H227672   3.285   4.297  16.905  0.7554  0.6753 -0.2082
 2061TIP3   OH227673   3.640   0.077   5.979  0.2760  0.0071  0.4489
 2061TIP3    H127674   3.560   0.027   5.994  1.3464 -1.5718  1.1577
 2061TIP3    H227675   3.670   0.101   6.067  0.6103  0.5509  0.1920
 2062TIP3   OH227676   2.431   0.702  11.673  0.0239 -0.2116 -0.2172
 2062TIP3    H127677   2.460   0.792  11.682  0.0788 -0.4197  2.5008
 2062TIP3    H227678   2.443   0.681  11.580 -0.2103  2.6069 -0.9536
 2063TIP3   OH227679   0.035   4.502  14.514  0.4178  0.1261 -0.1830
 2063TIP3    H127680   0.100   4.527  14.448  0.7712  1.5351  0.6614
 2063TIP3    H227681  -0.034   4.568  14.506  0.1215 -0.1099  0.3725
 2064TIP3   OH227682   5.240   2.156   0.931  0.2976  0.8664 -0.1636
 2064TIP3    H127683   5.263   2.082   0.874 -1.9440  0.0506 -0.1184
 2064TIP3    H227684   5.236   2.231   0.872  1.7427  0.8185 -0.3658
 2065TIP3   OH227685   4.747   5.922   3.443  1.1026  0.3047 -0.3152
 2065TIP3    H127686   4.758   5.885   3.531  1.8060  3.0115  0.8431
 2065TIP3    H227687   4.713   6.010   3.458  0.6562  0.6431 -2.8270
 2066TIP3   OH227688   4.223   5.031  11.145  0.3652  0.5273  0.5374
 2066TIP3    H127689   4.155   4.964  11.140  0.0184  0.9326 -3.3785
 2066TIP3    H227690   4.178   5.113  11.127  1.7480  0.7786 -2.4283
 2067TIP3   OH227691   1.881   0.141  12.294 -0.1374 -0.5327  0.9872
 2067TIP3    H127692   1.920   0.110  12.376 -2.0318 -0.5558  1.9239
 2067TIP3    H227693   1.812   0.201  12.321 -1.3532 -1.1557 -0.5488
 2068TIP3   OH227694   5.329   4.373   5.492 -0.3203  0.8095 -0.0408
 2068TIP3    H127695   5.380   4.433   5.437 -0.0448  1.0183  0.4350
 2068TIP3    H227696   5.308   4.424   5.570 -1.2447  0.7178 -0.2177
 2069TIP3   OH227697   0.306   6.868  14.975 -0.3471 -0.0145 -0.2102
 2069TIP3    H127698   0.378   6.881  15.036 -0.1871 -0.0358 -0.3923
 2069TIP3    H227699   0.295   6.773  14.971 -1.0280  0.0185  0.5564
 2070TIP3   OH227700   4.606   5.587   1.538 -0.0149  0.8299  0.9504
 2070TIP3    H127701   4.598   5.547   1.452 -2.2511  1.5122  0.7864
 2070TIP3    H227702   4.675   5.536   1.582 -0.7878 -1.3415 -0.2312
 2071TIP3   OH227703   3.784   0.043   5.045 -0.4265  0.0123  0.5128
 2071TIP3    H127704   3.704   0.000   5.013 -0.0690 -0.1838 -0.1277
 2071TIP3    H227705   3.854  -0.019   5.024  0.0745  0.8220 -0.2404
 2072TIP3   OH227706   6.205   2.351  10.518  0.1447  0.4468 -0.4139
 2072TIP3    H127707   6.138   2.410  10.483 -2.2305 -1.9469 -0.2306
 2072TIP3    H227708   6.242   2.308  10.441  1.2893  1.4839 -0.4832
 2073TIP3   OH227709   0.019   5.983   1.359 -0.2843 -0.2032  0.3559
 2073TIP3    H127710   0.087   5.921   1.385  0.7385  0.3309 -0.9501
 2073TIP3    H227711  -0.063   5.942   1.387  0.3451 -2.1948 -0.5338
 2074TIP3   OH227712   6.358   2.651   2.462 -0.0773  0.4229 -0.7139
 2074TIP3    H127713   6.426   2.652   2.530 -0.2561 -0.1095 -0.5176
 2074TIP3    H227714   6.277   2.631   2.509 -0.8262  3.3090 -0.5844
 2075TIP3   OH227715   2.594   2.454   3.522 -0.0934  0.1396  0.1713
 2075TIP3    H127716   2.567   2.546   3.515  1.6442  0.7495  0.9228
 2075TIP3    H227717   2.638   2.436   3.439 -0.2358  0.0559  0.1142
 2076TIP3   OH227718   4.754   6.414  16.459  0.1181  0.1352 -0.0243
 2076TIP3    H127719   4.758   6.479  16.529 -0.2402 -0.0466  0.1661
 2076TIP3    H227720   4.846   6.396  16.438  0.2295  0.9962 -0.3572
 2077TIP3   OH227721   6.846   1.780  12.021 -0.2919 -0.0365  0.1510
 2077TIP3    H127722   6.814   1.831  12.096 -0.9466 -1.2700  0.7424
 2077TIP3    H227723   6.818   1.690  12.040 -0.4932 -0.3740 -1.5908
 2078TIP3   OH227724   5.788   5.471  16.576 -0.2550 -0.1851 -0.1451
 2078TIP3    H127725   5.766   5.449  16.667  0.0989 -0.7834 -0.1943
 2078TIP3    H227726   5.842   5.397  16.547 -0.4412 -0.0351 -0.8704
 2079TIP3   OH227727   3.841   4.739  13.698  0.6278 -0.6345  0.3278
 2079TIP3    H127728   3.780   4.666  13.708 -2.7775  1.9052 -0.2186
 2079TIP3    H227729   3.837   4.786  13.781  0.5316  0.5167 -0.3199
 2080TIP3   OH227730   1.949   1.084  14.456  0.1939 -0.4340  0.0465
 2080TIP3    H127731   1.966   1.172  14.423 -0.1714 -0.0943  0.7504
 2080TIP3    H227732   1.901   1.041  14.384  0.2477 -0.0149 -0.2446
 2081TIP3   OH227733   1.229   0.646   2.749 -0.2146  0.3418 -0.2467
 2081TIP3    H127734   1.213   0.592   2.671 -1.7106  0.0631  0.2351
 2081TIP3    H227735   1.239   0.583   2.820 -0.1819  0.6438  0.0159
 2082TIP3   OH227736   1.713   3.145  15.525 -0.3081  0.5342 -0.2824
 2082TIP3    H127737   1.677   3.106  15.604  0.1381 -2.3303 -1.3596
 2082TIP3    H227738   1.794   3.187  15.554 -0.4601  0.0665  0.8695
 2083TIP3   OH227739   4.283   5.465   4.775 -0.1166 -0.2399 -0.0651
 2083TIP3    H127740   4.335   5.525   4.723  1.4634  0.5330  2.2138
 2083TIP3    H227741   4.199   5.509   4.787  0.3767  0.6880  0.0441
 2084TIP3   OH227742   6.180   0.930  14.201  0.4271  0.2577  0.4671
 2084TIP3    H127743   6.150   0.944  14.112  1.9141 -1.1106 -0.3033
 2084TIP3    H227744   6.264   0.886  14.191  0.8738  0.5383  2.5491
 2085TIP3   OH227745   0.766   2.117   0.586 -0.2769  0.0180  0.0848
 2085TIP3    H127746   0.759   2.199   0.635 -0.1714 -0.6496  1.2663
 2085TIP3    H227747   0.828   2.136   0.516  1.5078  0.3641  1.6795
 2086TIP3   OH227748   2.422   5.716  16.924 -0.0347 -0.6088 -0.0886
 2086TIP3    H127749   2.418   5.658  17.001 -0.8734 -0.4758 -0.0181
 2086TIP3    H227750   2.426   5.656  16.850 -0.6882 -0.7673 -0.0063
 2087TIP3   OH227751   2.032   1.721  15.933 -0.2389  0.1552 -0.4435
 2087TIP3    H127752   2.007   1.721  16.025  2.0633 -0.7558  0.2406
 2087TIP3    H227753   2.034   1.629  15.908 -1.1185  0.4068 -1.5109
 2088TIP3   OH227754   6.672   6.268  12.801 -0.4237  0.1317 -0.0263
 2088TIP3    H127755   6.592   6.311  12.832 -0.4960  1.2865 -1.6734
 2088TIP3    H227756   6.645   6.179  12.782 -0.8642 -0.0093  1.1354
 2089TIP3   OH227757   5.626   1.366  12.822  0.3171  0.4469  0.5936
 2089TIP3    H127758   5.628   1.300  12.892  0.4745 -1.6508 -1.2891
 2089TIP3    H227759   5.533   1.374  12.800  0.3279  0.6426  0.6168
 2090TIP3   OH227760   2.411   5.866  15.226  0.5537 -0.3156  0.0315
 2090TIP3    H127761   2.489   5.908  15.262  0.0896  0.3534  0.2691
 2090TIP3    H227762   2.378   5.810  15.296  1.3220 -1.3058 -0.3754
 2091TIP3   OH227763   1.295   1.116   6.671  0.2208 -0.3768  0.4504
 2091TIP3    H127764   1.361   1.061   6.631  0.5878 -1.2462  2.1713
 2091TIP3    H227765   1.343   1.192   6.704 -0.2177  0.8254 -1.5087
 2092TIP3   OH227766   1.053   1.800  11.701  0.1322  0.0794  0.2744
 2092TIP3    H127767   1.091   1.782  11.615  0.0552 -0.3190  0.3213
 2092TIP3    H227768   0.965   1.762  11.697  0.5977 -1.1447  0.9783
 2093TIP3   OH227769   5.627   0.746  15.732 -0.3406  0.2350 -0.0940
 2093TIP3    H127770   5.722   0.740  15.729 -0.2766  0.2589  1.1832
 2093TIP3    H227771   5.598   0.662  15.769 -0.7031  0.7146  0.7527
 2094TIP3   OH227772   1.177   6.744   5.706 -0.2389  0.0224 -0.1166
 2094TIP3    H127773   1.099   6.691   5.688  0.3020 -1.0056  0.5088
 2094TIP3    H227774   1.202   6.780   5.621 -1.1969  0.0974 -0.3797
 2095TIP3   OH227775   3.843   5.185  16.357  0.2449 -0.5271 -0.3333
 2095TIP3    H127776   3.876   5.263  16.311  0.9709 -1.0442 -0.7138
 2095TIP3    H227777   3.871   5.197  16.447 -0.6853  0.2157 -0.1172
 2096TIP3   OH227778   3.926   3.864  14.682  0.7798 -0.0253  0.4793
 2096TIP3    H127779   3.855   3.865  14.617  0.1912 -0.6824  1.0885
 2096TIP3    H227780   4.003   3.838  14.633  0.0543 -1.9758  0.3011
 2097TIP3   OH227781   0.959   5.998   4.707 -0.1191 -0.2881  0.5753
 2097TIP3    H127782   0.976   5.986   4.801 -0.3106 -0.6910  0.5624
 2097TIP3    H227783   0.879   5.948   4.691 -0.6147  0.5556  0.3817
 2098TIP3   OH227784   5.719   3.903  13.398  0.2182 -0.4980  0.3318
 2098TIP3    H127785   5.787   3.904  13.465 -0.2454 -2.2264  0.8845
 2098TIP3    H227786   5.755   3.954  13.326  1.5529 -0.2891  1.1172
 2099TIP3   OH227787   5.057   0.893   3.650  0.3564 -0.0898 -0.1643
 2099TIP3    H127788   5.126   0.955   3.674  0.4907 -0.2796 -0.0568
 2099TIP3    H227789   5.063   0.825   3.717 -1.8781  1.3520  1.6498
 2100TIP3   OH227790   2.576   3.595  14.836 -0.3051  0.8617  0.5510
 2100TIP3    H127791   2.526   3.670  14.868 -2.2819 -0.1489 -0.0319
 2100TIP3    H227792   2.591   3.614  14.743 -2.5758 -0.2916 -0.1228
 2101TIP3   OH227793   1.108   0.832  11.570 -0.2642  0.0546 -0.4411
 2101TIP3    H127794   1.116   0.926  11.556  1.5611 -0.2030 -1.3751
 2101TIP3    H227795   1.046   0.804  11.503 -1.4133  0.6612  0.3245
 2102TIP3   OH227796   4.864   1.633   4.046 -0.2202 -0.0209 -0.0453
 2102TIP3    H127797   4.958   1.618   4.049  0.2956  2.5681 -0.6126
 2102TIP3    H227798   4.835   1.586   3.967  0.6695 -0.4523 -0.1269
 2103TIP3   OH227799   2.290   2.249   2.337 -0.0044 -0.0713  0.5684
 2103TIP3    H127800   2.344   2.278   2.264 -0.8269 -1.3855 -0.6120
 2103TIP3    H227801   2.343   2.266   2.415 -0.2283  4.2204  0.0542
 2104TIP3   OH227802   6.621   2.850   4.625 -0.0138 -0.2714 -0.1010
 2104TIP3    H127803   6.613   2.804   4.709 -2.3321  1.2162  0.5958
 2104TIP3    H227804   6.625   2.942   4.649 -0.3788  0.1499 -1.6098
 2105TIP3   OH227805   3.047   2.165   3.889  0.3629 -0.1657 -0.0770
 2105TIP3    H127806   3.048   2.099   3.819 -2.1970  0.0523 -0.4246
 2105TIP3    H227807   3.083   2.120   3.965 -0.3272 -1.6714 -0.5935
 2106TIP3   OH227808   2.352   6.279  12.176  0.7383  0.2437  0.0080
 2106TIP3    H127809   2.385   6.250  12.091  0.7838 -0.9141  0.3995
 2106TIP3    H227810   2.427   6.320  12.219  0.9948 -0.1161 -0.0979
 2107TIP3   OH227811   5.737   4.734   0.806  0.0849 -0.2156 -0.3347
 2107TIP3    H127812   5.645   4.732   0.782  0.0855 -0.1421 -0.3426
 2107TIP3    H227813   5.744   4.673   0.879  0.6077 -2.7666 -2.3664
 2108TIP3   OH227814   6.463   1.720  10.769  0.8023 -0.2193 -0.0679
 2108TIP3    H127815   6.445   1.682  10.683  2.3575  0.2766 -0.6552
 2108TIP3    H227816   6.556   1.743  10.766  0.4667  1.5409  1.0649
 2109TIP3   OH227817   3.406   3.577   4.616 -0.8717  0.0796  0.0602
 2109TIP3    H127818   3.475   3.621   4.566 -1.9318  1.6575 -0.1055
 2109TIP3    H227819   3.361   3.522   4.551  0.6967 -1.6300  0.3459
 2110TIP3   OH227820   3.289   5.370   4.410 -0.5405 -0.5084  0.4013
 2110TIP3    H127821   3.377   5.384   4.376 -0.5085 -0.3206  0.5641
 2110TIP3    H227822   3.237   5.345   4.333 -0.2749 -0.9387  0.3603
 2111TIP3   OH227823   0.727   3.929   5.055  0.2253 -0.2835  0.1257
 2111TIP3    H127824   0.808   3.970   5.021 -0.4918  0.9624 -0.1617
 2111TIP3    H227825   0.736   3.935   5.150 -0.2984  1.5448  0.1078
 2112TIP3   OH227826   5.350   6.245  11.103  0.5046  0.1823  0.2240
 2112TIP3    H127827   5.321   6.194  11.027  0.4531  0.8116 -0.1881
 2112TIP3    H227828   5.301   6.208  11.176 -0.7061  0.6366 -0.3180
 2113TIP3   OH227829   2.191   2.976  12.695  0.2224  0.5317  0.3443
 2113TIP3    H127830   2.198   3.067  12.724  1.6182  0.4747  0.2683
 2113TIP3    H227831   2.273   2.959  12.649 -0.1256 -0.6926  0.1324
 2114TIP3   OH227832   1.023   5.082  14.072  0.4361 -0.3278 -0.1294
 2114TIP3    H127833   0.957   5.058  14.008  0.3928  0.1811 -0.2821
 2114TIP3    H227834   1.074   5.151  14.029  0.7749 -0.3921  0.1628
 2115TIP3   OH227835   4.641   2.511   4.329  0.7581 -0.0097  0.1695
 2115TIP3    H127836   4.673   2.477   4.245  0.3221  1.1616 -0.4900
 2115TIP3    H227837   4.720   2.536   4.377  0.9769  0.0312 -0.2116
 2116TIP3   OH227838   5.922   0.171   4.133 -0.1712 -0.1364  0.3688
 2116TIP3    H127839   5.936   0.165   4.038 -1.5705 -0.7022  0.1796
 2116TIP3    H227840   6.009   0.156   4.171 -0.0186 -2.4942 -0.7586
 2117TIP3   OH227841   6.580   2.624   3.320 -0.3008  0.2335 -0.4267
 2117TIP3    H127842   6.620   2.691   3.264  1.3619 -0.6904 -0.4119
 2117TIP3    H227843   6.530   2.569   3.261 -0.1279  0.3919 -0.7203
 2118TIP3   OH227844   6.374   3.782  13.616  0.4604 -0.3894 -0.2586
 2118TIP3    H127845   6.387   3.687  13.617  0.1046 -0.4483  1.1558
 2118TIP3    H227846   6.406   3.811  13.702 -0.8870  0.5516 -0.0521
 2119TIP3   OH227847   6.837   4.505   6.568 -0.0638  0.1241 -0.1685
 2119TIP3    H127848   6.744   4.525   6.581 -0.0916 -0.6655  0.9866
 2119TIP3    H227849   6.870   4.579   6.516 -0.6363  2.0669  2.0444
 2120TIP3   OH227850   5.554   0.483   5.807  0.0251  0.4805  0.5363
 2120TIP3    H127851   5.532   0.392   5.823  1.3022  0.1363  0.4721
 2120TIP3    H227852   5.640   0.480   5.765  0.5247  1.7462  1.3986
 2121TIP3   OH227853   2.226   1.116   6.241 -0.1693 -0.5242  0.3170
 2121TIP3    H127854   2.217   1.169   6.321 -0.2386  0.9135 -0.6150
 2121TIP3    H227855   2.284   1.043   6.268  1.0146  0.7184  1.3175
 2122TIP3   OH227856   3.602   0.342   3.868  0.2100  0.7630  0.4442
 2122TIP3    H127857   3.579   0.345   3.775  0.6384  0.7360  0.3369
 2122TIP3    H227858   3.566   0.259   3.899 -0.7219  1.1849  0.5151
 2123TIP3   OH227859   5.200   2.215   2.274  0.3024  0.5029 -0.0863
 2123TIP3    H127860   5.160   2.200   2.188  0.6630 -0.5497 -0.0781
 2123TIP3    H227861   5.130   2.194   2.336  1.1281 -2.5147 -0.0336
 2124TIP3   OH227862   3.661   5.138   5.012 -0.0725 -0.0134 -0.3431
 2124TIP3    H127863   3.624   5.134   5.100  0.4251  0.6325 -0.0929
 2124TIP3    H227864   3.586   5.146   4.954 -0.3958 -0.3046  0.0299
 2125TIP3   OH227865   6.592   4.581   3.602 -0.0254  0.4717  0.6624
 2125TIP3    H127866   6.653   4.507   3.608  0.4306  0.7806  0.0434
 2125TIP3    H227867   6.639   4.645   3.548 -0.7658  0.8547  0.4652
 2126TIP3   OH227868   2.806   6.206  15.233  0.3848 -0.0269  0.3049
 2126TIP3    H127869   2.712   6.223  15.241  0.5161  0.4025  1.0040
 2126TIP3    H227870   2.848   6.282  15.275  1.0280 -1.0896  1.6463
 2127TIP3   OH227871   5.200   3.230  11.463  0.3476 -0.6176 -0.4725
 2127TIP3    H127872   5.270   3.192  11.411  1.3956  0.6375 -0.0364
 2127TIP3    H227873   5.133   3.161  11.468  1.6103 -1.9161 -0.7569
 2128TIP3   OH227874   1.331   0.339  16.574 -0.4987 -0.0527  0.0775
 2128TIP3    H127875   1.410   0.286  16.564  0.3824  1.3165 -0.5709
 2128TIP3    H227876   1.277   0.317  16.498  0.4205  0.8594 -0.8711
 2129TIP3   OH227877   5.894   0.316  11.666  0.4593  0.3482 -0.5936
 2129TIP3    H127878   5.958   0.386  11.649  2.0316 -1.1432 -1.1453
 2129TIP3    H227879   5.828   0.357  11.722  1.2051  2.3188 -1.0676
 2130TIP3   OH227880   4.845   5.182   3.745  0.2670 -0.1608 -0.3832
 2130TIP3    H127881   4.879   5.174   3.834  0.1351 -0.0743 -0.3246
 2130TIP3    H227882   4.903   5.244   3.702 -1.0083  1.5828  0.3195
 2131TIP3   OH227883   0.829   0.998   5.150  0.1168  0.2229  0.2451
 2131TIP3    H127884   0.765   0.988   5.080 -0.7723 -0.3338  1.0997
 2131TIP3    H227885   0.809   1.084   5.189  0.3836  0.3796  0.0395
 2132TIP3   OH227886   1.644   2.875  14.061  0.3742  0.4940 -0.0955
 2132TIP3    H127887   1.664   2.793  14.015 -1.0243  0.9094 -1.5179
 2132TIP3    H227888   1.594   2.847  14.138  1.0986 -0.0767  0.1771
 2133TIP3   OH227889   4.847   3.343   2.650 -0.0650  0.3567 -0.6818
 2133TIP3    H127890   4.840   3.404   2.723 -0.0679 -0.1813 -0.2171
 2133TIP3    H227891   4.918   3.378   2.596 -0.1196  0.8086 -0.4630
 2134TIP3   OH227892   6.724   2.209  12.701 -0.3510 -0.2638 -0.1654
 2134TIP3    H127893   6.692   2.215  12.791  0.7528 -0.0542  0.2311
 2134TIP3    H227894   6.766   2.293  12.685 -1.0326 -0.0912 -1.0842
 2135TIP3   OH227895   4.540   6.398   4.373 -0.2895  0.2405 -0.3348
 2135TIP3    H127896   4.488   6.478   4.376  0.4686  0.7677 -0.9127
 2135TIP3    H227897   4.629   6.428   4.357  0.0741 -0.6979 -0.1205
 2136TIP3   OH227898   3.354   6.606  16.399  0.4682  0.7077 -0.2013
 2136TIP3    H127899   3.347   6.545  16.325  0.3917  0.8705 -0.3310
 2136TIP3    H227900   3.347   6.692  16.359 -0.6363  0.7754  0.1081
 2137TIP3   OH227901   4.138   5.780   2.120  0.1347 -0.2761 -0.0225
 2137TIP3    H127902   4.065   5.765   2.180 -0.6974  1.1887 -0.6049
 2137TIP3    H227903   4.177   5.862   2.152  0.0307  0.2087 -1.1097
 2138TIP3   OH227904   4.442   4.609  15.844 -0.3019  0.0993  1.1625
 2138TIP3    H127905   4.346   4.609  15.843 -0.3642  1.8140 -0.4455
 2138TIP3    H227906   4.466   4.533  15.896 -2.5292 -3.5555 -2.4824
 2139TIP3   OH227907   3.396   2.359   1.531 -0.3847  0.0239  0.8876
 2139TIP3    H127908   3.315   2.397   1.498  0.0141  0.4055  0.3346
 2139TIP3    H227909   3.407   2.397   1.618  0.4123  1.8177  0.0457
 2140TIP3   OH227910   1.418   2.153   3.878 -0.3051  0.2523 -0.0370
 2140TIP3    H127911   1.431   2.156   3.784 -2.0686  0.0545 -0.3257
 2140TIP3    H227912   1.425   2.061   3.901  0.0124  0.2876  0.0102
 2141TIP3   OH227913   0.664   1.963   0.001  0.0256 -0.1728  0.3041
 2141TIP3    H127914   0.634   1.904  -0.068  0.3311 -1.1322  0.9545
 2141TIP3    H227915   0.587   1.975   0.057 -0.3177  0.8784 -0.3626
 2142TIP3   OH227916   5.672   0.091   3.346  0.0870 -0.2926 -0.4615
 2142TIP3    H127917   5.653   0.132   3.261 -0.9865 -0.3885 -0.2767
 2142TIP3    H227918   5.623   0.009   3.345  1.6510 -1.2591 -0.5298
 2143TIP3   OH227919   4.370   4.840  12.634  0.6935 -0.1395  0.0635
 2143TIP3    H127920   4.452   4.796  12.613  1.1699 -0.9476  3.0463
 2143TIP3    H227921   4.324   4.777  12.691 -1.4715  0.7752 -0.5758
 2144TIP3   OH227922   4.188   0.888   3.881 -0.3719  0.4283 -0.0816
 2144TIP3    H127923   4.210   0.796   3.889 -0.7636  0.1207 -1.9936
 2144TIP3    H227924   4.099   0.888   3.844 -0.6253  1.5840  0.4700
 2145TIP3   OH227925   1.701   3.535   6.190  0.3520  0.0192  0.7141
 2145TIP3    H127926   1.619   3.542   6.238  0.4165  0.7357  0.7276
 2145TIP3    H227927   1.730   3.445   6.205 -0.7995 -0.4820  0.0912
 2146TIP3   OH227928   3.587   0.393  16.546  0.2242  0.9917 -0.8782
 2146TIP3    H127929   3.626   0.466  16.594 -2.2730  1.6801  0.2364
 2146TIP3    H227930   3.500   0.424  16.520 -0.3389 -1.0774 -1.6593
 2147TIP3   OH227931   6.031   3.466   1.379  0.1535 -0.0708  0.1795
 2147TIP3    H127932   5.954   3.409   1.371  0.1690 -0.4915  2.4497
 2147TIP3    H227933   6.001   3.540   1.431  1.3167 -0.3341  1.2587
 2148TIP3   OH227934   6.006   0.878  12.937 -0.2699 -0.2567 -0.0019
 2148TIP3    H127935   6.009   0.934  13.015 -0.3915  1.3267 -1.0820
 2148TIP3    H227936   6.019   0.789  12.971  1.0098  0.5007  1.6686
 2149TIP3   OH227937   0.868   0.352  12.911  0.3606  0.5227  0.3748
 2149TIP3    H127938   0.837   0.283  12.851 -1.8476 -0.4371  2.4307
 2149TIP3    H227939   0.808   0.425  12.896  1.5103  1.3219 -0.4520
 2150TIP3   OH227940   0.301   1.575  13.978  0.4565 -0.1300 -0.2257
 2150TIP3    H127941   0.345   1.550  14.059 -1.6353  0.2202  1.0957
 2150TIP3    H227942   0.262   1.660  13.998 -0.0724 -0.0140 -1.6387
 2151TIP3   OH227943   6.618   6.002  14.799 -0.4802 -0.1035  0.0716
 2151TIP3    H127944   6.642   5.985  14.890 -0.0391 -1.0238 -0.1994
 2151TIP3    H227945   6.672   5.941  14.749 -1.0418  0.0810 -0.7742
 2152TIP3   OH227946   0.887   1.740   3.627  0.5204  0.2247 -0.2241
 2152TIP3    H127947   0.949   1.677   3.664  0.5457 -0.7517 -1.8371
 2152TIP3    H227948   0.802   1.696   3.633  0.4505  0.2726 -0.8256
 2153TIP3   OH227949   0.507   4.744   1.819 -0.2240  0.1113  0.4075
 2153TIP3    H127950   0.453   4.676   1.860 -0.6693 -0.2782 -0.7735
 2153TIP3    H227951   0.544   4.702   1.741 -1.6759  1.5882 -1.1683
 2154TIP3   OH227952   0.193   4.541  15.529  0.7701  0.6838  0.1975
 2154TIP3    H127953   0.132   4.603  15.569  2.1081  1.1265  1.6288
 2154TIP3    H227954   0.162   4.533  15.438 -1.6497  0.5479  0.9539
 2155TIP3   OH227955   3.410   1.018   4.929  0.3705 -0.0548 -0.5341
 2155TIP3    H127956   3.433   1.072   5.005 -0.8038  0.2774 -0.3919
 2155TIP3    H227957   3.341   0.960   4.961 -0.6916  0.6161 -1.5249
 2156TIP3   OH227958   2.925   6.302  16.947  0.1150  0.0471  0.4729
 2156TIP3    H127959   2.885   6.276  17.030 -0.2277  2.0654  0.9934
 2156TIP3    H227960   2.861   6.360  16.907  1.7213  1.9118  0.4782
 2157TIP3   OH227961   3.528   2.124  11.084  0.1308  0.8488 -0.2879
 2157TIP3    H127962   3.547   2.218  11.084  1.7970  0.5433  0.1189
 2157TIP3    H227963   3.542   2.097  11.174  0.1291  0.1275 -0.4968
 2158TIP3   OH227964   6.609   6.114   4.027  0.0407  0.3962  0.0198
 2158TIP3    H127965   6.532   6.155   4.067 -0.5230 -0.0912 -0.5369
 2158TIP3    H227966   6.605   6.141   3.936  0.7313  0.6492  0.0608
 2159TIP3   OH227967   2.641   1.321   2.599  0.1462 -0.2328  0.3894
 2159TIP3    H127968   2.624   1.415   2.590  1.3532  0.0124  0.4316
 2159TIP3    H227969   2.699   1.301   2.526 -0.7266 -1.1241 -0.0724
 2160TIP3   OH227970   4.269   1.733   5.780  0.2785 -0.1167  0.0340
 2160TIP3    H127971   4.213   1.692   5.714  0.0152  1.2778 -0.6474
 2160TIP3    H227972   4.358   1.709   5.755  0.1314 -0.2198 -0.3879
 2161TIP3   OH227973   0.537   0.322  14.919 -0.0387 -0.0209 -0.7271
 2161TIP3    H127974   0.517   0.414  14.899 -1.1494  0.1381  0.9707
 2161TIP3    H227975   0.617   0.326  14.971  1.5037 -0.2703 -2.9354
 2162TIP3   OH227976   0.053   1.097  15.098  0.1627 -0.3853  0.0867
 2162TIP3    H127977   0.033   1.153  15.023  1.5804 -1.0814 -0.8544
 2162TIP3    H227978  -0.027   1.047  15.113 -1.0957  1.6798  0.8372
 2163TIP3   OH227979   0.106   3.779  13.605 -0.0327  0.4567 -0.0920
 2163TIP3    H127980   0.154   3.709  13.649 -0.0104  0.9318  0.6496
 2163TIP3    H227981   0.104   3.851  13.668 -1.3688  0.5965 -0.2520
 2164TIP3   OH227982   0.134   3.698  12.784 -0.2600  0.2876  0.3172
 2164TIP3    H127983   0.130   3.658  12.871  0.3389 -1.7019 -0.4963
 2164TIP3    H227984   0.102   3.787  12.796 -1.9657 -0.5184  2.2264
 2165TIP3   OH227985   1.748   0.255  11.014  0.0822 -0.3873 -0.5244
 2165TIP3    H127986   1.709   0.277  10.929  0.8021 -0.2745 -0.8304
 2165TIP3    H227987   1.677   0.270  11.077  0.1443  1.5651 -0.8638
 2166TIP3   OH227988   3.241   3.232   4.658  0.1961  0.2014  0.3662
 2166TIP3    H127989   3.248   3.145   4.697 -2.3549 -0.0201  0.4741
 2166TIP3    H227990   3.291   3.288   4.718  2.1970 -1.1716  0.0964
 2167TIP3   OH227991   0.612   0.748   0.693  0.1429  0.4523 -0.0735
 2167TIP3    H127992   0.643   0.763   0.782 -0.9332  1.0852  0.2109
 2167TIP3    H227993   0.634   0.828   0.646  0.0906  0.3922 -0.2018
 2168TIP3   OH227994   0.962   6.607  13.285  0.2890 -0.3194 -0.4926
 2168TIP3    H127995   1.040   6.550  13.285 -0.9632 -2.1379 -1.9811
 2168TIP3    H227996   0.927   6.598  13.374  0.6812 -1.0708 -0.4008
 2169TIP3   OH227997   2.041   3.357  16.796 -0.2762 -0.7695  0.3845
 2169TIP3    H127998   2.028   3.278  16.743  0.5691  0.4807 -1.8197
 2169TIP3    H227999   2.073   3.325  16.880 -1.9657 -2.8729  0.3218
 2170TIP3   OH228000   5.155   2.792   2.390 -0.1592 -0.2122 -0.3019
 2170TIP3    H128001   5.087   2.825   2.332 -0.5248  1.7356  1.1317
 2170TIP3    H228002   5.225   2.857   2.384 -0.0072 -0.2214  1.0321
 2171TIP3   OH228003   5.133   4.835  11.898  0.4382 -0.0912 -0.2886
 2171TIP3    H128004   5.101   4.905  11.841  0.5635  0.0217 -0.2215
 2171TIP3    H228005   5.209   4.873  11.942  0.1771 -0.0883  0.1596
 2172TIP3   OH228006   2.262   4.119  12.753 -0.6045  0.5078 -0.2994
 2172TIP3    H128007   2.209   4.174  12.696 -0.3509  0.7525 -0.3018
 2172TIP3    H228008   2.352   4.149  12.738 -0.2828 -0.8562 -1.3943
 2173TIP3   OH228009   1.178   2.477   2.556  0.1442 -0.7129  0.4982
 2173TIP3    H128010   1.126   2.398   2.544  0.1415 -0.6922  0.3716
 2173TIP3    H228011   1.258   2.462   2.506  0.3482 -0.8266  0.8594
 2174TIP3   OH228012   5.298   2.208   0.339  0.2840 -0.0432  0.4937
 2174TIP3    H128013   5.215   2.185   0.381 -1.2500  1.1372 -1.6961
 2174TIP3    H228014   5.294   2.168   0.252  1.7799  0.4909  0.1343
 2175TIP3   OH228015   6.124   0.508   5.872  0.2861 -0.1308  1.0456
 2175TIP3    H128016   6.209   0.550   5.857  0.8778 -1.6141 -0.0001
 2175TIP3    H228017   6.107   0.521   5.965  0.7221  1.8637  0.8869
 2176TIP3   OH228018   0.124   2.416  12.369  0.0999 -0.6051 -0.4300
 2176TIP3    H128019   0.148   2.324  12.381  0.0355 -0.5969 -0.2292
 2176TIP3    H228020   0.096   2.422  12.277 -0.8361 -1.0081 -0.1884
 2177TIP3   OH228021   5.157   3.775   5.287 -0.6562  0.1619  0.5797
 2177TIP3    H128022   5.201   3.794   5.204 -0.1106 -1.3163  0.4894
 2177TIP3    H228023   5.191   3.689   5.313 -3.0352 -0.8071  0.8054
 2178TIP3   OH228024   1.066   5.285   5.402  0.4559 -0.4597  0.0516
 2178TIP3    H128025   1.048   5.232   5.324  0.1597 -0.8235  0.3607
 2178TIP3    H228026   1.022   5.368   5.384  1.4248 -0.0907 -0.6939
 2179TIP3   OH228027   2.660   4.709  14.423 -0.4452  0.0126 -0.5680
 2179TIP3    H128028   2.756   4.712  14.414 -0.5576  0.8709 -1.6281
 2179TIP3    H228029   2.646   4.664  14.506  0.9356  2.0382  0.8591
 2180TIP3   OH228030   5.742   0.460  15.453 -0.2561  0.4512 -0.2716
 2180TIP3    H128031   5.825   0.413  15.459 -0.9049 -0.7197 -0.2255
 2180TIP3    H228032   5.706   0.456  15.542  0.1718  2.0006  0.0004
 2181TIP3   OH228033   5.916   3.688   5.467 -0.0583 -0.2211 -0.0876
 2181TIP3    H128034   5.955   3.633   5.399  0.0469  0.5485 -0.6532
 2181TIP3    H228035   5.840   3.729   5.426 -1.2068 -1.3084  0.8608
 2182TIP3   OH228036   1.647   4.199   2.638 -0.2032  0.1391 -0.4426
 2182TIP3    H128037   1.605   4.115   2.625  0.7362 -0.8388  2.1618
 2182TIP3    H228038   1.737   4.186   2.607 -0.0551  0.1859 -0.0301
 2183TIP3   OH228039   1.972   6.420   4.786 -0.1906  0.6070 -0.2263
 2183TIP3    H128040   1.976   6.508   4.748  0.1702 -0.3366 -2.5779
 2183TIP3    H228041   2.019   6.427   4.869 -0.7622  2.7675 -0.0341
 2184TIP3   OH228042   2.802   2.447   4.915  0.1797  0.0172  0.3518
 2184TIP3    H128043   2.792   2.512   4.985 -0.5332 -0.5968  0.8438
 2184TIP3    H228044   2.886   2.405   4.933  0.7375  0.9255 -0.0848
 2185TIP3   OH228045   5.867   2.612  15.154 -0.3630  0.0608  0.4725
 2185TIP3    H128046   5.898   2.531  15.193  2.3829  0.6506 -0.2780
 2185TIP3    H228047   5.774   2.598  15.139  0.1989 -3.3038 -0.5286
 2186TIP3   OH228048   2.616   6.358  12.576 -0.2501  0.0432  0.1570
 2186TIP3    H128049   2.610   6.265  12.556 -0.6066 -0.0806  0.7868
 2186TIP3    H228050   2.621   6.401  12.491  1.6204 -0.6351 -0.1260
 2187TIP3   OH228051   4.499   4.869  11.738 -0.0999 -0.4422  0.5631
 2187TIP3    H128052   4.510   4.875  11.643 -2.0184 -0.1496  0.3235
 2187TIP3    H228053   4.567   4.927  11.773 -0.0208  0.2529 -0.6735
 2188TIP3   OH228054   2.755   5.707  16.362 -0.0452 -0.3500 -0.0708
 2188TIP3    H128055   2.798   5.792  16.351 -2.8651  1.2301  0.0233
 2188TIP3    H228056   2.826   5.644  16.372  2.1546  2.0411  0.1464
 2189TIP3   OH228057   4.468   5.847  14.897  0.0073 -0.3022  0.1370
 2189TIP3    H128058   4.563   5.846  14.882  0.0406  2.6192 -0.5081
 2189TIP3    H228059   4.440   5.757  14.883  2.4363 -0.8958 -1.4889
 2190TIP3   OH228060   6.428   6.486   2.247 -0.0993 -0.1647 -0.0528
 2190TIP3    H128061   6.491   6.529   2.304 -0.6221 -0.1089  0.4999
 2190TIP3    H228062   6.481   6.438   2.184  0.4911 -0.1001  0.3879
 2191TIP3   OH228063   0.738   5.428   4.681  0.2675 -0.8885  0.3376
 2191TIP3    H128064   0.722   5.495   4.748 -0.5740  0.8808 -1.5461
 2191TIP3    H228065   0.660   5.372   4.686 -1.1903  0.8971 -0.9779
 2192TIP3   OH228066   2.898   3.828  14.133 -0.1102  0.2351 -0.4779
 2192TIP3    H128067   2.874   3.830  14.040  0.8553  0.9910 -0.7321
 2192TIP3    H228068   2.975   3.771  14.136 -0.9793 -0.9519  0.0948
 2193TIP3   OH228069   2.385   1.128  14.073 -0.2809 -0.5689  0.4315
 2193TIP3    H128070   2.455   1.072  14.039 -0.5580 -0.2252 -0.7577
 2193TIP3    H228071   2.349   1.171  13.995  0.3023  1.7203  1.3460
 2194TIP3   OH228072   4.104   2.739   0.811 -0.2355 -0.0157  0.3501
 2194TIP3    H128073   4.069   2.827   0.828 -0.5201 -0.0920  0.1724
 2194TIP3    H228074   4.095   2.728   0.716 -0.1857 -0.2319  0.3704
 2195TIP3   OH228075   0.507   0.050  16.026  0.3227 -0.7099  0.1690
 2195TIP3    H128076   0.559  -0.011  16.078  1.4505  0.6371  0.6699
 2195TIP3    H228077   0.424   0.057  16.074  0.5538 -1.0954  0.6285
 2196TIP3   OH228078   3.047   0.058   3.139 -0.1630  0.1246 -0.1707
 2196TIP3    H128079   3.073   0.110   3.063  0.6208 -1.2385 -0.8689
 2196TIP3    H228080   3.061  -0.033   3.112 -0.0232 -0.3975  1.5467
 2197TIP3   OH228081   2.996   3.762  15.920  0.3244 -0.1499  0.3505
 2197TIP3    H128082   2.943   3.740  15.844  1.3202  0.6589 -0.6149
 2197TIP3    H228083   2.962   3.848  15.948 -2.2177 -1.8005  2.8798
 2198TIP3   OH228084   1.849   1.886   3.738 -0.3044  0.0447  0.1263
 2198TIP3    H128085   1.923   1.868   3.680 -1.3204 -0.1082 -1.1856
 2198TIP3    H228086   1.875   1.850   3.823  0.7385 -0.8280 -0.5427
 2199TIP3   OH228087   0.427   5.405   2.642 -0.2623 -0.3515  0.4024
 2199TIP3    H128088   0.385   5.467   2.701  0.4917 -1.8461  2.6350
 2199TIP3    H228089   0.372   5.327   2.644  1.4986 -1.6328  1.8596
 2200TIP3   OH228090   4.076   3.432  11.595 -0.4602  0.0366 -0.0178
 2200TIP3    H128091   4.151   3.453  11.650 -1.0985 -0.2321  0.9849
 2200TIP3    H228092   4.056   3.513  11.549 -0.1915  0.3954  0.4877
 2201TIP3   OH228093   2.018   4.170  15.416  0.0681  0.4007 -0.0448
 2201TIP3    H128094   1.982   4.232  15.352  0.3557  0.7410  0.1190
 2201TIP3    H228095   2.029   4.222  15.496  0.9489  0.3125 -0.1030
 2202TIP3   OH228096   1.113   1.430  12.802 -0.2435  0.5116  0.2948
 2202TIP3    H128097   1.149   1.388  12.724 -1.5230  0.3432 -0.2277
 2202TIP3    H228098   1.125   1.524  12.787 -1.0289  0.5101 -0.4019
 2203TIP3   OH228099   5.376   1.625  15.758 -0.0478 -0.4990 -0.0381
 2203TIP3    H128100   5.290   1.584  15.746  0.6502 -1.9563 -0.3010
 2203TIP3    H228101   5.411   1.585  15.838  1.0697 -1.2199 -0.8483
 2204TIP3   OH228102   1.087   1.291  12.367  0.5220 -0.3618  0.2569
 2204TIP3    H128103   1.156   1.299  12.433  0.1021 -1.8936  0.9205
 2204TIP3    H228104   1.041   1.211  12.389 -0.4744 -0.2234 -1.1392
 2205TIP3   OH228105   2.916   5.566   6.068 -0.1890 -0.5306  0.0017
 2205TIP3    H128106   2.924   5.580   6.162  2.3814  0.6158 -0.3033
 2205TIP3    H228107   2.911   5.655   6.031 -0.9138 -0.9557 -0.9962
 2206TIP3   OH228108   6.051   3.780  15.776  0.4347 -0.3845 -0.3518
 2206TIP3    H128109   6.072   3.723  15.850  1.5317  0.2082 -0.1780
 2206TIP3    H228110   5.960   3.806  15.791  0.7560  0.0662  1.0512
 2207TIP3   OH228111   2.607   1.674  11.956  0.0882  0.1665 -0.1129
 2207TIP3    H128112   2.648   1.588  11.966  1.2766  0.3674 -2.5749
 2207TIP3    H228113   2.526   1.656  11.909  0.2696  0.3728 -0.5067
 2208TIP3   OH228114   5.303   6.868   3.034  0.5012 -0.9650 -0.2981
 2208TIP3    H128115   5.278   6.782   3.000  0.6012 -1.2353  0.3055
 2208TIP3    H228116   5.247   6.881   3.111 -1.2106  0.5410 -1.7010
 2209TIP3   OH228117   0.676   2.725   1.882 -0.0053  0.7823 -0.0025
 2209TIP3    H128118   0.631   2.681   1.955  0.4221 -0.6206 -0.5527
 2209TIP3    H228119   0.609   2.782   1.843 -0.8187  0.0226  0.2449
 2210TIP3   OH228120   5.515   6.852  13.102 -0.2065  0.1228 -0.3468
 2210TIP3    H128121   5.598   6.810  13.124  0.7585  0.6484 -2.6402
 2210TIP3    H228122   5.457   6.780  13.076  0.1407 -0.1023 -0.4988
 2211TIP3   OH228123   2.678   4.039   6.151 -1.0069  0.0728  0.0625
 2211TIP3    H128124   2.671   3.976   6.223 -1.7929  0.4010  0.2753
 2211TIP3    H228125   2.592   4.079   6.144 -0.7529  0.5322 -0.6260
 2212TIP3   OH228126   4.042   3.909   3.759  0.6286 -0.1535 -0.2745
 2212TIP3    H128127   3.976   3.946   3.818  0.9983  1.0651 -0.6070
 2212TIP3    H228128   4.033   3.814   3.770  1.5452  0.0108  2.7035
 2213TIP3   OH228129   4.155   5.219   3.794 -0.2466  0.1957 -0.3223
 2213TIP3    H128130   4.098   5.242   3.720 -1.8719 -3.4268 -0.3944
 2213TIP3    H228131   4.199   5.139   3.766  2.0877  0.8333  1.2454
 2214TIP3   OH228132   1.988   5.787   1.240  0.4930 -0.7712 -0.0575
 2214TIP3    H128133   1.979   5.696   1.268 -0.8178 -0.6281  0.0506
 2214TIP3    H228134   2.016   5.834   1.319  1.9598 -1.1831 -0.3054
 2215TIP3   OH228135   1.092   4.349   6.123  0.0308  0.2653 -0.3402
 2215TIP3    H128136   1.035   4.359   6.199  0.3788 -1.6597  0.2466
 2215TIP3    H228137   1.063   4.268   6.082 -0.1397  1.2617 -2.2902
 2216TIP3   OH228138   1.617   0.919   1.666 -0.7954 -0.5534 -0.0168
 2216TIP3    H128139   1.533   0.875   1.656 -2.0267  1.5447  0.4622
 2216TIP3    H228140   1.621   0.943   1.758 -0.0654  0.1146 -0.2062
 2217TIP3   OH228141   2.892   0.370  11.079 -0.1946 -0.3810  0.6510
 2217TIP3    H128142   2.902   0.278  11.053 -0.1359 -0.0323 -0.6148
 2217TIP3    H228143   2.831   0.407  11.015  1.3755  0.9629 -0.1627
 2218TIP3   OH228144   5.409   1.092   4.916 -0.2739 -0.4614  0.2944
 2218TIP3    H128145   5.409   1.187   4.908 -0.3453 -0.2517  2.2008
 2218TIP3    H228146   5.319   1.066   4.896 -0.0280 -0.2606 -1.1759
 2219TIP3   OH228147   5.398   1.747  16.543 -0.4736  0.5657 -0.3393
 2219TIP3    H128148   5.487   1.715  16.527 -0.0656  1.8459 -0.6944
 2219TIP3    H228149   5.378   1.717  16.632 -0.1899 -0.8179 -0.7128
 2220TIP3   OH228150   1.052   0.565  11.910  0.1233  0.0067 -0.6954
 2220TIP3    H128151   1.110   0.607  11.846 -0.8786 -0.6684 -2.1221
 2220TIP3    H228152   1.101   0.566  11.992  1.6002  0.6236 -1.5439
 2221TIP3   OH228153   0.212   0.703   2.369  0.1324 -0.5953 -0.2335
 2221TIP3    H128154   0.216   0.685   2.463 -2.2163 -0.5529 -0.0639
 2221TIP3    H228155   0.148   0.640   2.335  0.8233 -0.5076 -1.8008
 2222TIP3   OH228156   4.435   3.544  10.614 -0.4844  0.0510  0.2810
 2222TIP3    H128157   4.433   3.630  10.572 -1.5715  0.0766  0.3652
 2222TIP3    H228158   4.423   3.482  10.542  1.0755 -0.0919  0.1111
 2223TIP3   OH228159   6.551   5.472  16.938  0.4702  0.6179 -0.4807
 2223TIP3    H128160   6.593   5.542  16.889  3.7794 -2.2846 -2.2449
 2223TIP3    H228161   6.473   5.513  16.976  1.5832  4.8886 -2.1869
 2224TIP3   OH228162   5.985   5.154   4.214  0.9158  0.7831  0.2926
 2224TIP3    H128163   5.975   5.065   4.180 -2.2793  0.4067  1.8025
 2224TIP3    H228164   6.059   5.149   4.274  1.7746 -0.4323 -0.8155
 2225TIP3   OH228165   0.274   0.986  14.932  0.0076 -0.2112  0.0953
 2225TIP3    H128166   0.271   1.032  14.848  0.8214  0.5562  0.4665
 2225TIP3    H228167   0.206   1.028  14.985  0.0908 -0.0866  0.1057
 2226TIP3   OH228168   4.212   4.638  14.866  0.7417 -0.3280 -0.3882
 2226TIP3    H128169   4.279   4.676  14.921 -2.0868  2.1327  1.6712
 2226TIP3    H228170   4.196   4.551  14.902  2.7865 -1.0000 -1.0014
 2227TIP3   OH228171   4.991   3.422   2.173  0.3691 -0.0455  0.5915
 2227TIP3    H128172   4.957   3.430   2.084 -0.0038 -1.3278  0.6060
 2227TIP3    H228173   5.065   3.483   2.175  0.5193 -0.1463 -0.6638
 2228TIP3   OH228174   6.147   3.229   5.822 -0.0260  0.4616 -0.3729
 2228TIP3    H128175   6.237   3.245   5.851 -0.2993  0.3533  0.5654
 2228TIP3    H228176   6.136   3.134   5.829  0.1636  0.3169 -1.6695
 2229TIP3   OH228177   5.436   5.972  11.335  0.0281 -0.8952 -0.5079
 2229TIP3    H128178   5.355   6.020  11.317 -2.0856 -4.5159 -1.7433
 2229TIP3    H228179   5.496   6.001  11.266 -0.5129  1.0447 -0.2442
 2230TIP3   OH228180   4.093   5.052   5.658  0.4983  0.0800 -0.1224
 2230TIP3    H128181   4.173   5.094   5.691  0.8545 -1.4890  1.1741
 2230TIP3    H228182   4.034   5.052   5.733 -0.2973  0.1588 -0.7338
 2231TIP3   OH228183   5.129   5.761   3.058 -0.1402 -0.5535 -0.0075
 2231TIP3    H128184   5.136   5.716   2.974 -0.6318  0.7877 -0.7972
 2231TIP3    H228185   5.039   5.746   3.087 -0.2156 -0.3369 -0.1263
 2232TIP3   OH228186   6.329   4.632  15.539  0.1098 -0.2762  0.2492
 2232TIP3    H128187   6.290   4.719  15.547  1.7465  0.5413 -0.2583
 2232TIP3    H228188   6.258   4.572  15.563 -1.1549  1.1633  0.2868
 2233TIP3   OH228189   6.730   0.121  13.682  0.0321 -0.4755 -0.4494
 2233TIP3    H128190   6.780   0.068  13.745  3.9995  3.8483  0.5935
 2233TIP3    H228191   6.658   0.158  13.733  0.1099 -1.0286  0.0755
 2234TIP3   OH228192   0.694   4.448  12.374 -0.1386  0.2359  0.2559
 2234TIP3    H128193   0.619   4.481  12.325  0.1898 -0.3605 -0.6753
 2234TIP3    H228194   0.733   4.382  12.316  1.3596  0.8340  0.5397
 2235TIP3   OH228195   4.756   4.760   0.599  0.2822 -0.6589 -0.1330
 2235TIP3    H128196   4.748   4.713   0.516  1.2903  0.2295 -0.7601
 2235TIP3    H228197   4.849   4.753   0.622  0.1692 -0.1965  0.4982
 2236TIP3   OH228198   0.634   1.613  15.962 -0.1625  0.6395  0.2648
 2236TIP3    H128199   0.715   1.642  15.921  0.7732  0.2735  1.8011
 2236TIP3    H228200   0.575   1.688  15.955  1.6336  2.4076  2.6492
 2237TIP3   OH228201   1.981   4.776  11.217  0.2312 -0.5836  0.3184
 2237TIP3    H128202   2.077   4.784  11.224  0.4122  1.2261 -2.5698
 2237TIP3    H228203   1.952   4.863  11.190 -2.1599 -1.3065  0.3546
 2238TIP3   OH228204   4.865   5.682   0.309  0.7464 -0.6896 -0.2520
 2238TIP3    H128205   4.889   5.600   0.353 -2.4154 -1.0600  1.1044
 2238TIP3    H228206   4.858   5.658   0.217  0.8043 -1.7249 -0.0093
 2239TIP3   OH228207   4.036   4.776  12.640  0.1715  0.2452  0.4075
 2239TIP3    H128208   4.097   4.715  12.682  0.0961  0.8003  1.3494
 2239TIP3    H228209   4.037   4.853  12.696 -1.5639  0.1903  0.5715
 2240TIP3   OH228210   3.156   2.731   5.214  0.1429  0.3486 -0.0004
 2240TIP3    H128211   3.239   2.684   5.221 -0.6706 -1.2813 -0.7850
 2240TIP3    H228212   3.134   2.727   5.121 -1.1279  0.1616  0.2879
 2241TIP3   OH228213   6.306   4.181  15.399  0.4214 -0.4388  0.0667
 2241TIP3    H128214   6.392   4.189  15.358 -0.0678 -0.0778 -0.9213
 2241TIP3    H228215   6.319   4.214  15.488  1.5124 -1.2722  0.2319
 2242TIP3   OH228216   6.253   6.371  13.008 -0.0451 -0.0756 -0.3555
 2242TIP3    H128217   6.223   6.408  12.925  0.2841  0.8206 -0.0878
 2242TIP3    H228218   6.177   6.324  13.043 -1.3462  2.4826  0.5090
 2243TIP3   OH228219   2.145   5.029   3.454 -0.3239 -0.5275  0.3764
 2243TIP3    H128220   2.223   4.976   3.472  0.6026  0.0345 -1.7609
 2243TIP3    H228221   2.174   5.119   3.463 -1.2164 -0.3178  1.3295
 2244TIP3   OH228222   3.195   0.776  15.525 -0.2270  0.4292  0.4546
 2244TIP3    H128223   3.230   0.761  15.612  0.3662  0.1002  0.1666
 2244TIP3    H228224   3.216   0.867  15.505  0.4383  0.2492  0.3050
 2245TIP3   OH228225   0.122   3.539  10.280  0.1851 -0.0692 -0.0996
 2245TIP3    H128226   0.213   3.547  10.310  0.2537 -0.3495 -0.2379
 2245TIP3    H228227   0.071   3.585  10.348  0.5195  0.9668 -0.5289
 2246TIP3   OH228228   6.772   0.366   2.844  0.5075 -0.2576 -0.3106
 2246TIP3    H128229   6.821   0.289   2.816  2.0452  1.4760 -2.9121
 2246TIP3    H228230   6.831   0.412   2.904  0.2700 -0.2989 -0.0435
 2247TIP3   OH228231   0.087   4.012   4.851  0.0440 -0.2676 -0.6770
 2247TIP3    H128232   0.033   3.975   4.920  0.5735  0.4540  0.1600
 2247TIP3    H228233   0.177   3.988   4.875  0.2236 -0.1323 -1.1916
 2248TIP3   OH228234   1.734   1.814   2.817 -0.0538 -0.5466  0.4279
 2248TIP3    H128235   1.736   1.759   2.896  1.7998  1.8394  2.2081
 2248TIP3    H228236   1.643   1.843   2.811 -0.5623 -1.9681  0.7433
 2249TIP3   OH228237   3.061   6.229   5.336  0.4179 -0.7829 -0.4742
 2249TIP3    H128238   2.977   6.274   5.337  1.1547  0.6468  0.0778
 2249TIP3    H228239   3.056   6.171   5.260 -1.4001 -1.4316  0.1031
 2250TIP3   OH228240   0.516   0.880  13.012  0.0662 -0.1505  0.1217
 2250TIP3    H128241   0.570   0.910  13.085  1.0124  0.2413 -0.7127
 2250TIP3    H228242   0.486   0.961  12.970  0.5269 -0.3672 -0.6319
 2251TIP3   OH228243   5.703   4.383   6.437  0.0718  0.0045  0.6198
 2251TIP3    H128244   5.732   4.316   6.376  2.6714 -0.1036  1.8681
 2251TIP3    H228245   5.718   4.346   6.523  1.1035  1.9666  1.3455
 2252TIP3   OH228246   1.835   0.421   6.180  0.4112 -0.5002  0.3759
 2252TIP3    H128247   1.855   0.511   6.204 -0.8310  0.4073 -1.7762
 2252TIP3    H228248   1.752   0.402   6.223 -1.2160  0.7223 -2.0276
 2253TIP3   OH228249   1.891   6.614  12.443  0.6111  0.2473  0.9771
 2253TIP3    H128250   1.820   6.553  12.463  0.8135 -0.2317  0.2420
 2253TIP3    H228251   1.967   6.558  12.426  1.0068  0.7345  1.1101
 2254TIP3   OH228252   6.259   4.043   1.013 -0.1621 -0.0029  0.0814
 2254TIP3    H128253   6.183   4.098   1.032 -1.2153 -0.8857 -1.3502
 2254TIP3    H228254   6.316   4.099   0.959 -0.4254  0.2366  0.0501
 2255TIP3   OH228255   3.353   1.507   4.781 -0.1956  0.8763 -0.5236
 2255TIP3    H128256   3.349   1.600   4.806  0.7300  0.8184 -0.1440
 2255TIP3    H228257   3.358   1.460   4.864  2.3094  0.6495 -0.7288
 2256TIP3   OH228258   1.427   4.153  13.120 -0.7933  0.2575  0.3907
 2256TIP3    H128259   1.413   4.071  13.166 -0.1174  0.4900  1.0307
 2256TIP3    H228260   1.342   4.174  13.081 -1.0461 -0.5831  0.4790
 2257TIP3   OH228261   0.022   4.052  14.071 -0.0028  0.1406 -0.4088
 2257TIP3    H128262  -0.036   4.078  14.143  0.7857 -0.2990  0.3951
 2257TIP3    H228263   0.083   4.125  14.062 -0.4122  0.4208 -0.9817
 2258TIP3   OH228264   5.614   4.255   5.000  0.2138 -0.9918  0.4253
 2258TIP3    H128265   5.527   4.233   5.034  0.2460 -2.3435 -0.3210
 2258TIP3    H228266   5.667   4.272   5.078 -1.7453  4.5836  0.9825
 2259TIP3   OH228267   4.936   6.697   5.304 -0.2749 -0.4886  0.0466
 2259TIP3    H128268   4.943   6.776   5.249  2.8016  2.7670  4.4303
 2259TIP3    H228269   5.012   6.644   5.279  0.3349  0.2950  0.1906
 2260TIP3   OH228270   3.719   0.221   0.013 -0.4869  0.2178  0.4518
 2260TIP3    H128271   3.730   0.126   0.023 -2.1863  0.1441  2.0967
 2260TIP3    H228272   3.691   0.232  -0.077  0.0325 -0.7980  0.1382
 2261TIP3   OH228273   5.703   2.433  11.789  0.0217  0.1603 -0.4886
 2261TIP3    H128274   5.637   2.498  11.813  0.8625  1.4347 -1.4830
 2261TIP3    H228275   5.654   2.366  11.741 -0.6175  0.9296 -0.9448
 2262TIP3   OH228276   4.759   4.408   4.362 -0.6064  0.2667 -0.3699
 2262TIP3    H128277   4.817   4.333   4.352 -1.0823 -0.0782 -0.6017
 2262TIP3    H228278   4.815   4.478   4.395 -0.1869 -0.2340 -0.0046
 2263TIP3   OH228279   0.712   6.108  13.720 -0.2060 -0.5175 -0.2912
 2263TIP3    H128280   0.727   6.023  13.678  0.1382  0.3833 -2.1008
 2263TIP3    H228281   0.756   6.171  13.663 -1.1189  0.9679  0.5724
 2264TIP3   OH228282   3.103   4.523  11.055 -0.3228 -0.2158 -0.1916
 2264TIP3    H128283   3.184   4.471  11.055  0.2600  0.6695  1.0194
 2264TIP3    H228284   3.132   4.614  11.055 -1.3448  0.1375 -0.9925
 2265TIP3   OH228285   2.977   2.282  16.870 -0.2169 -0.2885  0.6316
 2265TIP3    H128286   2.940   2.367  16.891  1.8635  0.2900  2.3150
 2265TIP3    H228287   3.038   2.299  16.799 -0.3227 -0.5096  0.4861
 2266TIP3   OH228288   5.966   0.724   1.648  0.1361  0.4888  0.7048
 2266TIP3    H128289   5.992   0.649   1.702  1.2214  0.3580  0.0385
 2266TIP3    H228290   6.048   0.754   1.610 -0.5888  0.6563 -0.7676
 2267TIP3   OH228291   6.810   3.347  14.960 -0.0171  0.2196 -0.2326
 2267TIP3    H128292   6.797   3.345  15.055  1.5214 -1.3359 -0.0020
 2267TIP3    H228293   6.862   3.426  14.945  0.8320 -0.2020  0.4009
 2268TIP3   OH228294   2.458   4.777   4.932 -0.2063 -0.3366 -0.2005
 2268TIP3    H128295   2.372   4.780   4.974  0.6915 -0.2471  1.7340
 2268TIP3    H228296   2.500   4.698   4.967  0.8571  0.1244 -0.3862
 2269TIP3   OH228297   6.145   3.036  13.509  0.0940  0.0614  0.0124
 2269TIP3    H128298   6.069   3.060  13.456 -0.3466 -3.9270 -1.5177
 2269TIP3    H228299   6.112   3.030  13.598 -0.9975  0.0065 -0.3851
 2270TIP3   OH228300   0.337   3.545  12.519  0.3283  0.3916 -0.0732
 2270TIP3    H128301   0.246   3.573  12.518  0.5778  1.2566  0.6625
 2270TIP3    H228302   0.332   3.450  12.509 -0.6288  0.4712 -0.4666
 2271TIP3   OH228303   4.819   0.546   5.840 -0.6851 -0.3238 -0.2463
 2271TIP3    H128304   4.784   0.474   5.893  0.8244 -0.6545  0.3337
 2271TIP3    H228305   4.837   0.615   5.903 -1.9781  0.5519 -0.7816
 2272TIP3   OH228306   3.390   0.983   0.898 -0.1264 -0.3587 -0.0834
 2272TIP3    H128307   3.463   1.044   0.913 -0.6006  0.2377 -0.1514
 2272TIP3    H228308   3.320   1.016   0.955  0.1530 -1.8423  1.1767
 2273TIP3   OH228309   4.562   4.944   3.550 -0.0262 -0.3684 -0.2123
 2273TIP3    H128310   4.596   4.951   3.640 -0.3679  1.0765 -0.1696
 2273TIP3    H228311   4.510   5.023   3.538 -0.2520 -0.7032 -1.5858
 2274TIP3   OH228312   3.453   3.872  13.736  0.4063 -0.2699 -0.2896
 2274TIP3    H128313   3.507   3.882  13.815  0.2921 -1.1729 -0.0862
 2274TIP3    H228314   3.503   3.812  13.680 -0.2333 -0.8536 -0.2376
 2275TIP3   OH228315   5.561   0.952   3.441 -0.2500 -0.2394  0.4671
 2275TIP3    H128316   5.548   0.857   3.443 -1.2016 -0.1260  3.0246
 2275TIP3    H228317   5.644   0.966   3.487  0.9974  0.1003 -1.7540
 2276TIP3   OH228318   4.860   1.334   1.208  0.0365 -0.4732 -0.0405
 2276TIP3    H128319   4.839   1.298   1.295 -0.7026  0.3938  0.1550
 2276TIP3    H228320   4.803   1.410   1.199  1.2565  0.4001 -0.6353
 2277TIP3   OH228321   6.700   1.597   2.546 -0.3230  0.5929 -0.1251
 2277TIP3    H128322   6.784   1.641   2.556 -0.1394  0.5295 -1.2021
 2277TIP3    H228323   6.652   1.652   2.484 -1.2576  0.8627  0.8113
 2278TIP3   OH228324   4.522   2.818  16.784  0.2733  0.2697 -0.0215
 2278TIP3    H128325   4.600   2.784  16.827 -0.1224 -0.8014 -0.1281
 2278TIP3    H228326   4.488   2.885  16.844  0.1458 -0.6762  0.9951
 2279TIP3   OH228327   0.919   6.667  16.001 -0.2293 -0.3639 -0.1842
 2279TIP3    H128328   0.917   6.735  16.068  2.0367 -0.8344  0.4208
 2279TIP3    H228329   0.828   6.661  15.971 -0.3802  3.8378 -1.2357
 2280TIP3   OH228330   2.951   3.940  12.358 -0.4356 -0.0657 -0.1707
 2280TIP3    H128331   2.963   3.987  12.440 -0.0517 -1.3653  0.5443
 2280TIP3    H228332   2.929   4.008  12.294 -0.6708  0.9745  0.9825
 2281TIP3   OH228333   2.509   0.408  12.298  0.3195  0.0557 -0.0547
 2281TIP3    H128334   2.492   0.320  12.331  0.7240 -0.3943 -0.9915
 2281TIP3    H228335   2.472   0.408  12.210 -2.3651  1.7937  0.9659
 2282TIP3   OH228336   2.355   2.594   2.846 -0.2646  0.4107 -0.5250
 2282TIP3    H128337   2.388   2.585   2.756 -2.2522  0.7461 -1.3377
 2282TIP3    H228338   2.382   2.682   2.873 -0.5826  0.7197 -1.2035
 2283TIP3   OH228339   4.503   2.443  16.077  0.1093 -0.0552  1.1389
 2283TIP3    H128340   4.487   2.390  15.998  0.8962  0.3542  0.6905
 2283TIP3    H228341   4.582   2.405  16.115  0.6951  0.8005  0.8010
 2284TIP3   OH228342   3.649   0.450   1.916  0.5124  0.6297  0.1719
 2284TIP3    H128343   3.588   0.412   1.852 -0.2781 -0.2766  1.4000
 2284TIP3    H228344   3.735   0.417   1.890  0.1984  0.2589 -0.4098
 2285TIP3   OH228345   4.346   4.665  14.133  0.3129 -0.6603 -0.3205
 2285TIP3    H128346   4.278   4.717  14.176 -0.5254 -2.2617  0.3944
 2285TIP3    H228347   4.411   4.729  14.106 -1.6359  0.9964 -1.3958
 2286TIP3   OH228348   5.908   3.632  14.905 -0.3847  0.6225 -0.3344
 2286TIP3    H128349   5.933   3.708  14.852 -0.9696  1.0011 -0.0845
 2286TIP3    H228350   5.815   3.646  14.924 -0.7612 -0.6555 -1.1051
 2287TIP3   OH228351   1.924   2.073  16.807 -0.0708 -0.2741 -0.0790
 2287TIP3    H128352   1.927   1.987  16.847  0.3000 -0.5447 -0.6715
 2287TIP3    H228353   1.953   2.133  16.876  0.3087 -0.6968  0.1337
 2288TIP3   OH228354   4.730   3.737   1.617 -0.7036  0.0809  0.0472
 2288TIP3    H128355   4.689   3.781   1.692  0.4786  0.2437  0.6136
 2288TIP3    H228356   4.725   3.801   1.546  0.8107  1.0964  0.8054
 2289TIP3   OH228357   3.010   2.273   4.921  0.1777 -0.5477  0.1342
 2289TIP3    H128358   2.974   2.249   4.836  0.7205 -1.9203  0.2731
 2289TIP3    H228359   3.102   2.247   4.917  0.1507 -0.8612  1.2273
 2290TIP3   OH228360   2.242   3.792  14.398  0.2791  0.2952 -0.6649
 2290TIP3    H128361   2.303   3.852  14.356  1.3420 -0.5579 -0.3945
 2290TIP3    H228362   2.249   3.711  14.347  2.6931 -1.2748  1.8360
 2291TIP3   OH228363   0.345   5.777  16.049 -0.2879 -0.0530  0.6965
 2291TIP3    H128364   0.431   5.766  16.009 -0.5485 -0.2563  0.1826
 2291TIP3    H228365   0.312   5.860  16.014 -1.1012 -0.8962 -0.6400
 2292TIP3   OH228366   3.404   3.612  14.345  0.0789 -0.0334  0.5395
 2292TIP3    H128367   3.489   3.654  14.355 -0.3890  1.5334 -1.5539
 2292TIP3    H228368   3.342   3.672  14.385 -0.2507 -0.2866  0.4182
 2293TIP3   OH228369   6.340   5.262  11.309  0.1916  0.1682  0.2994
 2293TIP3    H128370   6.416   5.312  11.340 -0.0893  0.9438 -0.2403
 2293TIP3    H228371   6.276   5.271  11.380 -0.3050  1.6169 -0.2890
 2294TIP3   OH228372   0.390   4.395   4.462 -0.0845  0.1474  0.0700
 2294TIP3    H128373   0.319   4.435   4.511  0.5631  2.2089 -0.5828
 2294TIP3    H228374   0.376   4.423   4.372  0.8220 -0.5028 -0.2874
 2295TIP3   OH228375   4.639   6.765   1.610 -0.2633  0.4219 -0.2372
 2295TIP3    H128376   4.635   6.670   1.624 -1.8327  0.1390 -2.1425
 2295TIP3    H228377   4.643   6.775   1.515  1.0807  2.2723 -0.0430
 2296TIP3   OH228378   1.676   0.682   2.337  0.2197  0.0188 -0.2477
 2296TIP3    H128379   1.608   0.668   2.403  0.7125  0.9186  0.4617
 2296TIP3    H228380   1.653   0.621   2.267  0.0450 -1.4265  1.0158
 2297TIP3   OH228381   6.782   5.087  11.547  0.0333  0.1658 -0.0888
 2297TIP3    H128382   6.731   5.006  11.557  1.2497 -0.8409 -1.4495
 2297TIP3    H228383   6.841   5.088  11.623  1.2524 -1.2441 -0.9434
 2298TIP3   OH228384   6.270   6.752   1.567 -0.0504 -0.3470 -0.2097
 2298TIP3    H128385   6.235   6.771   1.654 -0.0485 -1.2751  0.0027
 2298TIP3    H228386   6.209   6.688   1.530 -0.2064  0.2526 -1.0072
 2299TIP3   OH228387   2.311   4.673  12.104  0.0080 -0.6888 -0.0644
 2299TIP3    H128388   2.322   4.743  12.169 -0.2315  0.4315 -1.1915
 2299TIP3    H228389   2.397   4.633  12.097 -0.1990 -1.5552  1.7029
 2300TIP3   OH228390   6.506   6.534  14.443  0.1362  0.1893  0.1777
 2300TIP3    H128391   6.418   6.534  14.481  0.3180 -2.4422  0.8071
 2300TIP3    H228392   6.491   6.527  14.349 -0.4435 -2.6179  0.3843
 2301TIP3   OH228393   1.605   4.550   4.844  0.0481  0.9925 -0.5352
 2301TIP3    H128394   1.656   4.615   4.796  1.0646  0.3726 -0.3272
 2301TIP3    H228395   1.613   4.576   4.936  5.4964 -2.4447  0.4731
 2302TIP3   OH228396   2.501   3.833  11.363  0.7961  0.0393  0.3618
 2302TIP3    H128397   2.415   3.846  11.402  1.6344  1.0022  1.9411
 2302TIP3    H228398   2.494   3.874  11.276  0.0387  1.2241  0.9586
 2303TIP3   OH228399   5.004   0.944   5.404 -0.5097 -0.2285 -0.4056
 2303TIP3    H128400   4.954   0.929   5.485 -0.1788 -1.1408 -0.3550
 2303TIP3    H228401   4.939   0.948   5.335 -0.6440 -1.8665 -0.4001
 2304TIP3   OH228402   6.839   2.849   0.704 -0.3244 -0.4713  0.7811
 2304TIP3    H128403   6.917   2.794   0.702 -1.7841 -2.6484 -0.8544
 2304TIP3    H228404   6.770   2.795   0.665 -2.2610  1.9769  0.5562
 2305TIP3   OH228405   6.148   5.914  15.302  0.0545  0.4259  0.0257
 2305TIP3    H128406   6.240   5.904  15.324  0.4030  1.8749 -0.6518
 2305TIP3    H228407   6.128   5.837  15.248  0.4762 -0.6057  1.3025
 2306TIP3   OH228408   6.200   5.381  14.428  0.0474  0.4408  0.2302
 2306TIP3    H128409   6.235   5.350  14.512  0.6799  1.4226  0.3508
 2306TIP3    H228410   6.257   5.341  14.362  1.3551  1.8859  0.4187
 2307TIP3   OH228411   4.138   2.589  12.866  0.2391  0.3924 -0.0756
 2307TIP3    H128412   4.101   2.640  12.793 -0.9616 -0.2030  0.0954
 2307TIP3    H228413   4.133   2.649  12.941 -1.0433  0.0985  0.0948
 2308TIP3   OH228414   2.654   0.410  11.522  0.0180  0.5390  0.1894
 2308TIP3    H128415   2.615   0.496  11.509  0.6091  0.4025 -4.0103
 2308TIP3    H228416   2.748   0.425  11.520  0.1699 -0.2366 -2.4433
 2309TIP3   OH228417   3.902   3.841  16.641 -0.1183  0.3545 -0.0889
 2309TIP3    H128418   3.917   3.854  16.548  2.4344  0.2922  0.2558
 2309TIP3    H228419   3.891   3.929  16.676  1.7063  0.6026 -0.0667
 2310TIP3   OH228420   1.979   1.558   3.373  0.3578 -0.4514  0.0753
 2310TIP3    H128421   2.043   1.489   3.359  3.4894  2.3776 -0.9953
 2310TIP3    H228422   1.971   1.602   3.288 -1.2556  0.7254  0.7660
 2311TIP3   OH228423   0.501   2.872   1.713  0.2604 -0.3558 -0.3318
 2311TIP3    H128424   0.544   2.902   1.633  2.5288 -1.3041  0.4544
 2311TIP3    H228425   0.452   2.948   1.744  0.2644  0.3624 -1.9871
 2312TIP3   OH228426   1.513   4.383   6.129 -0.0239 -0.5696  0.4466
 2312TIP3    H128427   1.495   4.436   6.051  1.0667  0.8228  1.1139
 2312TIP3    H228428   1.453   4.308   6.121 -2.1708  1.1175 -0.1438
 2313TIP3   OH228429   2.649   5.339  15.009 -0.3665 -0.1912 -0.6337
 2313TIP3    H128430   2.624   5.300  14.925  1.4914 -2.8951 -0.0984
 2313TIP3    H228431   2.687   5.423  14.987 -1.2560 -0.2021 -2.3348
 2314TIP3   OH228432   4.015   6.833   1.948 -0.4225 -0.6942  0.3449
 2314TIP3    H128433   4.009   6.765   2.016 -1.3556  0.6682  1.6749
 2314TIP3    H228434   4.045   6.910   1.995  1.6003 -0.3827 -1.3259
 2315TIP3   OH228435   3.390   2.735   1.081 -0.4196  0.3228 -0.5600
 2315TIP3    H128436   3.364   2.797   1.148 -0.1990  0.3729 -0.5195
 2315TIP3    H228437   3.337   2.757   1.005 -0.7342  0.2081 -0.3746
 2316TIP3   OH228438   4.855   1.650   0.376  0.2471  0.3259 -0.0967
 2316TIP3    H128439   4.909   1.717   0.334 -0.0161  1.5736  1.4479
 2316TIP3    H228440   4.883   1.568   0.336  1.9699  1.1426 -0.6754
 2317TIP3   OH228441   4.514   3.515  11.879 -0.6198  0.2729  0.2656
 2317TIP3    H128442   4.471   3.594  11.912  1.1474  0.4371  2.4228
 2317TIP3    H228443   4.548   3.472  11.957  1.0103 -1.0790 -1.1201
 2318TIP3   OH228444   1.422   3.730  14.620 -0.2147 -0.2040  1.0458
 2318TIP3    H128445   1.403   3.757  14.710 -1.8275  1.6104  0.2439
 2318TIP3    H228446   1.366   3.786  14.566  1.5207 -0.4339 -1.1602
 2319TIP3   OH228447   4.835   6.846  14.638 -0.0039 -0.0196 -0.4574
 2319TIP3    H128448   4.740   6.857  14.639  0.2905  3.7375  1.0833
 2319TIP3    H228449   4.862   6.877  14.552 -0.0812  0.0728 -0.4480
 2320TIP3   OH228450   2.583   0.632   5.252  0.3190  0.7761  0.0837
 2320TIP3    H128451   2.522   0.664   5.185  0.9959  3.1995  0.5246
 2320TIP3    H228452   2.631   0.562   5.208 -1.8598 -0.3146 -0.6753
 2321TIP3   OH228453   0.567   3.167   5.684 -0.0302  0.0906 -0.5155
 2321TIP3    H128454   0.606   3.099   5.630  1.5482  0.7747 -0.2765
 2321TIP3    H228455   0.569   3.131   5.773  0.1904  0.1901 -0.4811
 2322TIP3   OH228456   4.995   0.005  10.792  0.2475 -0.7883 -0.3581
 2322TIP3    H128457   4.975   0.006  10.699 -1.5676  1.1079 -0.0346
 2322TIP3    H228458   4.949  -0.072  10.826  3.1553 -3.1507 -1.3237
 2323TIP3   OH228459   1.568   5.453   5.400 -0.2904  0.4702 -0.8482
 2323TIP3    H128460   1.635   5.391   5.369 -0.0479 -0.3911  1.2127
 2323TIP3    H228461   1.488   5.425   5.356 -0.3377 -1.8448  0.5167
 2324TIP3   OH228462   1.103   0.803  14.570  0.1329 -0.4162 -0.0447
 2324TIP3    H128463   1.138   0.761  14.649 -1.3278  0.4011  1.0835
 2324TIP3    H228464   1.038   0.865  14.602  2.0027  2.6458 -1.6399
 2325TIP3   OH228465   0.049   3.978   5.263  1.1500 -0.4221 -0.4841
 2325TIP3    H128466   0.143   3.983   5.282  0.8706 -0.7946  1.1368
 2325TIP3    H228467   0.007   3.993   5.347 -0.2767  0.4899 -1.3338
 2326TIP3   OH228468   4.669   2.512  11.882  0.3278 -0.5641 -0.6359
 2326TIP3    H128469   4.599   2.460  11.842  1.2221 -1.5836 -0.9271
 2326TIP3    H228470   4.647   2.602  11.859 -0.5448 -0.9119 -1.2621
 2327TIP3   OH228471   4.589   6.107   4.740  0.3188  0.0016 -0.7233
 2327TIP3    H128472   4.531   6.031   4.735 -1.1633  1.0876 -0.7671
 2327TIP3    H228473   4.602   6.133   4.649  2.8749 -1.6202 -0.9114
 2328TIP3   OH228474   6.567   5.094   1.563  0.3068 -0.3631  0.2417
 2328TIP3    H128475   6.523   5.021   1.608 -1.5343 -0.8109 -2.1017
 2328TIP3    H228476   6.517   5.172   1.589  0.5051 -0.3410  0.5531
 2329TIP3   OH228477   5.035   2.199   3.674 -0.1046 -0.3424 -0.3381
 2329TIP3    H128478   4.950   2.156   3.679 -0.5144  0.4184 -0.6568
 2329TIP3    H228479   5.097   2.127   3.663 -0.7367 -0.8802 -0.4408
 2330TIP3   OH228480   5.729   1.629   2.397  0.0591  0.2342  0.2105
 2330TIP3    H128481   5.742   1.722   2.417 -0.0612  0.6138 -1.3874
 2330TIP3    H228482   5.634   1.619   2.389  0.1234  1.0882 -4.2067
 2331TIP3   OH228483   6.292   6.868  13.772 -0.5661 -0.3420 -0.1450
 2331TIP3    H128484   6.267   6.937  13.710 -0.1970 -0.1429 -0.0762
 2331TIP3    H228485   6.237   6.883  13.848 -1.3626 -0.8770 -0.6001
 2332TIP3   OH228486   4.630   2.297   2.033 -0.3961 -0.1092 -0.1776
 2332TIP3    H128487   4.713   2.259   2.004 -0.5448 -0.0176 -0.7291
 2332TIP3    H228488   4.577   2.221   2.059 -0.4937 -0.2450 -0.7581
 2333TIP3   OH228489   5.337   0.801  12.948  0.1628  0.5963  0.1843
 2333TIP3    H128490   5.300   0.800  12.860 -0.9981  1.8237  0.6171
 2333TIP3    H228491   5.262   0.785  13.006  0.5867  1.4610  1.0081
 2334TIP3   OH228492   1.929   6.649   4.625  0.0588  0.0416 -0.1749
 2334TIP3    H128493   1.868   6.707   4.579  0.7772 -0.4180 -1.7875
 2334TIP3    H228494   1.973   6.706   4.688 -1.7733  0.4525  0.8230
 2335TIP3   OH228495   1.792   2.185  12.240 -0.9007 -0.2561 -0.3523
 2335TIP3    H128496   1.727   2.202  12.308  0.5011  1.5165  0.6278
 2335TIP3    H228497   1.829   2.099  12.262 -0.7811  0.0982  0.8635
 2336TIP3   OH228498   3.333   1.734   1.901  0.1826  0.1490  0.0013
 2336TIP3    H128499   3.292   1.748   1.986  1.6361  1.0615  0.5797
 2336TIP3    H228500   3.426   1.726   1.919  0.5304  0.3869 -1.5011
 2337TIP3   OH228501   4.912   1.770  13.305 -0.0862  0.2456  0.2606
 2337TIP3    H128502   4.926   1.785  13.211 -2.4243 -0.3084 -0.2387
 2337TIP3    H228503   4.943   1.681  13.320  2.0504  0.9746  0.4756
 2338TIP3   OH228504   3.606   2.615  14.411  0.1702  0.4408 -0.5125
 2338TIP3    H128505   3.681   2.634  14.468  1.4373 -0.9084 -1.6565
 2338TIP3    H228506   3.596   2.693  14.357  1.8148  0.0288 -1.4541
 2339TIP3   OH228507   4.278   6.667  16.021  0.5683  0.4027  0.1329
 2339TIP3    H128508   4.285   6.762  16.025 -0.7217  0.5752 -0.9271
 2339TIP3    H228509   4.320   6.643  15.939 -1.4090  0.3698 -0.9235
 2340TIP3   OH228510   2.440   5.501  16.751 -0.3936  0.5166 -0.3162
 2340TIP3    H128511   2.374   5.437  16.780  0.1160  0.5681  1.0513
 2340TIP3    H228512   2.440   5.494  16.656 -2.1385  0.2887 -0.3285
 2341TIP3   OH228513   0.017   0.316  12.272  0.1352  0.1389  0.5534
 2341TIP3    H128514  -0.016   0.230  12.297 -0.2843  0.5920  1.6333
 2341TIP3    H228515   0.017   0.367  12.354  1.1544  0.9149  0.0996
 2342TIP3   OH228516   3.504   3.084   1.457  0.4013  0.0339  0.4303
 2342TIP3    H128517   3.583   3.078   1.510  1.4664 -1.7274 -1.2098
 2342TIP3    H228518   3.532   3.134   1.380 -0.3320  0.1459  0.2357
 2343TIP3   OH228519   3.821   1.026  10.431 -0.0467  0.0682 -0.5802
 2343TIP3    H128520   3.766   1.034  10.353  0.6048 -1.6385 -1.2594
 2343TIP3    H228521   3.909   1.013  10.397  0.3084 -0.2960  0.4523
 2344TIP3   OH228522   6.652   6.015  15.079 -0.0278  0.1744  0.3792
 2344TIP3    H128523   6.614   6.057  15.156 -0.1491 -1.5217  1.2932
 2344TIP3    H228524   6.746   6.036  15.084  0.0170 -0.1657  1.1816
 2345TIP3   OH228525   1.580   0.559  11.420 -0.6069 -0.0623 -0.2030
 2345TIP3    H128526   1.569   0.464  11.425 -0.7001 -0.1715 -2.0636
 2345TIP3    H228527   1.491   0.593  11.415 -0.6285  0.2358  1.5319
 2346TIP3   OH228528   0.645   5.815   5.618  0.2650 -0.0160 -0.3837
 2346TIP3    H128529   0.657   5.831   5.524 -1.1669  2.3581 -0.2268
 2346TIP3    H228530   0.633   5.902   5.656  0.2697 -0.9627  1.9495
 2347TIP3   OH228531   1.497   6.316  15.618  0.4743 -0.0585 -0.1017
 2347TIP3    H128532   1.532   6.352  15.536 -0.3802  1.0446  0.0060
 2347TIP3    H228533   1.412   6.357  15.628  0.6652  0.0053  1.4715
 2348TIP3   OH228534   0.141   0.756  13.824 -0.1038 -0.0249  0.7494
 2348TIP3    H128535   0.173   0.794  13.742 -0.4968 -0.6397  0.3042
 2348TIP3    H228536   0.131   0.663  13.805 -2.2634  0.1414  0.8197
 2349TIP3   OH228537   3.042   5.364  10.476 -0.3313  0.4665 -0.2894
 2349TIP3    H128538   3.073   5.454  10.472 -0.2493  0.4637  0.2037
 2349TIP3    H228539   2.960   5.364  10.426 -0.2685  0.7895 -0.3902
 2350TIP3   OH228540   3.434   1.260  13.317  0.3460 -0.2679 -0.2314
 2350TIP3    H128541   3.496   1.260  13.391 -0.1310  0.4148  0.1745
 2350TIP3    H228542   3.359   1.311  13.348  0.5105  0.8046 -1.4978
 2351TIP3   OH228543   2.614   0.064   6.160 -0.1546  0.2142 -0.3921
 2351TIP3    H128544   2.610   0.157   6.182  1.3142  0.3737 -0.6790
 2351TIP3    H228545   2.654   0.023   6.237  1.4138  0.2030 -1.1747
 2352TIP3   OH228546   6.588   4.825  15.162 -0.7312 -0.2667 -0.3411
 2352TIP3    H128547   6.546   4.874  15.232 -0.3973  0.1884 -0.4594
 2352TIP3    H228548   6.527   4.753  15.143 -0.8159 -0.3987  0.4190
 2353TIP3   OH228549   1.620   1.220  13.024 -0.7867  0.8415  0.0103
 2353TIP3    H128550   1.701   1.252  12.983 -0.4472 -0.0545 -0.0395
 2353TIP3    H228551   1.616   1.128  13.000 -1.3666  0.6633  0.7543
 2354TIP3   OH228552   6.355   1.643  12.068 -0.3152  1.2592 -0.7410
 2354TIP3    H128553   6.375   1.720  12.121 -1.2635  2.0816 -1.5215
 2354TIP3    H228554   6.260   1.635  12.074 -0.2715  0.4499 -1.0832
 2355TIP3   OH228555   4.998   5.695  11.304 -0.0789  0.3455  0.0197
 2355TIP3    H128556   4.939   5.733  11.369 -0.5757 -1.0653  0.4205
 2355TIP3    H228557   4.965   5.726  11.220 -0.2536  1.0731  0.3488
 2356TIP3   OH228558   2.651   5.020   3.756  0.1827  0.7009  0.3636
 2356TIP3    H128559   2.589   4.971   3.810  0.9780 -1.1783 -0.3252
 2356TIP3    H228560   2.709   5.063   3.819 -1.5567  2.2423  1.0094
 2357TIP3   OH228561   6.177   4.201   4.276 -0.5895 -0.7281 -0.0478
 2357TIP3    H128562   6.095   4.191   4.324 -0.0187 -1.7809  0.7767
 2357TIP3    H228563   6.173   4.288   4.237 -1.3015 -0.0211  1.5232
 2358TIP3   OH228564   3.761   4.664  11.592  0.1887 -0.0744 -0.0128
 2358TIP3    H128565   3.761   4.750  11.633  0.3632  1.6605 -3.2785
 2358TIP3    H228566   3.849   4.630  11.607  0.1295  0.3036  1.2770
 2359TIP3   OH228567   5.069   1.515   2.482 -0.1707 -0.5353  0.0950
 2359TIP3    H128568   5.070   1.584   2.548 -1.6926 -1.8574  1.5870
 2359TIP3    H228569   5.139   1.455   2.509  0.7619  0.0679 -0.8729
 2360TIP3   OH228570   6.663   2.053   6.063  0.0875 -0.1984 -0.2206
 2360TIP3    H128571   6.698   2.041   6.152 -0.2365  1.2282  0.1277
 2360TIP3    H228572   6.570   2.034   6.071 -0.1579  1.0547  0.0162
 2361TIP3   OH228573   0.566   3.740  15.668 -0.2906  0.7827  0.6945
 2361TIP3    H128574   0.552   3.832  15.647 -2.9734  0.3853  0.3399
 2361TIP3    H228575   0.478   3.705  15.682  0.6731 -1.6407  1.2568
 2362TIP3   OH228576   2.348   0.010  13.293  0.0273  0.2456 -0.5796
 2362TIP3    H128577   2.436  -0.024  13.310  0.0232  0.6651  0.3303
 2362TIP3    H228578   2.334  -0.006  13.200  0.1441 -1.9844 -0.2842
 2363TIP3   OH228579   3.338   2.852  15.630 -0.0838 -0.1551  0.3658
 2363TIP3    H128580   3.279   2.893  15.693 -1.3735 -3.4307  1.5223
 2363TIP3    H228581   3.426   2.875  15.659 -0.7210  0.9451  1.4843
 2364TIP3   OH228582   3.530   2.047  14.044 -0.3565 -0.6698  0.2753
 2364TIP3    H128583   3.566   1.977  14.100  1.1151  0.4146  0.7542
 2364TIP3    H228584   3.489   2.108  14.106  0.2304 -0.0635  0.0811
 2365TIP3   OH228585   1.732   0.496  15.352  0.4198  0.1134 -0.1128
 2365TIP3    H128586   1.661   0.548  15.314 -0.3121 -0.7411  0.0273
 2365TIP3    H228587   1.701   0.405  15.345  1.8923 -0.3568 -0.8463
 2366TIP3   OH228588   6.580   0.156   4.885 -0.0989 -0.0920 -0.5383
 2366TIP3    H128589   6.650   0.219   4.903 -2.0177  1.9860 -0.0211
 2366TIP3    H228590   6.529   0.152   4.966 -1.3320 -0.5908 -1.3066
 2367TIP3   OH228591   2.800   4.064  14.413  0.1046  0.4209 -0.3719
 2367TIP3    H128592   2.820   4.138  14.471  3.2733 -0.8603  0.3810
 2367TIP3    H228593   2.721   4.025  14.450 -0.1014  1.8650  0.8165
 2368TIP3   OH228594   6.332   1.145  16.540 -0.4275  0.8431  0.2215
 2368TIP3    H128595   6.422   1.172  16.556  0.5071 -1.3484 -0.9782
 2368TIP3    H228596   6.332   1.051  16.557 -2.0847  0.5012 -1.3805
 2369TIP3   OH228597   2.300   5.894  14.179  0.4817  0.1690 -0.1275
 2369TIP3    H128598   2.341   5.824  14.229  2.8147 -0.3439 -2.5022
 2369TIP3    H228599   2.327   5.975  14.223  1.8451 -0.2881 -0.0807
 2370TIP3   OH228600   4.900   0.344   2.664  0.0647  0.4835 -0.1414
 2370TIP3    H128601   4.954   0.403   2.716 -0.6233 -0.3085  1.5314
 2370TIP3    H228602   4.816   0.340   2.711 -0.1000 -1.3428 -0.5341
 2371TIP3   OH228603   3.922   1.793  15.765 -0.0729 -0.4985  0.3536
 2371TIP3    H128604   4.010   1.775  15.731  0.4374  1.3049  0.6195
 2371TIP3    H228605   3.879   1.708  15.765  1.4406 -1.3141 -0.4364
 2372TIP3   OH228606   5.431   5.987  12.769  0.5263  0.1542  0.3219
 2372TIP3    H128607   5.513   6.004  12.722  0.4441  1.2183  0.5549
 2372TIP3    H228608   5.457   5.975  12.860  0.4641  0.1003  0.3325
 2373TIP3   OH228609   1.934   0.835  12.637 -0.3954 -0.3110 -0.0136
 2373TIP3    H128610   1.898   0.923  12.634 -1.0911 -0.5497  0.8660
 2373TIP3    H228611   1.908   0.802  12.723  0.6978 -1.0173  0.0643
 2374TIP3   OH228612   6.443   6.521  14.159 -0.1366 -0.3132  0.0928
 2374TIP3    H128613   6.511   6.585  14.135  1.0882 -1.8003 -0.6252
 2374TIP3    H228614   6.374   6.534  14.094  0.5415 -0.3617 -0.6525
 2375TIP3   OH228615   2.343   5.454   2.173 -0.0830  0.0650  0.6435
 2375TIP3    H128616   2.293   5.397   2.115 -2.1147  2.1104  0.2525
 2375TIP3    H228617   2.425   5.469   2.126  0.3406 -2.0803  0.5617
 2376TIP3   OH228618   2.863   4.511   4.334 -0.1290 -0.5031 -0.2794
 2376TIP3    H128619   2.837   4.443   4.396  2.0146 -0.5778  0.6144
 2376TIP3    H228620   2.800   4.582   4.347 -0.0639 -0.7610  1.5730
 2377TIP3   OH228621   5.829   3.659  13.913 -0.3346 -0.2123  0.2668
 2377TIP3    H128622   5.813   3.605  13.835  0.8365  0.5670 -0.5564
 2377TIP3    H228623   5.817   3.749  13.881  1.1963  0.1719  0.6984
 2378TIP3   OH228624   4.355   0.962  11.795  0.3948 -0.7513  0.1259
 2378TIP3    H128625   4.371   1.004  11.710 -0.7576  0.3433  0.4093
 2378TIP3    H228626   4.340   0.870  11.774 -2.0670 -0.1392 -1.1802
 2379TIP3   OH228627   2.805   6.697   1.655 -0.1699  0.1244  0.3758
 2379TIP3    H128628   2.748   6.747   1.713 -0.7027 -0.8417  0.7148
 2379TIP3    H228629   2.786   6.606   1.676 -0.1559 -0.2499 -1.1038
 2380TIP3   OH228630   3.580   4.036  12.520  0.4805  0.1772  0.5667
 2380TIP3    H128631   3.540   3.960  12.478  2.9417 -1.0038  0.1606
 2380TIP3    H228632   3.586   4.012  12.612  1.5938 -0.3447  0.3819
 2381TIP3   OH228633   4.762   2.285   3.204  0.0527  0.0675  0.3854
 2381TIP3    H128634   4.755   2.280   3.108  1.2360 -1.5452  0.3450
 2381TIP3    H228635   4.705   2.358   3.228 -1.0647 -0.1239 -1.4641
 2382TIP3   OH228636   0.658   1.663  11.246  0.5265  0.2271 -0.1584
 2382TIP3    H128637   0.676   1.615  11.327 -0.1020  0.8538  0.3725
 2382TIP3    H228638   0.744   1.682  11.209  0.8040 -3.2101 -1.5731
 2383TIP3   OH228639   4.808   4.159   5.728  0.1363  0.1478 -0.3957
 2383TIP3    H128640   4.861   4.168   5.649 -2.4931  0.0293 -2.3141
 2383TIP3    H228641   4.806   4.247   5.765  0.1064  0.5880 -1.4020
 2384TIP3   OH228642   3.450   1.081  12.368  0.6314  0.0558 -0.6172
 2384TIP3    H128643   3.524   1.074  12.308 -0.1944 -2.3138 -1.4626
 2384TIP3    H228644   3.432   0.992  12.395 -2.3982  0.4136 -1.0930
 2385TIP3   OH228645   3.266   0.559   5.480  0.3483 -0.2626  0.2814
 2385TIP3    H128646   3.173   0.575   5.461  0.5711 -1.7406 -2.6318
 2385TIP3    H228647   3.303   0.646   5.494 -1.4177  0.3631  1.4470
 2386TIP3   OH228648   2.583   1.579   2.596 -0.3069  0.5892  0.0287
 2386TIP3    H128649   2.652   1.617   2.540  1.0154 -0.6184  0.7701
 2386TIP3    H228650   2.546   1.654   2.642  1.3855  1.1791  0.5223
 2387TIP3   OH228651   2.226   3.458  10.883 -0.2096  0.1536  0.3184
 2387TIP3    H128652   2.280   3.388  10.921 -2.5251 -2.0746 -0.1692
 2387TIP3    H228653   2.179   3.495  10.958  0.5203  0.7473  0.4914
 2388TIP3   OH228654   0.778   1.277   5.165  0.0515 -0.6070 -0.2467
 2388TIP3    H128655   0.699   1.294   5.113 -0.9492  0.0471  1.4091
 2388TIP3    H228656   0.764   1.327   5.246  3.4193  1.8752 -0.9923
 2389TIP3   OH228657   1.914   1.042  13.336  0.4103 -0.5682  0.4934
 2389TIP3    H128658   1.913   1.133  13.367 -1.1456 -0.7608  1.0765
 2389TIP3    H228659   2.000   1.032  13.296  0.2842  1.4624 -0.4322
 2390TIP3   OH228660   2.422   2.879   0.041  0.0505 -0.3574  0.3388
 2390TIP3    H128661   2.491   2.816   0.060 -0.9155 -1.7871 -0.7752
 2390TIP3    H228662   2.467   2.950  -0.006  0.4992 -2.0979 -1.9919
 2391TIP3   OH228663   0.501   0.619  12.255  0.5393  0.0491 -0.2272
 2391TIP3    H128664   0.453   0.562  12.194 -0.3435 -0.1817  0.6631
 2391TIP3    H228665   0.589   0.625  12.217  0.2515 -0.7759 -1.0724
 2392TIP3   OH228666   0.085   0.883   4.177  0.6051 -0.0034  0.3849
 2392TIP3    H128667   0.146   0.910   4.109  0.9171 -0.0435  0.6467
 2392TIP3    H228668   0.132   0.817   4.227 -0.4864 -1.7927 -0.8441
 2393TIP3   OH228669   6.845   2.883   4.412  0.2462  0.1614 -0.4908
 2393TIP3    H128670   6.776   2.877   4.478 -1.8250  0.5669 -2.4606
 2393TIP3    H228671   6.814   2.826   4.341  3.2599 -1.7006 -0.4500
 2394TIP3   OH228672   4.702   3.760   5.250  0.0908  0.2428  0.0045
 2394TIP3    H128673   4.734   3.714   5.328  0.5785  1.8272  0.7856
 2394TIP3    H228674   4.607   3.753   5.255  0.1106 -2.6825 -1.2026
 2395TIP3   OH228675   2.510   0.807  13.073  0.2678 -0.1925  0.0176
 2395TIP3    H128676   2.478   0.775  13.158  0.4597 -1.2005 -0.2772
 2395TIP3    H228677   2.444   0.777  13.010  0.0968  0.6010 -0.1971
 2396TIP3   OH228678   4.308   3.407   6.472 -0.5145  0.3226 -0.2133
 2396TIP3    H128679   4.375   3.463   6.433  0.1728  0.2840  0.8785
 2396TIP3    H228680   4.292   3.445   6.558 -1.5382  0.0369 -0.2690
 2397TIP3   OH228681   4.978   1.511  14.111 -0.3886  0.2261 -0.9072
 2397TIP3    H128682   5.053   1.453  14.126  0.3837  1.0744 -1.3709
 2397TIP3    H228683   4.954   1.498  14.020 -0.1563  0.6872 -1.0383
 2398TIP3   OH228684   0.445   5.877  16.315 -0.6368 -0.1135  0.1024
 2398TIP3    H128685   0.353   5.851  16.314 -0.2388 -1.6243 -1.7648
 2398TIP3    H228686   0.459   5.921  16.232  0.9372 -2.4508 -0.9845
 2399TIP3   OH228687   5.381   6.677  11.724 -0.2290  0.1881 -0.2363
 2399TIP3    H128688   5.313   6.609  11.732  0.3133 -0.4371 -0.8341
 2399TIP3    H228689   5.424   6.659  11.641  1.3551 -0.0682  0.5909
 2400TIP3   OH228690   5.774   1.996  10.224 -0.4406  0.2587  0.2324
 2400TIP3    H128691   5.692   2.020  10.180 -1.3242 -2.7377 -0.0018
 2400TIP3    H228692   5.751   1.993  10.317 -1.2743 -2.4601  0.0321
 2401TIP3   OH228693   6.421   4.403   4.429  0.2642 -0.2345 -0.5707
 2401TIP3    H128694   6.484   4.430   4.496 -0.5893  1.0296 -0.2257
 2401TIP3    H228695   6.445   4.313   4.407  0.3408 -0.8228  1.7033
 2402TIP3   OH228696   0.741   4.027  16.686  0.6111  0.1230  0.1519
 2402TIP3    H128697   0.746   4.087  16.761 -0.5565 -1.0533  1.2217
 2402TIP3    H228698   0.814   3.966  16.700 -0.0963 -0.5862  0.7893
 2403TIP3   OH228699   6.357   5.548  15.385 -0.1454  0.3217 -0.0703
 2403TIP3    H128700   6.344   5.642  15.402  1.5171  0.9685 -2.0004
 2403TIP3    H228701   6.383   5.512  15.470  1.1423  2.0115  0.3006
 2404TIP3   OH228702   5.317   0.856   5.890  0.1597  0.4166  0.6030
 2404TIP3    H128703   5.303   0.950   5.878  1.9312  0.5860 -0.5678
 2404TIP3    H228704   5.251   0.815   5.834  0.3860  1.0155 -0.1195
 2405TIP3   OH228705   6.396   3.280  13.222 -0.1538  0.2560  0.1965
 2405TIP3    H128706   6.305   3.287  13.194 -0.3424  1.3379  1.0225
 2405TIP3    H228707   6.392   3.222  13.299 -0.1021  0.0647  0.0552
 2406TIP3   OH228708   4.475   1.184  12.093  0.0198  0.3719  0.2921
 2406TIP3    H128709   4.451   1.159  12.004  0.6910 -1.3851  0.5630
 2406TIP3    H228710   4.524   1.266  12.083 -2.3001  1.7333 -0.6339
 2407TIP3   OH228711   6.681   3.234   0.945  0.3211 -0.2358  0.2008
 2407TIP3    H128712   6.754   3.173   0.954  1.3417  0.9430  0.2296
 2407TIP3    H228713   6.711   3.314   0.988 -0.9332  0.3356  0.0658
 2408TIP3   OH228714   0.837   3.938   2.432 -0.7612  0.0032  0.4251
 2408TIP3    H128715   0.884   3.864   2.394  0.7205  0.3472  1.4505
 2408TIP3    H228716   0.904   4.007   2.439 -1.7576  0.9677  0.7600
 2409TIP3   OH228717   5.784   4.188   1.439 -1.2853  0.5503  0.0677
 2409TIP3    H128718   5.787   4.268   1.387 -2.0853 -0.4314 -1.5562
 2409TIP3    H228719   5.860   4.137   1.409 -0.2627  1.0236  1.7167
 2410TIP3   OH228720   0.360   4.507   1.942  0.0723 -0.3790  0.0304
 2410TIP3    H128721   0.277   4.486   1.899 -0.0212  0.1318 -0.0393
 2410TIP3    H228722   0.354   4.463   2.027  0.4958 -1.8767 -0.6721
 2411TIP3   OH228723   5.700   1.049   2.785  0.0217 -0.2319  0.2859
 2411TIP3    H128724   5.633   0.983   2.768  1.2579 -1.5030  0.1437
 2411TIP3    H228725   5.783   1.003   2.772  1.0144  0.3579  3.5108
 2412TIP3   OH228726   1.158   6.779  12.063 -0.2748  0.0782 -0.1608
 2412TIP3    H128727   1.159   6.865  12.021 -0.0019  1.1260  1.8578
 2412TIP3    H228728   1.237   6.735  12.032 -2.2528 -1.0953 -4.2261
 2413TIP3   OH228729   1.549   2.240  11.056 -0.2187  0.0448  0.2234
 2413TIP3    H128730   1.560   2.274  11.144 -0.1933  1.2755 -0.2303
 2413TIP3    H228731   1.499   2.308  11.010 -0.1821 -0.5405 -0.7211
 2414TIP3   OH228732   1.674   3.091  15.801  0.1973  0.1680 -0.4527
 2414TIP3    H128733   1.590   3.068  15.841 -1.0870  0.8901 -2.5643
 2414TIP3    H228734   1.739   3.056  15.861 -1.5950 -0.2538  1.3776
 2415TIP3   OH228735   1.685   4.078  15.399 -0.4106 -0.0978 -0.2987
 2415TIP3    H128736   1.707   3.991  15.432 -1.1337 -0.0010  0.4441
 2415TIP3    H228737   1.768   4.111  15.363  0.3118 -0.3618  1.0459
 2416TIP3   OH228738   1.874   0.836   4.924  0.3818  0.3459  0.2394
 2416TIP3    H128739   1.851   0.748   4.895  2.0310 -0.3861  0.9894
 2416TIP3    H228740   1.793   0.872   4.960 -0.3702 -0.7832 -0.2696
 2417TIP3   OH228741   2.148   6.755   3.428 -0.2375  0.0864  0.2377
 2417TIP3    H128742   2.223   6.722   3.478 -1.0632 -3.5107 -0.6399
 2417TIP3    H228743   2.074   6.703   3.458 -2.0989  2.3628 -0.1560
 2418TIP3   OH228744   0.053   0.155   2.338  0.7372  0.0045 -0.2272
 2418TIP3    H128745   0.085   0.174   2.426  0.7557  0.2039 -0.2742
 2418TIP3    H228746  -0.006   0.081   2.348 -0.0339  0.6511  0.1041
 2419TIP3   OH228747   4.744   4.080   3.000 -0.3368 -0.1821 -0.2356
 2419TIP3    H128748   4.671   4.035   2.957 -1.6776  1.5046  0.1848
 2419TIP3    H228749   4.822   4.051   2.951 -1.3320 -1.4828 -1.1389
 2420TIP3   OH228750   0.741   1.348  12.348  0.3044 -0.4030  0.3487
 2420TIP3    H128751   0.785   1.320  12.428  0.7026  0.7040  0.5364
 2420TIP3    H228752   0.651   1.320  12.358  0.3578 -0.2791  1.1920
 2421TIP3   OH228753   4.537   6.400   3.623  0.1365 -0.1162  0.6256
 2421TIP3    H128754   4.451   6.435   3.646  0.2150  2.0250 -1.8163
 2421TIP3    H228755   4.517   6.319   3.576 -0.4084 -0.5937  1.6532
 2422TIP3   OH228756   5.123   0.650   6.118  0.3012 -0.2637  0.5042
 2422TIP3    H128757   5.037   0.624   6.085 -0.2247 -0.8460  2.2109
 2422TIP3    H228758   5.185   0.611   6.057 -0.6317  0.1005 -0.7124
 2423TIP3   OH228759   4.263   6.683   0.885  0.4325  0.1082  0.2817
 2423TIP3    H128760   4.293   6.660   0.797  2.0845  0.6076  0.6685
 2423TIP3    H228761   4.168   6.686   0.878  0.5448  0.7706 -1.6516
 2424TIP3   OH228762   4.853   5.229   4.071  0.5200 -0.5640 -0.9899
 2424TIP3    H128763   4.762   5.207   4.091  0.9293 -0.0599  1.9032
 2424TIP3    H228764   4.850   5.322   4.047  0.1192 -0.9090 -2.3061
 2425TIP3   OH228765   4.458   0.451  16.341  0.2774  0.1983 -0.7023
 2425TIP3    H128766   4.415   0.470  16.425 -1.0372  0.0662 -1.3197
 2425TIP3    H228767   4.450   0.356  16.331  1.1505  0.1093 -0.6129
 2426TIP3   OH228768   5.175   3.460  11.873  0.6049  0.4817  0.5111
 2426TIP3    H128769   5.223   3.385  11.838  1.4902  0.3480  1.9179
 2426TIP3    H228770   5.091   3.458  11.827  0.8402 -1.0165  0.0773
 2427TIP3   OH228771   2.229   4.763   4.188  0.1507 -0.2507 -0.9426
 2427TIP3    H128772   2.240   4.848   4.146  0.0394  0.0567 -0.3528
 2427TIP3    H228773   2.270   4.772   4.273 -2.5532  0.2409  0.4386
 2428TIP3   OH228774   1.123   4.935  15.538  0.3068 -0.0352 -0.1619
 2428TIP3    H128775   1.123   5.028  15.516 -0.0460  0.5200  2.0302
 2428TIP3    H228776   1.038   4.903  15.508 -0.8570  1.0803  1.7451
 2429TIP3   OH228777   6.410   1.606   3.876  0.1373  0.4629  0.6883
 2429TIP3    H128778   6.333   1.656   3.847  0.7804  0.7065 -0.6672
 2429TIP3    H228779   6.484   1.663   3.857  0.7965 -0.5362  0.1869
 2430TIP3   OH228780   1.576   5.511   4.159  0.4668 -0.4333 -0.3644
 2430TIP3    H128781   1.483   5.505   4.181  0.0593  0.2630 -1.7464
 2430TIP3    H228782   1.588   5.602   4.132  1.4330 -0.6582 -0.7450
 2431TIP3   OH228783   6.047   0.994   0.539 -0.1165 -0.8402  0.0350
 2431TIP3    H128784   6.055   1.087   0.517  2.0445 -0.8369  0.5422
 2431TIP3    H228785   6.026   0.993   0.632  1.4806 -0.8149  0.4245
 2432TIP3   OH228786   4.536   0.645  13.728 -0.0281 -0.0469 -0.2744
 2432TIP3    H128787   4.596   0.677  13.660 -1.1407 -0.7601 -1.6531
 2432TIP3    H228788   4.560   0.694  13.806  1.8460  0.2175 -0.9662
 2433TIP3   OH228789   4.079   1.336  11.481 -0.5484  0.3563  0.8487
 2433TIP3    H128790   4.160   1.384  11.501 -0.3197  1.4149 -2.0324
 2433TIP3    H228791   4.107   1.246  11.467 -0.0183  0.5035  0.9305
 2434TIP3   OH228792   4.772   2.771   2.085  0.0785  0.2938 -0.2286
 2434TIP3    H128793   4.812   2.684   2.082 -0.6044 -0.0646  0.6118
 2434TIP3    H228794   4.753   2.791   1.993  0.9312 -0.1054 -0.5053
 2435TIP3   OH228795   5.853   2.991  14.180 -0.7690  0.2474  0.6151
 2435TIP3    H128796   5.896   2.961  14.260 -0.9226  0.9702  0.9827
 2435TIP3    H228797   5.830   2.911  14.133 -0.5267 -0.1816  1.2191
 2436TIP3   OH228798   1.642   0.159  12.589 -0.0375 -0.2491 -0.0752
 2436TIP3    H128799   1.617   0.100  12.518  0.4883 -1.4150  0.6663
 2436TIP3    H228800   1.735   0.138  12.605  0.2805  1.0939 -0.0804
 2437TIP3   OH228801   5.048   4.635  15.319 -0.3933 -0.0439  0.4961
 2437TIP3    H128802   5.054   4.543  15.293  0.0528 -0.6594  2.6196
 2437TIP3    H228803   4.958   4.660  15.297 -0.5917 -1.0462  0.1372
 2438TIP3   OH228804   4.633   3.968   5.564 -0.0767 -0.0116  0.0316
 2438TIP3    H128805   4.586   4.021   5.499  0.6017 -1.3239 -1.6045
 2438TIP3    H228806   4.696   4.029   5.603  0.4627  0.5040 -1.5736
 2439TIP3   OH228807   5.963   0.468  13.340 -0.0044 -0.4004  0.2616
 2439TIP3    H128808   6.043   0.437  13.298  0.6914  1.2553  0.2633
 2439TIP3    H228809   5.898   0.471  13.270  0.2330 -0.7674  0.0250
 2440TIP3   OH228810   6.497   2.860  11.071 -0.5477 -0.3833 -0.3825
 2440TIP3    H128811   6.411   2.892  11.100  0.3302 -0.1403  2.1645
 2440TIP3    H228812   6.537   2.936  11.027 -0.1974  0.7547  1.7771
 2441TIP3   OH228813   6.779   5.037  15.162  0.3006 -0.3623 -0.2228
 2441TIP3    H128814   6.846   5.046  15.094  0.4627 -0.3843 -0.0660
 2441TIP3    H228815   6.751   4.945  15.155  0.7055 -0.5141  0.1003
 2442TIP3   OH228816   1.749   6.003  15.981  0.1058 -0.0406  0.1534
 2442TIP3    H128817   1.818   6.010  16.047  1.3717  0.5275 -1.1698
 2442TIP3    H228818   1.763   5.917  15.941 -0.3570 -0.1809  0.2796
 2443TIP3   OH228819   3.971   6.826  12.726  0.1105  0.4992  0.5093
 2443TIP3    H128820   3.922   6.858  12.649  1.5492  0.4323 -0.4751
 2443TIP3    H228821   3.944   6.884  12.797 -1.0551  0.7348 -0.1012
 2444TIP3   OH228822   3.733   2.388  12.628  0.1606 -0.1104  0.4391
 2444TIP3    H128823   3.727   2.458  12.693  1.2409 -0.5341  1.0239
 2444TIP3    H228824   3.826   2.369  12.621 -0.0787 -1.2328  0.0073
 2445TIP3   OH228825   1.985   2.629   3.990  0.2174  0.1650 -0.4156
 2445TIP3    H128826   1.890   2.619   3.996  0.2709  0.4302  1.9244
 2445TIP3    H228827   2.012   2.654   4.079  2.7458 -2.1705 -0.3972
 2446TIP3   OH228828   6.769   5.007  14.244 -0.0074  0.8620 -0.1131
 2446TIP3    H128829   6.761   5.043  14.332 -0.6287  0.2701  0.0863
 2446TIP3    H228830   6.688   5.033  14.200 -0.0204  0.5506 -0.2775
 2447TIP3   OH228831   2.690   4.395   2.916 -0.5170  0.0350 -0.1093
 2447TIP3    H128832   2.626   4.329   2.890  0.2472 -0.3112 -1.1697
 2447TIP3    H228833   2.768   4.374   2.867  0.0732  1.1298  0.3121
 2448TIP3   OH228834   4.186   5.197  14.069 -0.5368  0.3707  0.0547
 2448TIP3    H128835   4.257   5.159  14.121 -2.3972 -1.1856  1.6249
 2448TIP3    H228836   4.221   5.204  13.980  1.1881 -1.4670  0.5374
 2449TIP3   OH228837   5.139   4.613   5.554 -0.1629  0.2367  0.6110
 2449TIP3    H128838   5.215   4.557   5.569 -0.7448 -1.0824 -1.0707
 2449TIP3    H228839   5.174   4.688   5.506  0.2058  0.0335  0.5559
 2450TIP3   OH228840   5.514   2.421   1.378  0.2466 -0.3334 -0.2681
 2450TIP3    H128841   5.485   2.335   1.409 -0.4790 -0.2242 -0.6216
 2450TIP3    H228842   5.602   2.431   1.414  0.3281 -1.2101 -0.2017
 2451TIP3   OH228843   3.063   3.203  11.349  0.0889 -0.5618 -0.2299
 2451TIP3    H128844   2.988   3.182  11.403 -0.9057  1.4591 -0.7220
 2451TIP3    H228845   3.028   3.210  11.260  0.6709  1.1993 -0.3578
 2452TIP3   OH228846   3.078   2.957  14.571 -0.4080 -0.0611 -0.2375
 2452TIP3    H128847   3.141   2.970  14.501 -1.1697 -1.2654 -1.2019
 2452TIP3    H228848   2.995   2.940  14.526 -1.2137  0.4860  0.9825
 2453TIP3   OH228849   6.855   4.283   5.815 -0.0145  0.4225  0.3640
 2453TIP3    H128850   6.859   4.287   5.719 -0.1532  3.0337  0.4063
 2453TIP3    H228851   6.936   4.325   5.844  0.4464 -1.1133  1.4481
 2454TIP3   OH228852   4.669   6.832  11.569 -0.0295 -0.0141  0.2322
 2454TIP3    H128853   4.683   6.828  11.664  1.5249 -1.8409  0.0004
 2454TIP3    H228854   4.630   6.747  11.547  0.4482  0.0380 -0.8645
 2455TIP3   OH228855   5.343   1.556   0.294 -0.0025  0.2667 -0.4785
 2455TIP3    H128856   5.273   1.535   0.357 -0.8028  0.5233 -1.2625
 2455TIP3    H228857   5.418   1.580   0.349 -0.2424 -0.8725  0.3871
 2456TIP3   OH228858   6.785   3.652   2.618 -0.3499  0.2600 -0.0942
 2456TIP3    H128859   6.760   3.563   2.643  0.7567  0.0343  0.3055
 2456TIP3    H228860   6.881   3.654   2.629 -0.3672  1.5416  0.0695
 2457TIP3   OH228861   4.762   1.337   3.318 -0.1874  0.1068  0.2153
 2457TIP3    H128862   4.719   1.385   3.388  0.8443 -0.0194  0.9568
 2457TIP3    H228863   4.724   1.373   3.238  1.1206  2.7938  0.6788
 2458TIP3   OH228864   2.098   2.062  13.892  0.1972 -0.5614 -0.3164
 2458TIP3    H128865   2.109   2.156  13.875  1.8855 -0.7811 -0.5340
 2458TIP3    H228866   2.069   2.058  13.983 -0.4233  0.1915 -0.4663
 2459TIP3   OH228867   4.703   0.320  14.758 -0.4804  0.0126  0.0956
 2459TIP3    H128868   4.662   0.402  14.784  0.4150  0.0331  1.5756
 2459TIP3    H228869   4.753   0.341  14.679 -0.5918  0.7794  0.2261
 2460TIP3   OH228870   6.274   1.716   5.283  0.0567  0.4331 -0.0505
 2460TIP3    H128871   6.251   1.790   5.340 -1.3405 -0.3879  0.4969
 2460TIP3    H228872   6.369   1.712   5.286  0.0665  1.1556  1.2832
 2461TIP3   OH228873   6.241   2.903  16.103 -0.4855  0.4534 -0.1717
 2461TIP3    H128874   6.209   2.824  16.059  0.0208  0.3821 -0.4170
 2461TIP3    H228875   6.310   2.936  16.046  0.4531  0.1485  0.7372
 2462TIP3   OH228876   1.879   6.564  16.130 -0.2136 -0.1489 -0.0960
 2462TIP3    H128877   1.903   6.472  16.137 -1.0835 -0.3142  1.1167
 2462TIP3    H228878   1.796   6.571  16.178 -0.0613  1.2937  0.0162
 2463TIP3   OH228879   2.120   2.056  11.545  0.0663  0.4908 -0.1591
 2463TIP3    H128880   2.085   1.972  11.518  2.7155 -0.6415 -0.4284
 2463TIP3    H228881   2.079   2.074  11.629 -0.4985 -1.1106 -0.0699
 2464TIP3   OH228882   0.021   4.084  15.103 -1.0028 -0.3051 -0.1906
 2464TIP3    H128883   0.011   4.156  15.041  1.5292 -0.5261 -0.9361
 2464TIP3    H228884   0.035   4.007  15.048  2.6353 -0.3108  0.4937
 2465TIP3   OH228885   1.314   2.740  11.189 -0.3105  0.4660 -0.0719
 2465TIP3    H128886   1.353   2.654  11.201 -0.5962  0.2996 -0.3125
 2465TIP3    H228887   1.221   2.722  11.172 -0.8897  0.9245  2.2415
 2466TIP3   OH228888   1.772   6.414  13.487  0.1468  0.4503 -0.0359
 2466TIP3    H128889   1.817   6.368  13.557 -0.5520 -0.6989 -0.3268
 2466TIP3    H228890   1.842   6.463  13.442  0.8478 -0.0617  0.4760
 2467TIP3   OH228891   3.538   1.937   4.225 -0.2604 -0.3021 -0.7516
 2467TIP3    H128892   3.611   1.997   4.212 -0.6112  0.0080 -1.3149
 2467TIP3    H228893   3.490   1.938   4.142 -1.7625  0.6443  0.0885
 2468TIP3   OH228894   6.433   5.948  11.585  0.4734 -0.6198  0.4466
 2468TIP3    H128895   6.439   6.043  11.599  0.8310 -0.3436 -1.2880
 2468TIP3    H228896   6.348   5.924  11.623  0.5468  0.3182  1.2476
 2469TIP3   OH228897   0.301   6.250  16.935  0.8048 -0.0947  0.1905
 2469TIP3    H128898   0.375   6.309  16.921  0.6785  0.2800  1.0352
 2469TIP3    H228899   0.227   6.307  16.951  0.7914 -0.4600  1.5796
 2470TIP3   OH228900   0.980   0.114  15.776  0.7659 -0.1570 -0.0772
 2470TIP3    H128901   0.887   0.097  15.793  0.8262 -0.7985 -0.3573
 2470TIP3    H228902   1.009   0.038  15.726  1.2397  0.4278 -0.7124
 2471TIP3   OH228903   3.745   1.281  16.114 -0.0742  0.2408 -0.0110
 2471TIP3    H128904   3.796   1.357  16.140 -0.1745  1.0311 -1.9598
 2471TIP3    H228905   3.654   1.311  16.114 -0.1273  0.1077 -0.6502
 2472TIP3   OH228906   6.772   1.823  12.424  0.2561 -0.2252 -0.1757
 2472TIP3    H128907   6.750   1.860  12.338 -0.1678 -0.0769 -0.0057
 2472TIP3    H228908   6.767   1.729  12.411  0.6439 -0.2158 -0.4291
 2473TIP3   OH228909   0.892   3.974  14.085  0.3202  0.3802 -0.5246
 2473TIP3    H128910   0.917   3.962  14.177 -0.5787 -0.2427 -0.3403
 2473TIP3    H228911   0.975   3.982  14.038  0.7834  0.9919  0.3773
 2474TIP3   OH228912   1.693   3.355   1.740 -0.1359 -0.2168  0.0572
 2474TIP3    H128913   1.624   3.350   1.675  0.6651  0.9500 -0.9310
 2474TIP3    H228914   1.695   3.447   1.767  2.2837  0.2782 -1.4393
 2475TIP3   OH228915   4.350   4.452   2.951 -0.4600 -0.1351 -0.3163
 2475TIP3    H128916   4.306   4.427   3.033 -1.5399  1.5658 -0.3436
 2475TIP3    H228917   4.417   4.515   2.979  1.4336 -1.9744 -0.3969
 2476TIP3   OH228918   5.471   3.868   2.655  0.1327 -0.1994  0.4873
 2476TIP3    H128919   5.502   3.849   2.566  0.1345 -0.5117  0.5531
 2476TIP3    H228920   5.548   3.899   2.701  0.1098  0.0598  0.3528
 2477TIP3   OH228921   1.554   2.796   0.629  0.1216  0.0757  0.4322
 2477TIP3    H128922   1.610   2.788   0.707 -0.0236 -0.7725  0.4561
 2477TIP3    H228923   1.608   2.843   0.566  0.6222 -0.1438  0.6882
 2478TIP3   OH228924   1.379   1.514  13.413  0.1765  0.1942 -0.6318
 2478TIP3    H128925   1.316   1.481  13.349  1.1713  1.5281 -2.3971
 2478TIP3    H228926   1.332   1.583  13.460 -0.7637 -1.2177  0.5970
 2479TIP3   OH228927   1.557   1.959   0.536  0.7944  0.0852 -0.1274
 2479TIP3    H128928   1.619   1.971   0.464 -0.0903  0.1962 -0.9032
 2479TIP3    H228929   1.471   1.975   0.496  0.2610 -0.1033  0.9017
 2480TIP3   OH228930   2.449   0.611   4.623  0.4634 -0.1897  0.2269
 2480TIP3    H128931   2.543   0.621   4.634  1.0194 -3.5160 -0.4290
 2480TIP3    H228932   2.439   0.532   4.569 -2.6908 -1.0895  1.8550
 2481TIP3   OH228933   3.511   4.253  15.489  0.4023  0.1875  0.1066
 2481TIP3    H128934   3.474   4.334  15.524  0.6343  0.5099 -0.3808
 2481TIP3    H228935   3.478   4.184  15.547 -2.3811  0.2097 -1.2764
 2482TIP3   OH228936   1.793   3.991   0.421  0.0806  0.6060 -0.1913
 2482TIP3    H128937   1.723   3.929   0.398  0.2253 -0.5561  2.2114
 2482TIP3    H228938   1.872   3.952   0.384 -0.1995  0.7800 -1.0037
 2483TIP3   OH228939   0.631   5.606  14.093  0.2764 -0.2318 -0.5279
 2483TIP3    H128940   0.536   5.603  14.082  0.0333  0.5595  1.1121
 2483TIP3    H228941   0.657   5.514  14.104 -0.6377 -0.3177  1.2796
 2484TIP3   OH228942   2.836   4.545  16.226 -0.3678 -0.5019 -0.1110
 2484TIP3    H128943   2.794   4.548  16.312  1.6381 -1.0108  0.9513
 2484TIP3    H228944   2.914   4.491  16.239  1.4048  1.4990 -1.5700
 2485TIP3   OH228945   1.812   6.352   3.116 -0.0321  0.5743 -0.2198
 2485TIP3    H128946   1.901   6.381   3.098  1.1632 -0.5563  3.0707
 2485TIP3    H228947   1.765   6.362   3.033  2.6463  2.9230 -1.5906
 2486TIP3   OH228948   5.173   6.236  15.364 -0.9525  0.2169 -0.4336
 2486TIP3    H128949   5.220   6.153  15.370  0.8037  1.1108 -1.0473
 2486TIP3    H228950   5.191   6.279  15.447  0.3546  1.0393 -1.0985
 2487TIP3   OH228951   0.618   1.156  11.529 -0.6983  0.2874 -0.1047
 2487TIP3    H128952   0.631   1.137  11.436 -0.5212  1.7295 -0.3981
 2487TIP3    H228953   0.657   1.081  11.574  2.1947  1.0242 -1.1413
 2488TIP3   OH228954   0.633   5.549  10.927  0.2536 -0.4219  0.8065
 2488TIP3    H128955   0.570   5.582  10.862  1.6048  0.1598 -0.2594
 2488TIP3    H228956   0.591   5.565  11.011  0.3230  3.0651  0.3054
 2489TIP3   OH228957   5.606   0.749   2.792 -0.8235 -0.0894 -0.2298
 2489TIP3    H128958   5.562   0.667   2.816 -0.5934  0.7021  3.5717
 2489TIP3    H228959   5.545   0.817   2.817  0.2637  0.9319 -0.2528
 2490TIP3   OH228960   1.189   6.835  16.334  0.2898  0.0133 -0.3840
 2490TIP3    H128961   1.254   6.902  16.314  2.0923 -1.7838 -0.7905
 2490TIP3    H228962   1.239   6.754  16.343 -1.9129 -1.5045 -0.9548
 2491TIP3   OH228963   2.950   4.430  15.735  0.0353 -0.3491  0.0919
 2491TIP3    H128964   3.017   4.471  15.789 -0.5191  1.2525 -0.3820
 2491TIP3    H228965   2.982   4.442  15.645  0.7659 -2.6429 -0.0293
 2492TIP3   OH228966   0.173   3.646   2.368  0.2880 -0.0545  0.3495
 2492TIP3    H128967   0.084   3.678   2.353 -1.0301 -3.1833  0.5564
 2492TIP3    H228968   0.228   3.702   2.314 -1.9619  1.2183 -0.7963
 2493TIP3   OH228969   3.230   3.886   5.221 -0.1739 -0.1518 -0.1456
 2493TIP3    H128970   3.283   3.808   5.205 -1.0117 -1.6245  3.3274
 2493TIP3    H228971   3.142   3.853   5.236 -0.7848  1.5800  0.3567
 2494TIP3   OH228972   5.884   6.663   4.961  0.0430  0.0695  0.7479
 2494TIP3    H128973   5.932   6.631   4.884  0.9295 -0.0961  1.3548
 2494TIP3    H228974   5.948   6.661   5.031 -0.8148  0.0290  1.5451
 2495TIP3   OH228975   1.760   6.870  15.754 -0.3082 -0.1580 -0.2690
 2495TIP3    H128976   1.700   6.822  15.812  1.2580 -0.1267  1.4806
 2495TIP3    H228977   1.707   6.890  15.677 -2.4478 -0.4091  1.0253
 2496TIP3   OH228978   1.284   2.961  16.160  0.0732  1.0684 -0.1955
 2496TIP3    H128979   1.326   2.887  16.117  1.9884  2.4412 -0.8080
 2496TIP3    H228980   1.192   2.956  16.133  0.4309 -0.3437 -1.2361
 2497TIP3   OH228981   5.827   3.055   1.836 -0.7588  0.3132  0.2025
 2497TIP3    H128982   5.768   2.998   1.786  0.6391 -0.2801 -0.8379
 2497TIP3    H228983   5.798   3.045   1.927 -0.9438 -1.6051 -0.0202
 2498TIP3   OH228984   5.274   4.330   1.989 -0.4567 -0.0817 -0.1225
 2498TIP3    H128985   5.228   4.409   2.016 -2.0374 -0.5720 -1.2518
 2498TIP3    H228986   5.290   4.342   1.896  0.4177 -0.5638 -0.0454
 2499TIP3   OH228987   0.538   6.599  10.762 -0.1518  0.2537 -0.0255
 2499TIP3    H128988   0.558   6.527  10.703 -0.7512 -1.0229  1.2809
 2499TIP3    H228989   0.474   6.653  10.714  0.7288  0.2493 -1.2302
 2500TIP3   OH228990   6.059   4.814   5.295 -0.2007 -0.5365  0.4818
 2500TIP3    H128991   6.028   4.903   5.312  1.4191 -0.0013  0.7677
 2500TIP3    H228992   6.102   4.788   5.377  2.0412 -0.3762 -0.5765
 2501TIP3   OH228993   1.263   1.172   2.267 -0.3863  0.1816  0.7106
 2501TIP3    H128994   1.313   1.094   2.244  2.1683  1.5199  1.2201
 2501TIP3    H228995   1.280   1.184   2.361  1.0100  2.3686  0.2626
 2502TIP3   OH228996   5.147   4.398  14.226 -0.0144  0.0557  0.1496
 2502TIP3    H128997   5.237   4.428  14.239  0.0159 -0.0835  0.2676
 2502TIP3    H228998   5.094   4.458  14.279  0.1910 -1.0562  1.6621
 2503TIP3   OH228999   4.125   4.840   3.396 -0.0848 -0.3557  0.3175
 2503TIP3    H129000   4.144   4.913   3.337 -1.0378  1.7390  2.4357
 2503TIP3    H229001   4.030   4.830   3.393 -0.0933 -0.5605  1.0815
 2504TIP3   OH229002   0.238   0.118   2.092 -0.0677 -0.1109  0.3215
 2504TIP3    H129003   0.184   0.160   2.158 -2.9502  2.6551 -3.3730
 2504TIP3    H229004   0.190   0.040   2.067 -0.0519 -0.0500  0.0974
 2505TIP3   OH229005   6.620   4.864  11.925 -0.1550  0.4446 -0.0579
 2505TIP3    H129006   6.606   4.847  11.831 -2.1557  2.1793 -0.1512
 2505TIP3    H229007   6.554   4.810  11.968  0.0157  0.4982  0.2673
 2506TIP3   OH229008   2.480   0.499  16.234  0.0330 -0.6445 -0.3834
 2506TIP3    H129009   2.493   0.585  16.274  0.2810 -0.7651 -0.2007
 2506TIP3    H229010   2.506   0.437  16.302 -2.4510 -0.9519  0.4046
 2507TIP3   OH229011   4.993   6.590   1.318  0.1678 -0.0318 -0.1025
 2507TIP3    H129012   5.005   6.665   1.376 -0.0635 -0.4947  0.5465
 2507TIP3    H229013   5.024   6.515   1.368 -0.7361 -0.5467 -0.2925
 2508TIP3   OH229014   6.558   0.510   3.868 -0.1016 -0.5024 -0.2825
 2508TIP3    H129015   6.498   0.450   3.912 -1.5523 -0.7075 -2.4061
 2508TIP3    H229016   6.558   0.482   3.777  0.1966  1.9108 -1.0866
 2509TIP3   OH229017   6.656   4.238  10.814 -0.6667  0.1889  0.4750
 2509TIP3    H129018   6.723   4.306  10.827 -0.5502  0.1384  0.1426
 2509TIP3    H229019   6.621   4.255  10.727 -0.3652 -0.4200  0.2333
 2510TIP3   OH229020   1.471   6.644  13.034  0.1981  0.2229 -0.0367
 2510TIP3    H129021   1.567   6.637  13.026  0.8550  2.8349  3.3609
 2510TIP3    H229022   1.445   6.688  12.953  1.9473 -0.0336 -0.7984
 2511TIP3   OH229023   1.867   0.314   5.940  0.2367  0.0208  0.1761
 2511TIP3    H129024   1.810   0.340   5.868  1.1803  0.8887 -0.2916
 2511TIP3    H229025   1.850   0.378   6.009  1.4095  0.9664 -0.3774
 2512TIP3   OH229026   1.337   6.665  11.259 -0.1261 -0.1012 -0.3429
 2512TIP3    H129027   1.250   6.641  11.292  0.2172  1.5383  1.9542
 2512TIP3    H229028   1.334   6.643  11.165 -2.5044 -1.3801 -0.0453
 2513TIP3   OH229029   2.532   2.939  13.108  0.5922  0.3391  0.1447
 2513TIP3    H129030   2.479   2.872  13.065  0.1196  0.0652  1.1451
 2513TIP3    H229031   2.528   2.918  13.201  0.1752  1.9384  0.5237
 2514TIP3   OH229032   2.650   2.836   5.714  0.3346  0.2243 -0.3220
 2514TIP3    H129033   2.558   2.812   5.713  0.1089  1.0825 -0.9279
 2514TIP3    H229034   2.669   2.856   5.806  0.3122 -1.3613  0.0571
 2515TIP3   OH229035   0.394   0.482  16.701  0.4979 -0.3109 -0.0054
 2515TIP3    H129036   0.331   0.433  16.754 -0.9325  0.4527 -0.9362
 2515TIP3    H229037   0.406   0.429  16.622  0.0245  0.1656 -0.3982
 2516TIP3   OH229038   6.717   3.120  15.589  0.4798  0.3746  0.0528
 2516TIP3    H129039   6.696   3.150  15.678 -2.3747  1.7931 -0.9522
 2516TIP3    H229040   6.674   3.034  15.583  2.1660 -0.5420  0.5292
 2517TIP3   OH229041   5.770   6.358  14.624 -0.2839 -0.1558 -0.3138
 2517TIP3    H129042   5.860   6.383  14.607 -0.9643  2.0369 -1.0368
 2517TIP3    H229043   5.751   6.394  14.710  0.4635 -3.5974  1.4984
 2518TIP3   OH229044   0.821   3.340   0.722  0.1816  0.0477 -0.4043
 2518TIP3    H129045   0.796   3.428   0.749 -0.9826 -0.6125  0.7455
 2518TIP3    H229046   0.766   3.282   0.774  1.6168 -1.3956 -0.4222
 2519TIP3   OH229047   6.272   0.241   0.787  0.3853  0.5363 -0.3708
 2519TIP3    H129048   6.276   0.336   0.770  1.3681  1.0632  2.3246
 2519TIP3    H229049   6.291   0.233   0.880 -3.6089 -2.0479  0.4327
 2520TIP3   OH229050   3.328   5.774   6.463  0.2296 -0.3761 -0.7040
 2520TIP3    H129051   3.372   5.842   6.514  1.2639 -0.9016 -0.8524
 2520TIP3    H229052   3.243   5.811   6.441 -0.3180 -0.2232  1.5377
 2521TIP3   OH229053   1.246   0.681  16.999 -0.0489 -0.0622  0.8831
 2521TIP3    H129054   1.258   0.628  17.078  1.2965 -0.2676  0.5699
 2521TIP3    H229055   1.230   0.617  16.930  2.2178 -0.1543  0.3866
 2522TIP3   OH229056   4.124   2.007  15.419  0.2081  0.2026 -0.2058
 2522TIP3    H129057   4.113   2.076  15.484  1.6302  0.9795 -0.7493
 2522TIP3    H229058   4.036   1.993  15.384 -0.0091  2.3226 -0.6447
 2523TIP3   OH229059   0.162   2.170  10.988 -0.3335  0.1562  0.4123
 2523TIP3    H129060   0.141   2.079  10.970 -0.2272  0.3650 -0.9480
 2523TIP3    H229061   0.142   2.183  11.080 -0.0400 -1.3191  0.6947
 2524TIP3   OH229062   4.945   5.843  10.803 -0.7035 -0.1942  0.1018
 2524TIP3    H129063   4.914   5.927  10.769  0.4060  0.3950  0.5001
 2524TIP3    H229064   5.000   5.807  10.734 -0.5266 -0.2110  0.2502
 2525TIP3   OH229065   0.781   1.972   0.921  0.7627 -0.0250  0.6934
 2525TIP3    H129066   0.730   2.044   0.884 -0.4761 -1.4589 -0.5441
 2525TIP3    H229067   0.726   1.937   0.991  1.4694  0.3738  1.4600
 2526TIP3   OH229068   0.418   6.725   1.914  0.0429  0.3498 -0.1627
 2526TIP3    H129069   0.486   6.725   1.982 -0.6167 -1.5297  0.5443
 2526TIP3    H229070   0.431   6.808   1.867  1.5085  0.9678  1.2550
 2527TIP3   OH229071   1.246   4.596   0.867 -0.1397  0.3611 -0.0204
 2527TIP3    H129072   1.237   4.505   0.897 -2.8728  1.0889  1.6360
 2527TIP3    H229073   1.337   4.601   0.835  0.8058 -2.3568  1.8482
 2528TIP3   OH229074   4.434   0.462  11.770  0.2182 -0.3132  0.2815
 2528TIP3    H129075   4.371   0.392  11.789 -0.3273 -0.3744 -1.5753
 2528TIP3    H229076   4.380   0.536  11.742  0.9061  0.1737  0.2293
 2529TIP3   OH229077   5.059   6.744  15.876  0.0903  0.0112  0.0698
 2529TIP3    H129078   5.077   6.746  15.782  0.8947  0.7655  0.2298
 2529TIP3    H229079   5.040   6.835  15.898  1.2277  0.0649  0.8817
 2530TIP3   OH229080   5.692   4.477   5.453 -0.5064  0.7642  0.8177
 2530TIP3    H129081   5.736   4.516   5.377 -0.6081  0.3966  0.5663
 2530TIP3    H229082   5.600   4.501   5.444 -1.0018 -1.3499 -0.5577
 2531TIP3   OH229083   4.112   3.754  11.074 -0.6645 -0.1247  0.1307
 2531TIP3    H129084   4.112   3.660  11.091  3.1064 -0.2501  0.3638
 2531TIP3    H229085   4.116   3.760  10.978 -0.6570 -0.2271  0.1239
 2532TIP3   OH229086   6.819   0.489   5.090 -0.1071  0.0621 -0.3092
 2532TIP3    H129087   6.837   0.537   5.171 -0.1339 -1.7899  0.8551
 2532TIP3    H229088   6.736   0.445   5.106 -0.6621  0.5143 -1.7893
 2533TIP3   OH229089   0.291   3.220   1.158  0.3117 -0.1255  0.7110
 2533TIP3    H129090   0.381   3.227   1.126  0.3606  1.1367  1.0423
 2533TIP3    H229091   0.278   3.127   1.175  0.3634 -0.8877 -2.6900
 2534TIP3   OH229092   5.258   2.780  12.813  0.0974 -0.2800 -0.3223
 2534TIP3    H129093   5.211   2.736  12.743  0.6991  0.3633 -1.1416
 2534TIP3    H229094   5.349   2.783  12.784  0.5309 -0.8297  0.9034
 2535TIP3   OH229095   1.297   0.309   5.546  0.6248  0.1854  0.6152
 2535TIP3    H129096   1.340   0.361   5.614 -0.2071 -0.3515  1.5823
 2535TIP3    H229097   1.210   0.348   5.537  0.1548 -0.7359  1.0254
 2536TIP3   OH229098   3.679   1.861  13.101  0.0451 -0.4000  0.5485
 2536TIP3    H129099   3.646   1.813  13.025 -2.7903 -0.2374  1.5501
 2536TIP3    H229100   3.724   1.794  13.153  0.9035 -0.7746 -0.6346
 2537TIP3   OH229101   6.244   5.707   4.433  0.8852 -0.2091 -0.8486
 2537TIP3    H129102   6.276   5.644   4.367  0.1060 -0.0260 -1.4139
 2537TIP3    H229103   6.189   5.655   4.491  0.8522 -0.1953 -0.8679
 2538TIP3   OH229104   3.712   0.466  15.766  0.1468 -0.3004 -0.4128
 2538TIP3    H129105   3.669   0.541  15.724  0.9444  0.1313 -0.4859
 2538TIP3    H229106   3.794   0.455  15.717  1.1546  0.2920  1.0840
 2539TIP3   OH229107   1.861   1.388   2.127  0.1846 -0.1861 -0.2489
 2539TIP3    H129108   1.881   1.478   2.153 -1.4957  0.3119 -0.5742
 2539TIP3    H229109   1.940   1.359   2.081  0.6378  1.2404 -0.4352
 2540TIP3   OH229110   1.632   3.288  13.814  0.2867 -0.2151  0.5409
 2540TIP3    H129111   1.688   3.218  13.846 -0.3678 -0.5591  0.9522
 2540TIP3    H229112   1.667   3.367  13.855 -0.3094 -0.5999  1.8592
 2541TIP3   OH229113   0.540   1.390   2.243  0.1937  0.3277 -0.4942
 2541TIP3    H129114   0.513   1.366   2.331 -0.5849  2.0539 -0.2096
 2541TIP3    H229115   0.506   1.321   2.187  0.3891 -0.6031  0.5016
 2542TIP3   OH229116   2.476   0.586  11.436 -0.2777 -0.2819 -0.2954
 2542TIP3    H129117   2.388   0.600  11.400 -0.9109 -2.3750  0.2849
 2542TIP3    H229118   2.528   0.561  11.360 -0.1718  0.9298 -0.6373
 2543TIP3   OH229119   3.297   4.003  13.212 -0.7453  0.8772 -0.3634
 2543TIP3    H129120   3.385   3.986  13.243 -1.4036 -0.5685  0.8605
 2543TIP3    H229121   3.273   4.088  13.250 -0.7022  0.1976  1.2678
 2544TIP3   OH229122   6.306   5.051  10.296  0.0641 -0.4867  0.5780
 2544TIP3    H129123   6.282   5.102  10.218 -1.0961  1.1029  1.9136
 2544TIP3    H229124   6.238   5.072  10.360  1.9182 -0.3809  2.6078
 2545TIP3   OH229125   1.457   2.217   3.609  0.6160 -0.1677  0.0204
 2545TIP3    H129126   1.395   2.211   3.537 -1.2416 -2.9628  1.6351
 2545TIP3    H229127   1.542   2.224   3.567 -0.5868  1.7922 -2.3279
 2546TIP3   OH229128   1.007   2.074  13.840 -0.6277 -0.2402  0.2086
 2546TIP3    H129129   1.089   2.123  13.849 -0.6772 -0.3922  1.9103
 2546TIP3    H229130   1.033   1.990  13.803  0.1770 -0.6629  1.6210
 2547TIP3   OH229131   0.886   2.300  13.215 -0.3583 -0.2276  0.4646
 2547TIP3    H129132   0.963   2.248  13.240  0.6964  1.1418  0.1728
 2547TIP3    H229133   0.816   2.235  13.206  0.5377 -1.4144  1.5702
 2548TIP3   OH229134   0.684   3.969  15.018  0.0242 -0.6476 -0.3100
 2548TIP3    H129135   0.597   3.931  15.027 -1.2213  1.9553 -0.3820
 2548TIP3    H229136   0.704   4.002  15.106  0.3455 -0.0759 -0.5955
 2549TIP3   OH229137   4.000   2.485   0.695 -0.4091  0.4783 -0.0768
 2549TIP3    H129138   3.936   2.479   0.767 -1.5637 -1.3083 -1.1578
 2549TIP3    H229139   3.953   2.527   0.624 -0.6466 -1.3374 -1.0666
 2550TIP3   OH229140   1.450   5.489  11.335 -0.2383  0.7389 -0.0666
 2550TIP3    H129141   1.457   5.561  11.398 -0.2806 -0.1316  0.9695
 2550TIP3    H229142   1.369   5.444  11.359  0.4063 -0.3707  0.0987
 2551TIP3   OH229143   1.106   3.361   1.380  0.0328  0.5493  0.3747
 2551TIP3    H129144   1.184   3.404   1.417  0.5514 -0.7914  0.8990
 2551TIP3    H229145   1.072   3.308   1.452 -1.6864  1.4965  0.3012
 2552TIP3   OH229146   2.041   3.646  16.819 -0.1538  0.2662 -0.1040
 2552TIP3    H129147   2.043   3.668  16.725  0.2681  0.9563  0.0548
 2552TIP3    H229148   2.049   3.551  16.822  1.9077  0.3870 -0.7026
 2553TIP3   OH229149   5.725   0.461   1.336 -0.4216  0.0360 -0.3730
 2553TIP3    H129150   5.739   0.454   1.431  2.2107 -2.3401 -0.8002
 2553TIP3    H229151   5.706   0.554   1.322  1.6075  0.9975  2.2566
 2554TIP3   OH229152   2.674   5.093  11.768  0.3041  0.0261 -0.8461
 2554TIP3    H129153   2.766   5.088  11.744  0.8152 -1.1327  1.1071
 2554TIP3    H229154   2.672   5.148  11.846 -0.7554  0.5632 -1.2363
 2555TIP3   OH229155   5.026   2.919  12.911  0.3061  0.2425  0.2919
 2555TIP3    H129156   5.063   3.004  12.932  1.7868 -0.1222 -0.6759
 2555TIP3    H229157   5.102   2.862  12.900 -0.5463 -0.6570 -1.3243
 2556TIP3   OH229158   1.634   0.373  14.788 -0.3104 -0.2747  0.0730
 2556TIP3    H129159   1.698   0.399  14.721  1.4435 -1.8516  1.0170
 2556TIP3    H229160   1.667   0.412  14.868  0.0530 -1.8695  0.7489
 2557TIP3   OH229161   0.957   5.911   4.982  0.2837 -0.2635  0.0514
 2557TIP3    H129162   1.028   5.920   5.044  1.5903 -0.0512 -1.4129
 2557TIP3    H229163   0.881   5.948   5.027  1.1343 -0.2624  1.5498
 2558TIP3   OH229164   0.544   6.078   4.512  0.4740  0.1274 -0.6337
 2558TIP3    H129165   0.538   5.982   4.518 -0.1691  0.2060  0.2004
 2558TIP3    H229166   0.636   6.094   4.492  0.7054 -0.6541 -0.2775
 2559TIP3   OH229167   2.248   2.896   2.745  0.1503 -0.3995 -0.3050
 2559TIP3    H129168   2.333   2.884   2.787  0.2648 -0.9045 -0.6677
 2559TIP3    H229169   2.248   2.833   2.672 -0.5815 -0.4972 -0.2327
 2560TIP3   OH229170   3.102   4.813  16.879  0.4165 -0.3993 -0.0217
 2560TIP3    H129171   3.138   4.875  16.815  2.3967 -0.8753  0.5524
 2560TIP3    H229172   3.128   4.849  16.964 -0.2834 -0.9087  0.4156
 2561TIP3   OH229173   1.201   3.339  15.822  0.3762  0.2134 -0.1143
 2561TIP3    H129174   1.207   3.243  15.830  0.0438  0.2809  1.1112
 2561TIP3    H229175   1.177   3.353  15.730 -0.4829 -0.9373 -0.0999
 2562TIP3   OH229176   4.040   6.587  12.355  0.2531  0.1001  0.2739
 2562TIP3    H129177   4.023   6.555  12.267 -1.4946 -1.1669  1.0149
 2562TIP3    H229178   3.956   6.579  12.401  1.6235 -1.6898  2.7444
 2563TIP3   OH229179   3.462   3.868   0.467 -0.2072 -0.3814 -0.7495
 2563TIP3    H129180   3.508   3.946   0.498  0.8324 -0.8408 -1.0661
 2563TIP3    H229181   3.375   3.899   0.442  0.9622  1.2143 -3.3256
 2564TIP3   OH229182   6.069   1.877  11.561  0.3863  0.5850  0.0234
 2564TIP3    H129183   6.067   1.814  11.632 -0.6582  0.2192 -0.3133
 2564TIP3    H229184   5.985   1.865  11.516  0.4060  1.8336 -0.3744
 2565TIP3   OH229185   5.670   0.786   2.032  0.6285 -0.0906 -0.2656
 2565TIP3    H129186   5.593   0.840   2.017  1.2740  1.1295  0.6595
 2565TIP3    H229187   5.695   0.804   2.123  0.9512 -1.8561  0.0406
 2566TIP3   OH229188   1.867   0.409  14.648 -0.2975 -0.4114  0.5939
 2566TIP3    H129189   1.862   0.489  14.595  1.7221 -0.3362  0.4529
 2566TIP3    H229190   1.860   0.338  14.584 -0.2657 -0.3371  0.5083
 2567TIP3   OH229191   0.711   4.714   4.090 -0.0220  0.1989  0.5442
 2567TIP3    H129192   0.722   4.620   4.084  0.8780  0.3802 -1.2797
 2567TIP3    H229193   0.801   4.748   4.102 -0.1304  0.9102 -0.5430
 2568TIP3   OH229194   2.667   6.664   5.342  0.3298  0.9284  0.1195
 2568TIP3    H129195   2.671   6.585   5.287  1.8228  0.1998  1.2051
 2568TIP3    H229196   2.710   6.638   5.423 -0.6033  2.4048  1.1152
 2569TIP3   OH229197   1.940   3.432   0.087 -1.0731 -0.0667  0.0700
 2569TIP3    H129198   1.996   3.503   0.119  1.8169 -1.2527 -1.8987
 2569TIP3    H229199   1.872   3.475   0.036  0.5801  1.3720 -1.0265
 2570TIP3   OH229200   2.890   0.363   1.549  0.0525 -0.3238 -0.0293
 2570TIP3    H129201   2.857   0.324   1.630  1.7309  1.9127  1.8753
 2570TIP3    H229202   2.976   0.324   1.536 -0.6903 -1.5834 -1.5125
 2571TIP3   OH229203   0.373   1.247  13.096  0.3904  0.4033 -0.1515
 2571TIP3    H129204   0.307   1.220  13.161  0.8538 -0.2385  0.0563
 2571TIP3    H229205   0.322   1.268  13.018 -0.1644  1.0390  0.3705
 2572TIP3   OH229206   5.859   1.551  16.028  0.0262 -0.2066  0.0725
 2572TIP3    H129207   5.906   1.627  16.065 -1.1926  1.0654 -0.8732
 2572TIP3    H229208   5.929   1.495  15.995  0.9462  1.4039 -0.8694
 2573TIP3   OH229209   0.268   2.543   5.041  0.0324 -0.7336 -0.2878
 2573TIP3    H129210   0.284   2.452   5.065 -2.4192 -1.1164  0.1444
 2573TIP3    H229211   0.200   2.572   5.101 -0.6643  0.7531 -1.7229
 2574TIP3   OH229212   0.548   3.741   4.951 -0.3530  0.1157  0.2240
 2574TIP3    H129213   0.622   3.794   4.984 -0.6635  0.5696  0.2031
 2574TIP3    H229214   0.586   3.689   4.880 -0.0560  0.3620  0.1966
 2575TIP3   OH229215   1.113   4.237   4.147  0.4315 -0.5178 -0.2959
 2575TIP3    H129216   1.203   4.206   4.149  0.6330  0.0646 -0.2706
 2575TIP3    H229217   1.079   4.218   4.235  1.6394  2.4836  0.9199
 2576TIP3   OH229218   0.628   4.632  15.467 -0.6718 -0.1260  0.2936
 2576TIP3    H129219   0.719   4.602  15.463 -0.7276 -0.2617  0.0537
 2576TIP3    H229220   0.612   4.673  15.382  0.4412  3.6160  1.6508
 2577TIP3   OH229221   3.449   2.907  15.377 -0.3117 -0.1996  0.4537
 2577TIP3    H129222   3.437   2.885  15.469 -0.4625  0.3383  0.5628
 2577TIP3    H229223   3.410   2.993  15.367 -1.2984 -0.7096 -0.3476
 2578TIP3   OH229224   0.824   2.842  12.227 -0.0979 -0.1079 -0.2048
 2578TIP3    H129225   0.821   2.926  12.271  0.5192 -1.3887  2.5267
 2578TIP3    H229226   0.736   2.828  12.193 -0.3282  1.4046 -0.2605
 2579TIP3   OH229227   1.963   0.226   6.595  0.2826  0.2684  0.7349
 2579TIP3    H129228   2.019   0.253   6.523  1.6866  0.0929  1.7134
 2579TIP3    H229229   1.951   0.305   6.648 -0.4818  0.3260  0.4868
 2580TIP3   OH229230   4.427   0.184  12.671 -0.3145  0.4506  0.3868
 2580TIP3    H129231   4.510   0.158  12.631 -0.3641 -1.8947  1.5846
 2580TIP3    H229232   4.383   0.237  12.605  0.3074 -1.8345 -2.0209
 2581TIP3   OH229233   3.633   2.936   3.226  0.1401  0.0711  0.3978
 2581TIP3    H129234   3.626   2.949   3.321  0.2816  0.7223  0.3263
 2581TIP3    H229235   3.548   2.901   3.200 -0.2035  0.6998  0.6472
 2582TIP3   OH229236   6.512   4.325  16.788  0.5381  0.2206  0.1996
 2582TIP3    H129237   6.435   4.365  16.829 -0.4549 -0.1208 -1.2298
 2582TIP3    H229238   6.517   4.238  16.826 -1.1828 -0.5922 -1.2695
 2583TIP3   OH229239   2.700   3.583   2.383  0.2881 -0.2584 -0.8154
 2583TIP3    H129240   2.669   3.510   2.437  0.2380  0.3815  0.0378
 2583TIP3    H229241   2.793   3.592   2.407 -0.1442  1.1336  0.4848
 2584TIP3   OH229242   5.584   3.390  13.290  0.0375  0.0001 -0.4401
 2584TIP3    H129243   5.605   3.450  13.361  1.5532  2.6862 -2.9141
 2584TIP3    H229244   5.614   3.305  13.319  0.0398  0.8613  2.3082
 2585TIP3   OH229245   5.923   3.398   5.144 -0.0327  0.4270 -0.2289
 2585TIP3    H129246   5.918   3.386   5.049 -2.9746 -0.3727 -0.0696
 2585TIP3    H229247   5.876   3.323   5.180 -0.5119  1.6188  1.7798
 2586TIP3   OH229248   1.074   4.075   4.370  0.3101  0.0745 -0.1660
 2586TIP3    H129249   1.035   4.003   4.420  0.5500 -0.8071 -1.2011
 2586TIP3    H229250   1.127   4.123   4.433  0.7501 -1.1095  0.3872
 2587TIP3   OH229251   3.269   6.650  10.402  0.1166  0.2511  0.1311
 2587TIP3    H129252   3.198   6.630  10.463  0.3745 -0.3031  0.2581
 2587TIP3    H229253   3.272   6.745  10.399 -0.4029  0.2809  0.3891
 2588TIP3   OH229254   2.278   6.874  12.516 -0.0516 -0.0342 -0.7687
 2588TIP3    H129255   2.345   6.913  12.459  0.0871 -0.1578 -0.6903
 2588TIP3    H229256   2.297   6.780  12.516 -0.4973 -0.1299 -1.1019
 2589TIP3   OH229257   2.769   5.547  15.509  0.3800 -0.4378 -0.3782
 2589TIP3    H129258   2.725   5.476  15.461 -2.5402  1.0763 -0.2030
 2589TIP3    H229259   2.780   5.513  15.597  1.0578 -1.4300 -0.8263
 2590TIP3   OH229260   1.940   2.001   1.661  0.0836  0.2405  0.0544
 2590TIP3    H129261   2.022   2.026   1.703  0.8084 -0.3530 -0.9540
 2590TIP3    H229262   1.932   2.062   1.587 -1.2297  1.3496  1.0497
 2591TIP3   OH229263   6.248   6.201  17.010  1.1698  0.3465 -0.3105
 2591TIP3    H129264   6.329   6.151  17.003  0.2715 -1.1222 -0.5545
 2591TIP3    H229265   6.216   6.208  16.920  0.4422 -0.0778 -0.0889
 2592TIP3   OH229266   0.748   1.887   5.389  0.3406  0.2404 -0.2216
 2592TIP3    H129267   0.750   1.981   5.369 -3.1602  0.6210  0.6039
 2592TIP3    H229268   0.734   1.845   5.305  0.3537  0.5791 -0.3952
 2593TIP3   OH229269   5.364   5.684  14.771 -0.3296  0.8955  0.4767
 2593TIP3    H129270   5.392   5.694  14.680  0.0886 -0.2291  0.4643
 2593TIP3    H229271   5.269   5.684  14.767 -0.3271 -0.5737 -0.1590
 2594TIP3   OH229272   0.195   0.179  10.574 -0.0587  0.4464  0.2600
 2594TIP3    H129273   0.145   0.132  10.641 -0.5997 -1.1227 -1.1659
 2594TIP3    H229274   0.251   0.112  10.534  0.3685  1.3703 -0.7379
 2595TIP3   OH229275   5.967   4.999   1.988  0.4970 -0.1887 -0.1814
 2595TIP3    H129276   5.879   4.993   2.023  0.0288 -0.7572 -1.3987
 2595TIP3    H229277   5.960   5.056   1.912  1.4145  0.7067  0.3760
 2596TIP3   OH229278   2.258   5.555   4.295 -0.3597 -0.0432  0.0041
 2596TIP3    H129279   2.218   5.469   4.284  0.4723 -0.6615  1.5736
 2596TIP3    H229280   2.297   5.553   4.383 -0.5296  2.0160  0.1822
 2597TIP3   OH229281   3.449   5.587  14.560 -0.1036  0.4755 -0.7269
 2597TIP3    H129282   3.378   5.525  14.579 -1.9265  3.1301  2.0792
 2597TIP3    H229283   3.458   5.586  14.465 -2.6914 -1.2347 -1.0437
 2598TIP3   OH229284   4.432   5.314   1.150 -0.0889 -0.5227  0.5027
 2598TIP3    H129285   4.504   5.298   1.090  1.2082  1.3256  1.4895
 2598TIP3    H229286   4.353   5.290   1.100  0.8376  1.6510 -2.2491
 2599TIP3   OH229287   5.610   6.564  13.774  0.1711  0.1377 -0.1097
 2599TIP3    H129288   5.583   6.634  13.834  0.6866 -0.6438  1.0773
 2599TIP3    H229289   5.559   6.579  13.695 -0.5565  1.1950  0.5317
 2600TIP3   OH229290   1.267   3.518  14.714  0.0164 -0.1579 -0.1230
 2600TIP3    H129291   1.351   3.545  14.678  0.7405 -0.0592  1.5483
 2600TIP3    H229292   1.265   3.557  14.801 -2.0318  0.3298 -0.3350
 2601TIP3   OH229293   1.075   0.060  16.575 -0.0205  0.1823 -0.4122
 2601TIP3    H129294   1.108   0.070  16.486  1.6464  0.3670  0.1918
 2601TIP3    H229295   1.152   0.035  16.627 -1.0709 -0.5240  0.8721
 2602TIP3   OH229296   4.813   1.872  16.046  0.3424 -0.0700  0.3025
 2602TIP3    H129297   4.793   1.948  15.991 -1.4481 -0.0659  0.8815
 2602TIP3    H229298   4.806   1.904  16.135 -0.3657 -0.8747  0.5516
 2603TIP3   OH229299   2.626   2.101   0.214  0.7748  0.3031 -0.7460
 2603TIP3    H129300   2.654   2.192   0.205  0.0882  0.7437  1.0313
 2603TIP3    H229301   2.530   2.105   0.211  0.6744 -0.1328  0.6804
 2604TIP3   OH229302   3.260   1.557   2.275  0.4084 -0.3348  0.1103
 2604TIP3    H129303   3.188   1.508   2.314  1.3644 -2.3990 -0.5365
 2604TIP3    H229304   3.221   1.603   2.200 -0.3752 -0.8665  0.1818
 2605TIP3   OH229305   3.833   5.138  15.681 -0.0520  0.2034  0.0886
 2605TIP3    H129306   3.894   5.208  15.658 -0.4693  1.0798  1.4928
 2605TIP3    H229307   3.748   5.168  15.648 -0.1269  0.0728  0.1586
 2606TIP3   OH229308   5.620   1.714  15.613 -0.0416  0.2867  0.0341
 2606TIP3    H129309   5.600   1.759  15.532  0.3526 -0.2886 -0.3891
 2606TIP3    H229310   5.542   1.660  15.630 -0.3956  0.8949  0.3934
 2607TIP3   OH229311   5.812   1.698   6.097  0.2321  0.0063  0.0737
 2607TIP3    H129312   5.860   1.618   6.075  0.2599 -0.0992  0.5194
 2607TIP3    H229313   5.744   1.670   6.159 -1.7206 -0.2186 -2.0151
 2608TIP3   OH229314   6.561   3.051  14.528 -0.0556  0.1942 -0.1360
 2608TIP3    H129315   6.568   2.993  14.452 -0.2484 -0.3498  0.2520
 2608TIP3    H229316   6.578   2.993  14.603  2.3494  1.1325  0.1349
 2609TIP3   OH229317   2.454   2.463  12.218 -0.1149  0.0985 -0.6389
 2609TIP3    H129318   2.476   2.445  12.310 -0.9732  0.3655 -0.3768
 2609TIP3    H229319   2.359   2.465  12.216 -0.0962  0.3487 -1.4944
 2610TIP3   OH229320   4.358   3.475  14.266  0.4937  0.1411  0.0073
 2610TIP3    H129321   4.430   3.496  14.326 -2.0813 -0.0761  3.4918
 2610TIP3    H229322   4.348   3.380  14.273 -1.4062  0.3890  1.3146
 2611TIP3   OH229323   0.845   4.978  16.780 -0.1251  0.5020 -0.1512
 2611TIP3    H129324   0.931   5.020  16.781 -0.9060  2.2135  1.3763
 2611TIP3    H229325   0.787   5.041  16.738 -0.7845 -0.3626 -0.5974
 2612TIP3   OH229326   3.459   2.857  14.088 -0.2011  0.2798  0.1694
 2612TIP3    H129327   3.537   2.806  14.107 -1.3855 -1.5036  0.4935
 2612TIP3    H229328   3.432   2.828  14.001  0.4957  2.2617 -0.7790
 2613TIP3   OH229329   2.058   5.043  15.601 -0.2880  0.1806  0.2461
 2613TIP3    H129330   2.128   5.032  15.535 -1.4918  0.6565 -1.1642
 2613TIP3    H229331   2.012   4.959  15.602 -1.2086  0.6580 -0.6642
 2614TIP3   OH229332   0.279   0.393  15.581 -0.4379 -0.7766  0.0281
 2614TIP3    H129333   0.332   0.472  15.571 -0.8348 -0.5365 -0.2032
 2614TIP3    H229334   0.340   0.321  15.567 -0.2493 -0.4963 -0.6742
 2615TIP3   OH229335   4.579   2.500   5.467 -0.4486  0.2737 -0.0714
 2615TIP3    H129336   4.614   2.588   5.479  0.1841  0.3934 -2.3975
 2615TIP3    H229337   4.629   2.446   5.529 -0.9219  1.5082  1.4590
 2616TIP3   OH229338   5.331   1.121   2.360 -0.2574 -0.0739 -0.2694
 2616TIP3    H129339   5.305   1.125   2.268  1.1360 -0.8314 -0.7250
 2616TIP3    H229340   5.410   1.175   2.364 -1.0122  0.9865  0.7633
 2617TIP3   OH229341   3.827   2.135   2.348  0.0386  0.3399 -0.1814
 2617TIP3    H129342   3.866   2.124   2.435  0.4452  2.2160 -0.0731
 2617TIP3    H229343   3.856   2.223   2.321 -0.4034 -0.0631 -2.0454
 2618TIP3   OH229344   3.386   6.517   3.144 -0.0042 -0.0145  0.7307
 2618TIP3    H129345   3.464   6.568   3.168 -0.0432 -0.0304  0.8937
 2618TIP3    H229346   3.420   6.429   3.127 -0.1762 -0.4289  2.3312
 2619TIP3   OH229347   5.453   3.505   2.920 -0.4378 -0.2219  0.3949
 2619TIP3    H129348   5.408   3.525   2.838 -0.3824 -2.4753 -0.2650
 2619TIP3    H229349   5.385   3.469   2.977  0.1577 -2.3977 -0.1451
 2620TIP3   OH229350   1.541   3.584  10.528  0.1993 -0.3738 -0.4921
 2620TIP3    H129351   1.578   3.508  10.574  1.8336  0.2761 -0.6720
 2620TIP3    H229352   1.541   3.654  10.593 -0.9425 -0.4085 -0.4396
 2621TIP3   OH229353   1.315   3.059  12.519 -0.3462  0.3370 -0.4114
 2621TIP3    H129354   1.393   3.110  12.541 -0.9221  1.2238 -0.3871
 2621TIP3    H229355   1.254   3.123  12.481 -0.6199 -0.5499 -1.5390
 2622TIP3   OH229356   2.028   6.610  10.983  0.4049 -0.9110  1.0647
 2622TIP3    H129357   1.980   6.527  10.987  0.4684 -0.9287  1.5639
 2622TIP3    H229358   1.966   6.672  10.945 -0.0191 -0.9331  1.7008
 2623TIP3   OH229359   4.764   1.522  12.549 -0.7237 -0.0240  0.0790
 2623TIP3    H129360   4.695   1.459  12.526 -1.5872  0.5215  1.0704
 2623TIP3    H229361   4.728   1.570  12.625  1.0212 -0.1799  1.0479
 2624TIP3   OH229362   1.778   3.501  11.736 -0.4399 -0.3437 -0.2496
 2624TIP3    H129363   1.869   3.526  11.719 -0.0667 -0.3173  1.5821
 2624TIP3    H229364   1.735   3.511  11.651  0.8657  1.3717 -0.7923
 2625TIP3   OH229365   5.190   4.665  10.016 -0.0432 -0.1814  0.2622
 2625TIP3    H129366   5.248   4.639   9.945 -1.2039  0.1788 -0.8725
 2625TIP3    H229367   5.109   4.692   9.972 -1.1509 -0.8588  1.7823
 2626TIP3   OH229368   1.512   5.877   3.826 -0.3833  0.5295  0.7294
 2626TIP3    H129369   1.417   5.884   3.820 -0.6705 -2.8340 -0.3265
 2626TIP3    H229370   1.544   5.964   3.799 -3.0956  1.3583 -0.1001
 2627TIP3   OH229371   4.941   3.109   4.978  0.1229  0.1675  0.0593
 2627TIP3    H129372   4.892   3.026   4.984  1.0112 -0.4343 -0.7704
 2627TIP3    H229373   4.907   3.151   4.900  2.2685 -1.1945 -1.7054
 2628TIP3   OH229374   2.452   3.495   5.364  0.0117  0.0159  0.1685
 2628TIP3    H129375   2.490   3.524   5.447  0.7889  0.5542 -0.3671
 2628TIP3    H229376   2.382   3.558   5.346 -1.1692 -0.9578  1.1391
 2629TIP3   OH229377   2.133   3.866   5.517  0.0171  0.3904  0.2085
 2629TIP3    H129378   2.111   3.790   5.571 -0.4329  0.1767 -0.2717
 2629TIP3    H229379   2.077   3.858   5.440  0.0987  1.1114  0.0685
 2630TIP3   OH229380   2.172   1.897   2.498  0.1310 -0.3094 -0.2167
 2630TIP3    H129381   2.082   1.910   2.527  0.1746  0.7064 -0.5205
 2630TIP3    H229382   2.223   1.963   2.544  0.4436  0.2944 -1.3761
 2631TIP3   OH229383   4.162   4.666  15.757 -0.4823 -0.0579 -0.3697
 2631TIP3    H129384   4.067   4.680  15.752 -0.3981  0.4081 -0.8013
 2631TIP3    H229385   4.175   4.623  15.841 -1.0209  0.4133 -0.0281
 2632TIP3   OH229386   5.377   2.017  11.194 -0.0086  0.4207 -0.1585
 2632TIP3    H129387   5.332   2.092  11.154  0.5490  0.9644  0.2200
 2632TIP3    H229388   5.449   1.998  11.133  0.3287  0.7034  0.1517
 2633TIP3   OH229389   2.825   1.605  16.235  0.6211  0.2094 -0.2137
 2633TIP3    H129390   2.813   1.700  16.239 -1.6648 -0.0348 -0.3879
 2633TIP3    H229391   2.851   1.588  16.144 -0.3690  0.5508 -0.5738
 2634TIP3   OH229392   6.315   4.875  15.733  0.0503 -0.0784  0.1268
 2634TIP3    H129393   6.368   4.796  15.747  0.8866  0.1130 -1.7379
 2634TIP3    H229394   6.366   4.945  15.773 -0.0352 -0.2637  0.5737
 2635TIP3   OH229395   3.001   6.843   4.465  0.4151  0.0698 -0.9979
 2635TIP3    H129396   3.021   6.936   4.477  0.0829  0.1924 -1.3642
 2635TIP3    H229397   2.908   6.836   4.486  0.8671 -0.5452  0.9874
 2636TIP3   OH229398   4.451   3.103   2.173  0.3687  0.1456  0.5199
 2636TIP3    H129399   4.516   3.062   2.230  1.6898 -0.5461 -1.3699
 2636TIP3    H229400   4.420   3.031   2.117  0.0638  1.0218 -0.4648
 2637TIP3   OH229401   1.892   6.862   2.341 -0.1119  0.1135 -0.0670
 2637TIP3    H129402   1.871   6.891   2.252  1.3562  1.2864 -0.0689
 2637TIP3    H229403   1.919   6.942   2.387 -2.8139 -0.0699  2.1021
 2638TIP3   OH229404   2.881   1.124   3.617 -0.4398 -0.8712 -0.1117
 2638TIP3    H129405   2.792   1.113   3.652  0.6562  0.7046  3.8317
 2638TIP3    H229406   2.936   1.072   3.675  1.4688  0.6219 -0.4593
 2639TIP3   OH229407   3.169   5.903   0.718  0.0912  0.1206  0.3578
 2639TIP3    H129408   3.231   5.976   0.719 -0.8715  0.9684  1.8907
 2639TIP3    H229409   3.136   5.899   0.808 -1.8127 -0.5224 -0.3369
 2640TIP3   OH229410   1.377   6.103   4.048  0.1166  0.4485 -0.0215
 2640TIP3    H129411   1.384   6.066   3.960  0.3484  0.1467  0.1221
 2640TIP3    H229412   1.434   6.180   4.046  0.7657 -0.0212  0.1038
 2641TIP3   OH229413   2.731   5.653   3.588 -0.3546  0.5858 -0.0562
 2641TIP3    H129414   2.728   5.562   3.616 -0.5359  0.2174 -1.2190
 2641TIP3    H229415   2.824   5.669   3.569 -0.1993  0.8981  0.9099
 2642TIP3   OH229416   3.456   1.165   5.145  1.0249 -0.2239  0.0540
 2642TIP3    H129417   3.494   1.116   5.217 -0.6871 -0.0984  1.0868
 2642TIP3    H229418   3.451   1.255   5.177  1.8145  0.1827 -0.8886
 2643TIP3   OH229419   2.621   6.148   3.767 -0.0915  0.4444 -0.3107
 2643TIP3    H129420   2.585   6.087   3.831  1.7064  1.2106  1.5424
 2643TIP3    H229421   2.545   6.198   3.736 -1.2633 -1.2260 -0.2613
 2644TIP3   OH229422   1.050   3.590  16.317 -0.3379  0.2253  0.3309
 2644TIP3    H129423   1.131   3.641  16.319 -0.3447  0.2522  0.0166
 2644TIP3    H229424   1.067   3.523  16.250 -0.0927 -0.5778  1.1790
 2645TIP3   OH229425   4.862   2.041  12.365  0.3653 -0.4462  0.4500
 2645TIP3    H129426   4.778   2.087  12.370  0.9766  0.5938  1.4019
 2645TIP3    H229427   4.860   1.997  12.280 -0.5069  0.8169 -0.2079
 2646TIP3   OH229428   5.546   3.372   6.501 -0.4403  0.3220  0.1874
 2646TIP3    H129429   5.598   3.303   6.541 -0.9825 -0.0639  0.2346
 2646TIP3    H229430   5.459   3.334   6.490 -0.1838  0.2087 -1.8878
 2647TIP3   OH229431   0.849   0.721   2.092 -0.4498  0.0377 -0.1297
 2647TIP3    H129432   0.779   0.735   2.156 -0.6627 -1.5474  0.0399
 2647TIP3    H229433   0.914   0.788   2.112 -0.1394 -0.9033  2.2956
 2648TIP3   OH229434   5.755   0.500   1.035  0.4398 -0.7874 -0.6796
 2648TIP3    H129435   5.803   0.450   1.101  1.0917  1.5161  0.6908
 2648TIP3    H229436   5.813   0.499   0.959  1.0484 -0.9871 -0.2231
 2649TIP3   OH229437   5.215   5.844   1.764  0.4113  0.1274 -0.1129
 2649TIP3    H129438   5.306   5.842   1.734  0.0479 -0.4566 -1.2317
 2649TIP3    H229439   5.213   5.781   1.836  0.8813  0.1017 -0.1131
 2650TIP3   OH229440   3.948   1.063   5.508 -0.1301  0.1744  0.0528
 2650TIP3    H129441   3.898   1.133   5.466 -0.0267  0.2111 -0.0089
 2650TIP3    H229442   3.934   1.077   5.602 -1.4697 -0.7161  0.0108
 2651TIP3   OH229443   4.261   5.926   2.410  0.3175 -0.0136 -0.4804
 2651TIP3    H129444   4.234   5.995   2.470 -2.0069 -0.8455 -0.4900
 2651TIP3    H229445   4.292   5.973   2.332  2.7513  1.0583  0.9912
 2652TIP3   OH229446   6.823   6.833  15.227  0.1649 -0.2440  0.2662
 2652TIP3    H129447   6.839   6.925  15.250  1.1888 -0.4557  0.4569
 2652TIP3    H229448   6.853   6.784  15.303 -1.9533 -0.6848  0.8788
 2653TIP3   OH229449   3.626   4.814  13.115 -0.3236 -0.0799  0.5488
 2653TIP3    H129450   3.702   4.846  13.163 -0.8534 -1.6135  2.5159
 2653TIP3    H229451   3.661   4.791  13.029  0.9712  1.2691  0.6623
 2654TIP3   OH229452   1.114   3.137  15.456 -0.1712 -0.1525  0.1246
 2654TIP3    H129453   1.051   3.070  15.485 -0.6385  0.1722 -0.1201
 2654TIP3    H229454   1.158   3.098  15.381 -0.7553 -0.0231 -0.2943
 2655TIP3   OH229455   3.310   5.330  13.963  0.2152 -0.1936 -0.4129
 2655TIP3    H129456   3.313   5.240  13.931  1.5457 -1.0512  1.9121
 2655TIP3    H229457   3.218   5.355  13.959 -0.7649 -2.9489  2.1417
 2656TIP3   OH229458   3.452   3.783  12.457  0.1263 -0.0293  0.5734
 2656TIP3    H129459   3.451   3.767  12.552  0.8966 -0.5016  0.5076
 2656TIP3    H229460   3.360   3.784  12.432 -0.0904  0.1838  1.3381
 2657TIP3   OH229461   4.026   1.333   2.808 -0.5673 -0.5015 -0.2629
 2657TIP3    H129462   4.008   1.240   2.795 -2.8585  0.3235 -5.4726
 2657TIP3    H229463   4.121   1.338   2.821 -0.1124 -3.4554 -1.8138
 2658TIP3   OH229464   2.143   1.349  11.657  0.4002 -0.5760 -0.2067
 2658TIP3    H129465   2.093   1.316  11.732 -0.7434  2.8858  0.7356
 2658TIP3    H229466   2.121   1.289  11.586  0.4150 -3.1754  1.7949
 2659TIP3   OH229467   3.528   0.537  15.369  0.0355  0.2484 -0.0654
 2659TIP3    H129468   3.438   0.521  15.396  0.2884 -0.6729  0.2707
 2659TIP3    H229469   3.566   0.449  15.357  0.8563  0.6201 -0.2902
 2660TIP3   OH229470   4.718   1.563   1.102  0.5993 -0.6767 -0.1575
 2660TIP3    H129471   4.665   1.641   1.118  0.7329 -0.7535  0.7369
 2660TIP3    H229472   4.802   1.581   1.145  0.7306 -1.1885 -0.1888
 2661TIP3   OH229473   3.023   1.340  13.684 -0.5715  0.6421 -0.2027
 2661TIP3    H129474   3.060   1.397  13.751  0.5369 -0.0846 -0.1631
 2661TIP3    H229475   2.956   1.393  13.641  1.2044  2.4214 -0.9623
 2662TIP3   OH229476   1.876   1.441  15.639 -0.5795  0.0165 -0.1244
 2662TIP3    H129477   1.898   1.527  15.603  0.4085 -0.4064 -0.5538
 2662TIP3    H229478   1.888   1.380  15.566  1.8399 -0.9116  0.9608
 2663TIP3   OH229479   2.795   5.334  10.343 -0.2382  0.0642  0.0118
 2663TIP3    H129480   2.722   5.284  10.380  0.9135 -1.5777  0.1438
 2663TIP3    H229481   2.826   5.282  10.269 -0.3985  1.6997 -1.2722
 2664TIP3   OH229482   2.776   4.605  16.489 -0.3056  0.4490 -0.3199
 2664TIP3    H129483   2.801   4.688  16.449 -1.6793  2.2286  2.2355
 2664TIP3    H229484   2.792   4.617  16.582 -0.1792 -2.3438  0.0979
 2665TIP3   OH229485   3.894   6.631   2.669  0.0912 -0.4926 -0.7100
 2665TIP3    H129486   3.984   6.606   2.691 -0.2808 -0.9329  0.4408
 2665TIP3    H229487   3.859   6.556   2.621  0.8383  0.3724 -2.6593
 2666TIP3   OH229488   0.839   1.625   4.270 -0.5126  0.4964 -0.0096
 2666TIP3    H129489   0.882   1.615   4.185 -0.6164  1.4143 -0.1873
 2666TIP3    H229490   0.812   1.537   4.294 -0.2356  0.1849 -0.8034
 2667TIP3   OH229491   4.524   1.787   3.174  0.1935 -1.0418  0.4794
 2667TIP3    H129492   4.620   1.784   3.172  0.2706  0.5265 -1.6019
 2667TIP3    H229493   4.499   1.797   3.082 -1.8692  0.5294  1.1414
 2668TIP3   OH229494   4.693   2.695   0.856  0.1963  1.1595 -0.1764
 2668TIP3    H129495   4.774   2.742   0.838 -0.9482  2.7939 -1.4211
 2668TIP3    H229496   4.633   2.723   0.786 -1.5133  0.2179  0.8390
 2669TIP3   OH229497   2.730   6.691  16.058  0.5995 -0.5280 -0.4907
 2669TIP3    H129498   2.652   6.744  16.072 -0.4753 -1.9313 -0.8622
 2669TIP3    H229499   2.739   6.639  16.139 -0.8564 -2.7665 -1.6659
 2670TIP3   OH229500   4.692   3.257   3.931  0.1500 -0.5580 -0.4933
 2670TIP3    H129501   4.707   3.280   4.023 -0.4788 -1.2332 -0.2138
 2670TIP3    H229502   4.603   3.288   3.913  0.5884  0.3516 -1.1359
 2671TIP3   OH229503   1.104   5.549  12.246 -0.3419  0.6228  0.5725
 2671TIP3    H129504   1.075   5.505  12.166  1.7557  1.5702 -0.8230
 2671TIP3    H229505   1.096   5.483  12.315  0.3066 -1.1240 -0.9465
 2672TIP3   OH229506   6.671   2.971  12.907  0.3667 -0.3076 -0.1671
 2672TIP3    H129507   6.694   2.927  12.988 -0.7628 -2.2095 -0.7902
 2672TIP3    H229508   6.647   3.060  12.933  1.7068 -0.3452  1.3116
 2673TIP3   OH229509   6.031   2.547   0.858 -0.2131  0.4829  0.3487
 2673TIP3    H129510   6.039   2.454   0.883  1.2152 -0.0267 -1.7514
 2673TIP3    H229511   6.057   2.594   0.937  1.8802 -1.0052  0.6539
 2674TIP3   OH229512   6.804   0.358  16.529  0.4176  0.0052 -0.1502
 2674TIP3    H129513   6.754   0.290  16.484  1.2374 -0.1617 -0.8298
 2674TIP3    H229514   6.895   0.328  16.525  0.6368  0.5438  0.6300
 2675TIP3   OH229515   5.153   5.985   3.208 -0.2978  0.2313  0.1069
 2675TIP3    H129516   5.160   5.905   3.156 -1.1721 -0.0521  0.4153
 2675TIP3    H229517   5.212   5.970   3.282  0.0352  0.1499 -0.1678
 2676TIP3   OH229518   1.416   5.282  16.380 -0.6973 -0.0531  0.5423
 2676TIP3    H129519   1.364   5.202  16.370  0.5187 -0.6302 -2.4937
 2676TIP3    H229520   1.362   5.350  16.340  0.0183 -0.2934 -0.9136
 2677TIP3   OH229521   1.782   6.498   0.159 -0.7776 -0.1492  0.5222
 2677TIP3    H129522   1.815   6.516   0.247 -2.8943  0.7645  1.1874
 2677TIP3    H229523   1.850   6.445   0.118  1.2794  1.3013  1.9057
 2678TIP3   OH229524   4.351   0.061  15.978 -0.3995  0.3914 -0.1734
 2678TIP3    H129525   4.445   0.068  15.992 -0.5366  0.3530  0.8003
 2678TIP3    H229526   4.341   0.062  15.882  0.7924 -2.4144 -0.4077
 2679TIP3   OH229527   1.146   3.919   5.111 -0.0345 -0.1538 -0.8037
 2679TIP3    H129528   1.148   3.848   5.175 -0.3205 -0.3296 -0.9869
 2679TIP3    H229529   1.220   3.901   5.053  0.6629  0.3971 -0.1179
 2680TIP3   OH229530   5.377   2.932   0.711  0.1388  0.2541  0.4372
 2680TIP3    H129531   5.401   2.844   0.741  0.2233  0.3859  0.7683
 2680TIP3    H229532   5.452   2.987   0.736  0.7253  0.1712 -1.0554
 2681TIP3   OH229533   5.430   5.097   3.059 -0.1387  0.1687  0.4455
 2681TIP3    H129534   5.408   5.190   3.060 -0.9119 -0.0108  1.5534
 2681TIP3    H229535   5.519   5.094   3.023 -0.1056  1.3354  0.4014
 2682TIP3   OH229536   6.613   6.145  14.328 -0.8253  0.2436  0.4762
 2682TIP3    H129537   6.559   6.069  14.305  1.7835 -0.9520 -2.3672
 2682TIP3    H229538   6.612   6.200  14.250  0.6277  1.0246  0.9736
 2683TIP3   OH229539   2.059   3.646  13.210 -0.1410 -0.5067  0.2821
 2683TIP3    H129540   1.997   3.714  13.238 -0.4788 -0.8180  0.2965
 2683TIP3    H229541   2.020   3.609  13.131  0.4874 -0.0780 -0.2395
 2684TIP3   OH229542   0.554   1.306  16.611  0.5955  0.1783 -0.4567
 2684TIP3    H129543   0.516   1.252  16.542 -1.1871  0.0625  0.5287
 2684TIP3    H229544   0.570   1.244  16.683 -0.8677  0.8027  0.4539
 2685TIP3   OH229545   3.205   2.550   3.232 -0.0701 -0.3300 -0.4813
 2685TIP3    H129546   3.248   2.628   3.197 -0.1311 -0.0543  0.0513
 2685TIP3    H229547   3.275   2.485   3.239  0.0491 -0.2162 -0.6162
 2686TIP3   OH229548   4.472   2.187  13.381  0.2341  0.4939 -0.7813
 2686TIP3    H129549   4.455   2.125  13.310  1.2141  0.5104 -1.0436
 2686TIP3    H229550   4.534   2.250  13.344 -0.2358  1.2544 -0.3089
 2687TIP3   OH229551   6.141   0.669  16.993 -0.5018 -0.1915 -0.1638
 2687TIP3    H129552   6.112   0.580  16.972  0.6000 -0.3248 -1.2302
 2687TIP3    H229553   6.233   0.659  17.017 -0.3262  0.6807 -0.4292
 2688TIP3   OH229554   0.879   6.790   1.404  0.6203  0.1041 -0.2012
 2688TIP3    H129555   0.909   6.711   1.360  1.4853  0.2591  0.0916
 2688TIP3    H229556   0.846   6.759   1.488 -0.9714 -0.1838 -0.8971
 2689TIP3   OH229557   5.215   2.564   2.056  0.6527 -0.1986 -0.2654
 2689TIP3    H129558   5.268   2.496   2.015 -0.2975  0.0354 -2.0131
 2689TIP3    H229559   5.276   2.612   2.112  2.1575 -0.3572 -1.6762
 2690TIP3   OH229560   1.346   3.596   1.248  0.0724 -0.3235  0.8477
 2690TIP3    H129561   1.385   3.627   1.330 -0.8016  0.2016  1.0843
 2690TIP3    H229562   1.408   3.623   1.180  0.2900  0.1951  1.2400
 2691TIP3   OH229563   3.449   2.568  12.708 -0.2129  0.9739  0.0263
 2691TIP3    H129564   3.396   2.611  12.775  1.5675  0.5650  1.7666
 2691TIP3    H229565   3.539   2.596  12.727  0.8008 -2.0112  0.0888
 2692TIP3   OH229566   1.153   6.548   2.421 -0.3299  0.3562  0.2158
 2692TIP3    H129567   1.197   6.626   2.454  0.3761 -0.4992  1.3530
 2692TIP3    H229568   1.062   6.575   2.408  0.5090  2.3188 -2.6706
 2693TIP3   OH229569   4.328   2.587   0.319  0.2047  0.2305  0.1384
 2693TIP3    H129570   4.376   2.595   0.401 -1.1619  1.4812  0.8532
 2693TIP3    H229571   4.344   2.496   0.291  1.7799  0.1806  1.0568
 2694TIP3   OH229572   1.474   0.086   3.969  0.0025 -0.1359  0.1085
 2694TIP3    H129573   1.559   0.080   3.926  0.6978  2.0353  1.0927
 2694TIP3    H229574   1.416   0.124   3.902  0.3611  0.5108  0.1653
 2695TIP3   OH229575   5.196   3.010   3.905  0.4015 -0.2252  0.1533
 2695TIP3    H129576   5.268   3.022   3.844 -0.2744  0.1391 -0.5910
 2695TIP3    H229577   5.164   2.921   3.887  0.8812 -0.5288  0.7391
 2696TIP3   OH229578   2.749   1.521   3.884  0.2248 -0.5901 -0.2584
 2696TIP3    H129579   2.726   1.585   3.817  0.0410  0.3518  0.6587
 2696TIP3    H229580   2.742   1.436   3.841 -2.0204 -0.1624 -0.8591
 2697TIP3   OH229581   3.945   3.040  10.329 -0.1467  0.0661  0.1060
 2697TIP3    H129582   3.952   3.084  10.414 -0.5628 -1.1068  0.7833
 2697TIP3    H229583   3.933   3.110  10.266 -2.1964  0.8593  1.2969
 2698TIP3   OH229584   5.174   4.172  13.022 -0.5750 -0.5694 -0.5248
 2698TIP3    H129585   5.254   4.224  13.022 -0.6209 -0.4878 -1.1749
 2698TIP3    H229586   5.112   4.224  12.971 -0.7641 -1.0395 -0.7830
 2699TIP3   OH229587   4.571   3.356   4.544 -0.5682  0.1461 -0.2215
 2699TIP3    H129588   4.502   3.398   4.595 -0.9815  0.4163 -0.9958
 2699TIP3    H229589   4.571   3.401   4.460 -0.3327 -0.7170 -0.7020
 2700TIP3   OH229590   6.581   5.715   5.317 -0.3307 -0.1461 -0.1322
 2700TIP3    H129591   6.551   5.675   5.398 -1.7306  1.7283  0.3498
 2700TIP3    H229592   6.655   5.769   5.344 -0.7608  0.4322 -0.0898
 2701TIP3   OH229593   1.954   1.778   4.045  0.1520 -0.3924 -0.0128
 2701TIP3    H129594   2.012   1.703   4.030  0.3392  0.0534 -1.8504
 2701TIP3    H229595   2.010   1.845   4.085  0.4427 -0.6050 -0.0627
 2702TIP3   OH229596   1.549   5.249   6.210 -0.2802  0.0736 -0.3834
 2702TIP3    H129597   1.505   5.172   6.176 -0.5306 -0.2351  0.5905
 2702TIP3    H229598   1.477   5.307   6.237 -0.1182  1.1821 -2.1956
 2703TIP3   OH229599   2.342   6.681   4.491  0.3948  0.5759 -0.0993
 2703TIP3    H129600   2.314   6.696   4.401 -0.1408 -0.9251 -0.2066
 2703TIP3    H229601   2.331   6.766   4.534  0.7935  1.3527 -1.4617
 2704TIP3   OH229602   0.971   5.596   5.467 -0.0637 -0.2520 -0.0899
 2704TIP3    H129603   0.998   5.617   5.377 -1.4052  0.7861 -0.2919
 2704TIP3    H229604   0.944   5.680   5.503 -0.0166 -0.7483  1.1287
 2705TIP3   OH229605   2.609   2.296   0.833  0.2303 -0.4183  0.2016
 2705TIP3    H129606   2.514   2.281   0.835 -0.0687  1.2292 -0.0908
 2705TIP3    H229607   2.632   2.308   0.925  0.5775 -2.9708  0.5038
 2706TIP3   OH229608   3.577   3.734   3.487  0.7229  0.6559 -0.4685
 2706TIP3    H129609   3.633   3.779   3.550 -1.1814  0.9544  1.1073
 2706TIP3    H229610   3.494   3.783   3.489  0.3941  0.2995 -2.7787
 2707TIP3   OH229611   1.240   0.156   6.694  0.4922 -0.3133  0.1552
 2707TIP3    H129612   1.314   0.168   6.753  1.8021  0.8084 -1.6204
 2707TIP3    H229613   1.182   0.231   6.712  1.7123  0.9937 -1.0493
 2708TIP3   OH229614   3.798   2.723  16.588 -1.3217  0.2772 -0.1289
 2708TIP3    H129615   3.865   2.660  16.615  0.7599  2.0737 -0.7667
 2708TIP3    H229616   3.727   2.669  16.553  0.5496 -1.7282 -1.1250
 2709TIP3   OH229617   3.217   6.632   6.306  0.0425  0.1435 -0.1579
 2709TIP3    H129618   3.302   6.650   6.347 -0.4532  1.0369  0.5112
 2709TIP3    H229619   3.196   6.542   6.333  0.2439  0.3295  0.6410
 2710TIP3   OH229620   3.784   2.400   0.881  0.2699  0.1764  0.0129
 2710TIP3    H129621   3.689   2.387   0.885  0.0711  0.6108 -2.0703
 2710TIP3    H229622   3.821   2.317   0.911 -0.8107 -0.7996 -1.2235
 2711TIP3   OH229623   2.663   5.851   4.661  0.3954 -0.2349  0.3398
 2711TIP3    H129624   2.665   5.946   4.652 -0.6203 -0.2424 -0.2096
 2711TIP3    H229625   2.732   5.819   4.603 -0.8584  0.0921 -1.4207
 2712TIP3   OH229626   2.662   0.131   3.385 -0.0981  0.3116  0.3972
 2712TIP3    H129627   2.732   0.115   3.448  1.1434  2.2592 -0.4034
 2712TIP3    H229628   2.670   0.060   3.322  1.0567  0.4118  0.4103
 2713TIP3   OH229629   0.697   5.406   2.774  0.1262 -0.1652  0.0755
 2713TIP3    H129630   0.627   5.368   2.721 -2.1689  0.4519  2.4454
 2713TIP3    H229631   0.673   5.498   2.782  2.0599  0.3943 -0.2311
 2714TIP3   OH229632   5.225   5.365  12.777  0.3681  0.8241  0.1872
 2714TIP3    H129633   5.194   5.436  12.833  2.0755  1.1886  0.7327
 2714TIP3    H229634   5.320   5.365  12.788  0.5953 -0.2544 -1.3620
 2715TIP3   OH229635   3.878   2.071  13.983  0.3385  0.5368 -0.1131
 2715TIP3    H129636   3.868   2.119  13.901 -0.0170 -0.3613 -0.6103
 2715TIP3    H229637   3.932   1.996  13.961 -0.8726 -0.4477  0.1451
 2716TIP3   OH229638   4.881   0.783   1.318 -1.2053 -0.0459  0.1214
 2716TIP3    H129639   4.948   0.778   1.386  0.9912 -0.4063 -1.9289
 2716TIP3    H229640   4.827   0.705   1.332  0.5336 -1.3103  0.2243
 2717TIP3   OH229641   5.683   4.625  15.466 -0.2797 -0.3241 -0.7459
 2717TIP3    H129642   5.608   4.578  15.502 -0.5025 -0.6653 -1.6146
 2717TIP3    H229643   5.669   4.716  15.489 -0.2158 -0.5824  0.3429
 2718TIP3   OH229644   6.530   1.646   5.830 -0.6134 -0.4481 -0.1671
 2718TIP3    H129645   6.539   1.658   5.924  0.3010  2.3855 -0.5383
 2718TIP3    H229646   6.557   1.555   5.816  0.5386 -0.5543  2.1570
 2719TIP3   OH229647   0.197   5.531   6.276 -0.0427  0.2639 -0.1365
 2719TIP3    H129648   0.172   5.512   6.186  1.9232  0.0559 -0.6790
 2719TIP3    H229649   0.142   5.473   6.329  0.1343 -1.0422 -1.3184
 2720TIP3   OH229650   0.875   4.345   2.781  0.2270  0.6145  0.1460
 2720TIP3    H129651   0.854   4.260   2.821  0.7133  0.9609  1.1624
 2720TIP3    H229652   0.921   4.322   2.700 -0.4303 -0.0927 -0.0474
 2721TIP3   OH229653   1.856   4.990   5.009  0.0085  0.2361 -0.4817
 2721TIP3    H129654   1.765   4.994   4.981 -0.1887 -0.7053 -0.0115
 2721TIP3    H229655   1.858   4.918   5.073  1.4200 -0.9188 -1.7662
 2722TIP3   OH229656   4.149   5.383  16.480 -0.2340  0.0338  0.0161
 2722TIP3    H129657   4.158   5.300  16.435 -0.3408 -0.2169  0.4522
 2722TIP3    H229658   4.055   5.390  16.499 -0.2067  0.1882  0.1030
 2723TIP3   OH229659   2.020   4.672   4.826  0.0094 -0.4940  0.2241
 2723TIP3    H129660   1.971   4.591   4.843  0.0442 -0.0611  2.7217
 2723TIP3    H229661   1.956   4.730   4.786 -1.0436 -0.6054  1.6538
 2724TIP3   OH229662   2.246   1.214   5.181 -0.1882  0.3582  0.6625
 2724TIP3    H129663   2.186   1.232   5.253  0.3805 -0.3205  1.3141
 2724TIP3    H229664   2.264   1.120   5.187 -0.8384  0.0927 -0.9133
 2725TIP3   OH229665   5.816   0.150  14.485 -0.0156 -0.0910  0.6699
 2725TIP3    H129666   5.869   0.174  14.561 -1.4912  1.1721  1.3764
 2725TIP3    H229667   5.871   0.170  14.409  1.0089 -0.1371  1.3909
 2726TIP3   OH229668   0.585   4.399  14.811 -0.8682 -0.6923  0.1967
 2726TIP3    H129669   0.659   4.437  14.764 -0.6423 -1.5423 -0.1654
 2726TIP3    H229670   0.557   4.467  14.872  0.5110 -0.5330  0.6767
 2727TIP3   OH229671   5.736   5.960  14.714  0.2110 -0.5486 -0.3875
 2727TIP3    H129672   5.710   6.011  14.791 -0.5066  0.7289 -1.4341
 2727TIP3    H229673   5.831   5.967  14.711  0.0974  1.5176 -0.9649
 2728TIP3   OH229674   0.983   6.816   2.036 -0.0712 -0.1939 -0.2743
 2728TIP3    H129675   0.953   6.765   1.961  2.5676  0.5555 -1.9807
 2728TIP3    H229676   1.076   6.794   2.044  0.2170  1.4211  1.4035
 2729TIP3   OH229677   5.446   5.305   3.626 -0.3978  0.0507  0.3622
 2729TIP3    H129678   5.535   5.296   3.662 -0.6448 -1.7092  0.6015
 2729TIP3    H229679   5.450   5.261   3.541 -1.1092 -0.3292  0.5149
 2730TIP3   OH229680   6.227   6.044   1.731  0.0979 -0.1974  0.0359
 2730TIP3    H129681   6.287   5.997   1.790 -0.1418 -0.7831 -0.1728
 2730TIP3    H229682   6.205   5.979   1.664  0.3812  0.4714 -0.7115
 2731TIP3   OH229683   4.190   0.143  16.446 -0.7941  0.1622 -0.4586
 2731TIP3    H129684   4.145   0.191  16.377  1.1796 -1.1320 -2.7994
 2731TIP3    H229685   4.215   0.060  16.406 -0.4314 -1.1036  2.1620
 2732TIP3   OH229686   1.101   2.975  13.279  0.4098 -0.3451  0.1030
 2732TIP3    H129687   1.081   3.014  13.364  0.3844 -0.6318  0.2298
 2732TIP3    H229688   1.106   2.881  13.296 -1.4129 -0.5994 -0.5447
 2733TIP3   OH229689   0.945   0.814  15.940 -0.2695  0.0060 -0.1225
 2733TIP3    H129690   0.991   0.768  16.011 -1.4351 -0.0932  0.6033
 2733TIP3    H229691   0.969   0.906  15.951 -1.3184  0.1577  1.1323
 2734TIP3   OH229692   3.242   4.969  16.692  0.6828 -0.1548  0.2865
 2734TIP3    H129693   3.332   4.943  16.713  1.0249  0.9929  0.2973
 2734TIP3    H229694   3.237   4.961  16.597  1.6283  2.2043 -0.0226
 2735TIP3   OH229695   1.973   0.689  16.366 -0.6357 -0.2241  0.1063
 2735TIP3    H129696   1.963   0.681  16.271 -2.1639  1.0558  0.1073
 2735TIP3    H229697   1.937   0.608  16.401 -0.6385 -0.4358 -0.3724
 2736TIP3   OH229698   5.278   3.806  16.381  0.6417 -0.5858 -0.0341
 2736TIP3    H129699   5.253   3.898  16.382 -1.6090 -1.1300 -0.4005
 2736TIP3    H229700   5.267   3.777  16.472 -1.0822 -1.0350 -0.3510
 2737TIP3   OH229701   1.869   5.471   0.359 -0.2044 -0.8576 -0.4172
 2737TIP3    H129702   1.963   5.488   0.352 -0.6408  1.8871 -0.6650
 2737TIP3    H229703   1.850   5.415   0.284  1.0788 -0.5792 -0.9882
 2738TIP3   OH229704   0.682   6.350  14.696 -0.6208 -0.0452 -0.3284
 2738TIP3    H129705   0.678   6.436  14.655 -2.6119 -1.0947 -2.5541
 2738TIP3    H229706   0.767   6.315  14.671 -0.4333  0.6688 -0.7116
 2739TIP3   OH229707   3.736   3.840   1.154  0.0170 -0.0830  0.0598
 2739TIP3    H129708   3.739   3.770   1.089  2.0933 -1.8040  1.8653
 2739TIP3    H229709   3.695   3.913   1.108  1.9824 -0.9361 -3.4064
 2740TIP3   OH229710   2.043   1.749  14.669  0.4994 -0.0903  0.2762
 2740TIP3    H129711   2.045   1.706  14.583  1.4740 -0.4047  0.4451
 2740TIP3    H229712   2.029   1.678  14.731  2.8747 -0.3236  0.6234
 2741TIP3   OH229713   1.205   6.541  10.143  0.0117  0.1678 -0.0451
 2741TIP3    H129714   1.242   6.500  10.065  1.7462 -0.7762  1.1907
 2741TIP3    H229715   1.256   6.622  10.154 -0.9215  0.8232 -0.4379
 2742TIP3   OH229716   5.672   5.836   5.396  0.5387 -0.2509 -0.2107
 2742TIP3    H129717   5.658   5.881   5.480  0.6068 -0.8650  0.1357
 2742TIP3    H229718   5.586   5.831   5.357  0.4279 -0.3903  0.0468
 2743TIP3   OH229719   1.423   4.720   2.916 -0.6940 -0.3426 -0.7286
 2743TIP3    H129720   1.432   4.639   2.865 -2.6364 -0.0909 -1.5575
 2743TIP3    H229721   1.332   4.720   2.945 -0.7332  1.5438 -0.7378
 2744TIP3   OH229722   3.941   5.220   5.051  0.0778  0.1129 -0.8703
 2744TIP3    H129723   3.946   5.312   5.077 -1.0335 -0.1960  0.5803
 2744TIP3    H229724   3.847   5.202   5.042  0.1215 -1.3886  0.9888
 2745TIP3   OH229725   3.301   5.765   5.738  0.2481 -0.2251 -0.1389
 2745TIP3    H129726   3.280   5.751   5.646  2.5318  0.0610 -0.7666
 2745TIP3    H229727   3.270   5.853   5.757  2.3133  0.8715 -1.5201
 2746TIP3   OH229728   4.799   0.014   1.992 -0.3819  0.2077 -0.2626
 2746TIP3    H129729   4.775   0.046   1.905  0.9224  1.0661 -0.3373
 2746TIP3    H229730   4.816   0.094   2.042 -0.6934 -0.2917  0.6576
 2747TIP3   OH229731   0.530   5.265   5.455 -0.7193 -0.1258 -0.0465
 2747TIP3    H129732   0.463   5.200   5.476  0.6747 -2.2057 -1.5010
 2747TIP3    H229733   0.605   5.240   5.509  0.3083 -0.6956 -1.6568
 2748TIP3   OH229734   0.783   1.090  12.971 -0.3327  0.2579  0.1886
 2748TIP3    H129735   0.754   1.068  13.059 -1.4641  0.1384 -0.2008
 2748TIP3    H229736   0.879   1.091  12.977 -0.3866 -0.0836  1.3303
 2749TIP3   OH229737   4.849   0.076   3.841 -0.0775  0.2952  0.1609
 2749TIP3    H129738   4.921   0.069   3.904 -1.4480  2.2603  2.1093
 2749TIP3    H229739   4.888   0.119   3.765  1.0037  0.6375  0.8788
 2750TIP3   OH229740   2.505   0.830  13.689 -0.4147  0.3471 -0.3263
 2750TIP3    H129741   2.548   0.892  13.630  1.0455  2.6385  2.7901
 2750TIP3    H229742   2.563   0.754  13.691 -1.3314 -0.5122 -2.9029
 2751TIP3   OH229743   6.629   2.843  15.662  0.3180 -0.1511  0.4209
 2751TIP3    H129744   6.720   2.815  15.654  0.6434  1.2139 -1.0995
 2751TIP3    H229745   6.586   2.809  15.583 -0.5004 -0.7475  1.1038
 2752TIP3   OH229746   1.839   4.087  13.509 -0.0538  0.0263  0.1156
 2752TIP3    H129747   1.925   4.128  13.504 -0.0906  0.0738 -0.1331
 2752TIP3    H229748   1.781   4.156  13.541  0.2005 -0.3072  1.3771
 2753TIP3   OH229749   2.883   0.345   5.517  0.1410  0.4619  0.2617
 2753TIP3    H129750   2.884   0.440   5.523 -0.5133  0.5594 -0.7976
 2753TIP3    H229751   2.954   0.316   5.574  1.2957  1.6566 -0.4975
 2754TIP3   OH229752   0.874   2.790  16.785  0.2607  0.6640 -0.7129
 2754TIP3    H129753   0.954   2.810  16.738  0.5966 -1.1515 -0.9806
 2754TIP3    H229754   0.864   2.695  16.777 -1.7711  0.8088 -0.4578
 2755TIP3   OH229755   6.822   0.493  15.807 -0.6980  0.1783  0.0257
 2755TIP3    H129756   6.775   0.423  15.852  1.1464 -0.7965  0.5286
 2755TIP3    H229757   6.772   0.572  15.827 -1.9183 -0.7527  0.7984
 2756TIP3   OH229758   5.110   4.632   4.214  0.0181  0.7770 -0.1990
 2756TIP3    H129759   5.115   4.726   4.197 -4.9964  1.5469  0.9307
 2756TIP3    H229760   5.046   4.599   4.152 -0.6444 -1.2268  1.4079
 2757TIP3   OH229761   3.764   6.749  16.555  0.5130  0.1214  0.5819
 2757TIP3    H129762   3.788   6.782  16.468 -1.1618 -1.7197 -0.6586
 2757TIP3    H229763   3.845   6.710  16.589  1.4771  1.8737  0.3855
 2758TIP3   OH229764   1.786   4.071   3.154 -0.0049  0.0875 -0.1243
 2758TIP3    H129765   1.735   4.148   3.177  1.1562  0.1775  2.4715
 2758TIP3    H229766   1.802   4.027   3.238  0.9870 -1.9495 -1.3074
 2759TIP3   OH229767   1.386   0.165  11.707 -0.2881  0.1433  0.4460
 2759TIP3    H129768   1.389   0.260  11.715  1.6056  0.1726 -0.1405
 2759TIP3    H229769   1.375   0.149  11.613  0.4448 -0.2027  0.4129
 2760TIP3   OH229770   5.412   5.531  15.743 -0.3934 -0.4512 -0.1008
 2760TIP3    H129771   5.387   5.572  15.826  0.4368  0.3902 -0.2472
 2760TIP3    H229772   5.329   5.508  15.702 -0.8917  0.8850  0.1069
 2761TIP3   OH229773   5.488   0.172   3.570  0.2234  0.2974  0.1249
 2761TIP3    H129774   5.401   0.170   3.529  0.4926  1.6198 -0.5563
 2761TIP3    H229775   5.549   0.163   3.497  0.6881 -1.5723  0.6895
 2762TIP3   OH229776   5.069   2.802   3.646  0.5993  0.3771  0.4901
 2762TIP3    H129777   4.978   2.773   3.643  0.8875 -0.5836  0.6749
 2762TIP3    H229778   5.095   2.789   3.738  0.5108  1.9809  0.7667
 2763TIP3   OH229779   0.474   3.523   5.379 -0.5179 -0.2905  0.5798
 2763TIP3    H129780   0.402   3.557   5.432 -1.2577 -1.5243  0.4219
 2763TIP3    H229781   0.442   3.528   5.289  0.4108  1.0351  0.3044
 2764TIP3   OH229782   1.148   6.504  16.563  0.2198  0.0404  0.0706
 2764TIP3    H129783   1.125   6.559  16.637  1.1812 -1.0200  1.1981
 2764TIP3    H229784   1.082   6.434  16.564 -0.6258  0.7828 -0.9817
 2765TIP3   OH229785   6.279   0.290  15.495  0.0674  0.0949 -0.1073
 2765TIP3    H129786   6.351   0.272  15.435 -0.0227  0.5147 -0.3459
 2765TIP3    H229787   6.207   0.237  15.462  0.2174 -0.1947  0.0305
 2766TIP3   OH229788   2.561   2.065   4.540  0.0154 -0.0007 -0.0921
 2766TIP3    H129789   2.611   1.987   4.563  0.2720  0.1250 -0.2182
 2766TIP3    H229790   2.581   2.079   4.447 -1.5008 -0.8739 -0.5796
 2767TIP3   OH229791   0.364   5.421   4.415  0.8083 -0.5856  0.4146
 2767TIP3    H129792   0.274   5.393   4.398  0.3435  0.5896  0.8409
 2767TIP3    H229793   0.417   5.367   4.356 -0.3201 -0.0988 -1.1226
 2768TIP3   OH229794   5.775   6.268   1.908 -0.0547  0.2350  0.2600
 2768TIP3    H129795   5.833   6.272   1.833 -0.9307 -0.2367 -0.4684
 2768TIP3    H229796   5.833   6.255   1.983  0.7821 -0.0037 -0.4139
 2769TIP3   OH229797   3.898   0.995   3.294  0.9054 -0.1867 -0.6151
 2769TIP3    H129798   3.885   0.955   3.208 -0.9920  0.4173 -0.6702
 2769TIP3    H229799   3.842   0.945   3.353  1.6882 -0.1890  0.1524
 2770TIP3   OH229800   3.333   6.716  15.721 -0.0877 -0.4173  0.5120
 2770TIP3    H129801   3.358   6.663  15.645 -0.0088 -0.1561  0.3536
 2770TIP3    H229802   3.360   6.805  15.698 -1.6157 -0.0296  0.1125
 2771TIP3   OH229803   5.810   6.714  14.338  0.2699 -0.6484  0.2188
 2771TIP3    H129804   5.809   6.738  14.246 -2.1796  0.8205  0.5282
 2771TIP3    H229805   5.890   6.754  14.373  0.4292  0.1034 -0.9693
 2772TIP3   OH229806   5.896   2.528  13.267  0.3696 -0.0659 -0.3789
 2772TIP3    H129807   5.906   2.495  13.178 -0.6033 -0.7828 -0.2374
 2772TIP3    H229808   5.892   2.623  13.257  1.5664 -0.0642 -0.9594
 2773TIP3   OH229809   0.614   3.191   3.873  0.0967 -0.2103 -0.1804
 2773TIP3    H129810   0.653   3.110   3.908 -1.0697  0.0408  1.8348
 2773TIP3    H229811   0.588   3.168   3.784  1.4771 -1.4672 -0.3112
 2774TIP3   OH229812   3.700   6.262  12.587  0.2953 -0.6612  0.3944
 2774TIP3    H129813   3.612   6.226  12.582  0.2046 -0.4580  0.5351
 2774TIP3    H229814   3.711   6.287  12.679  0.7988 -1.4495  0.5561
 2775TIP3   OH229815   0.262   0.502  16.208  0.2264  0.4978 -0.4432
 2775TIP3    H129816   0.293   0.542  16.127 -0.6695 -1.3813 -1.7695
 2775TIP3    H229817   0.177   0.542  16.223  0.5359  1.0901 -0.2216
 2776TIP3   OH229818   1.553   6.614  17.034  0.1515  0.0044  0.6564
 2776TIP3    H129819   1.623   6.582  17.090 -0.7987 -2.0414  0.7816
 2776TIP3    H229820   1.474   6.570  17.067 -0.9038  0.9321 -0.5212
 2777TIP3   OH229821   3.672   6.167  13.117 -0.2479  0.2857  0.6230
 2777TIP3    H129822   3.680   6.074  13.138 -2.6770  0.4015  2.5787
 2777TIP3    H229823   3.613   6.170  13.041  0.1337  0.2351  0.3211
 2778TIP3   OH229824   2.915   0.727  12.208  0.0722  0.7993 -0.3179
 2778TIP3    H129825   2.910   0.807  12.156 -0.2253  0.5837 -0.6225
 2778TIP3    H229826   2.953   0.662  12.149  1.0243  0.9067  0.1621
 2779TIP3   OH229827   5.275   6.657  11.248 -0.0272 -0.3186  0.6380
 2779TIP3    H129828   5.191   6.613  11.234 -0.3071  0.3835  0.0275
 2779TIP3    H229829   5.267   6.696  11.336 -0.8658  0.8288  0.0876
 2780TIP3   OH229830   0.687   4.560  14.513  0.1325 -0.1784  0.2973
 2780TIP3    H129831   0.640   4.640  14.532 -0.5817 -0.2025 -1.2190
 2780TIP3    H229832   0.778   4.588  14.500 -0.0859  0.3610 -0.0894
 2781TIP3   OH229833   4.821   0.946   0.363 -0.3688 -0.5704  0.1038
 2781TIP3    H129834   4.865   1.008   0.304 -0.7964 -1.0684 -0.7479
 2781TIP3    H229835   4.733   0.982   0.373 -0.3657 -0.6079  0.2653
 2782TIP3   OH229836   4.669   4.435   1.188 -0.1417 -0.6686  0.2920
 2782TIP3    H129837   4.655   4.526   1.163  0.7643 -0.2700  1.1550
 2782TIP3    H229838   4.592   4.389   1.156 -0.8888  0.5059  0.3537
 2783TIP3   OH229839   2.395   3.368   2.460 -0.2471 -0.0395 -0.3788
 2783TIP3    H129840   2.403   3.376   2.365  0.5198  1.4234 -0.2271
 2783TIP3    H229841   2.475   3.408   2.495 -0.5188 -0.5314  0.8798
 2784TIP3   OH229842   3.670   1.326  11.453 -0.2302  0.0223  0.4461
 2784TIP3    H129843   3.680   1.264  11.525  1.1066 -0.5020 -0.1535
 2784TIP3    H229844   3.731   1.294  11.385 -0.9281  0.8996 -0.6314
 2785TIP3   OH229845   6.389   0.111   5.071  0.2117  1.0090 -0.3945
 2785TIP3    H129846   6.318   0.159   5.028 -0.8581  0.6926  0.9718
 2785TIP3    H229847   6.391   0.145   5.160 -0.8768 -1.7090  0.7715
 2786TIP3   OH229848   3.482   3.343  13.212  0.1287 -0.1928 -0.3589
 2786TIP3    H129849   3.560   3.302  13.250  0.1392  0.3969  0.2708
 2786TIP3    H229850   3.416   3.338  13.281 -0.7296 -1.5932 -1.2268
 2787TIP3   OH229851   1.749   0.571  14.450  0.0221  0.4674  0.1279
 2787TIP3    H129852   1.815   0.514  14.412  0.2683  1.1056 -0.4243
 2787TIP3    H229853   1.693   0.596  14.377 -0.3868  0.5323  0.4561
 2788TIP3   OH229854   5.541   3.141   2.905  0.2755  0.4289 -0.3754
 2788TIP3    H129855   5.445   3.139   2.912  0.4075  0.4727  2.3874
 2788TIP3    H229856   5.566   3.048   2.902  0.2286  0.2459  2.2725
 2789TIP3   OH229857   6.385   0.056  16.595 -0.1334 -0.6826 -0.2291
 2789TIP3    H129858   6.390   0.152  16.599 -0.0270 -0.5951 -1.8070
 2789TIP3    H229859   6.405   0.027  16.684 -0.6247  0.7731  0.3816
 2790TIP3   OH229860   0.118   2.776   2.504  1.5242 -0.3479 -0.3560
 2790TIP3    H129861   0.199   2.806   2.545  1.1166 -0.6590  0.7406
 2790TIP3    H229862   0.051   2.787   2.572  0.7238 -0.4766 -1.0981
 2791TIP3   OH229863   5.783   4.943  12.924 -0.6940  0.1701  0.1380
 2791TIP3    H129864   5.828   4.883  12.864 -3.1480  0.7846 -2.5223
 2791TIP3    H229865   5.799   4.905  13.011  2.8126 -0.9160 -0.8182
 2792TIP3   OH229866   2.891   5.299  13.329  0.4384 -0.1504  0.2460
 2792TIP3    H129867   2.858   5.238  13.394  0.4040  0.9393  1.2771
 2792TIP3    H229868   2.920   5.243  13.257  1.4078 -1.4605  1.5900
 2793TIP3   OH229869   0.002   5.553  12.814 -0.1287  0.5096 -0.1500
 2793TIP3    H129870  -0.087   5.547  12.779 -0.3560 -0.6483  0.5620
 2793TIP3    H229871   0.054   5.592  12.743 -0.7588 -0.8394 -1.3856
 2794TIP3   OH229872   4.484   0.594   3.966 -0.5984 -0.6309  0.6789
 2794TIP3    H129873   4.410   0.598   3.906 -1.0292  0.9507  1.2616
 2794TIP3    H229874   4.492   0.502   3.989 -2.0869 -0.8829  0.2510
 2795TIP3   OH229875   2.693   0.879   4.618 -0.1287 -0.2021  0.5364
 2795TIP3    H129876   2.687   0.870   4.713  0.3206 -0.6120  0.5343
 2795TIP3    H229877   2.671   0.970   4.601  0.0462 -0.0567  1.0573
 2796TIP3   OH229878   3.050   2.839  13.831 -0.0270  0.7909 -0.1563
 2796TIP3    H129879   3.070   2.766  13.889 -1.8223  0.9013  0.6746
 2796TIP3    H229880   3.043   2.915  13.889 -3.4838  0.6255 -0.1160
 2797TIP3   OH229881   1.065   1.664   2.776  0.1550 -0.4463  0.1264
 2797TIP3    H129882   1.140   1.625   2.730 -0.1158  0.0405 -0.7547
 2797TIP3    H229883   1.020   1.715   2.709 -0.9025 -0.6316  0.6808
 2798TIP3   OH229884   3.024   3.974  11.889  0.0203  0.3527  0.2492
 2798TIP3    H129885   3.017   4.054  11.837 -0.4457 -0.3505 -0.8140
 2798TIP3    H229886   3.069   3.912  11.832  0.6811 -0.0476  1.1821
 2799TIP3   OH229887   1.842   5.457   3.737  0.6604  0.0385  0.2219
 2799TIP3    H129888   1.795   5.375   3.721  0.8638 -0.3860  1.6466
 2799TIP3    H229889   1.775   5.515   3.773  0.5270  0.4954 -0.7443
 2800TIP3   OH229890   4.150   1.232  13.200 -0.1813  0.0945 -0.0616
 2800TIP3    H129891   4.155   1.136  13.198  0.3405  0.1267 -0.8482
 2800TIP3    H229892   4.223   1.260  13.145  0.0034  0.9589  0.6141
 2801TIP3   OH229893   2.809   0.960   2.704  0.9668  0.2815 -0.3357
 2801TIP3    H129894   2.740   0.984   2.643  0.5357  0.5122  0.2351
 2801TIP3    H229895   2.814   1.033   2.765  0.5327 -0.4832  0.6445
 2802TIP3   OH229896   3.670   3.709   0.641 -0.0730 -0.0447  0.8996
 2802TIP3    H129897   3.599   3.717   0.577 -0.1423  0.2570  1.0121
 2802TIP3    H229898   3.697   3.617   0.636  0.5805  0.1801 -0.2698
 2803TIP3   OH229899   2.949   2.348   3.239  0.2580  0.1776 -0.1416
 2803TIP3    H129900   2.881   2.393   3.188  1.1499  1.0511 -0.6123
 2803TIP3    H229901   3.006   2.309   3.173  0.0518 -0.8201  0.2540
 2804TIP3   OH229902   1.973   0.600  15.050 -0.3203 -0.8523  0.6984
 2804TIP3    H129903   2.068   0.607  15.058 -0.2791 -0.8400  0.2031
 2804TIP3    H229904   1.956   0.603  14.956 -0.9841  1.2265  0.8507
 2805TIP3   OH229905   3.190   4.918   0.636  0.2748 -0.4264  0.3876
 2805TIP3    H129906   3.171   4.884   0.549  0.4740  0.0457  0.1540
 2805TIP3    H229907   3.159   5.008   0.634  2.1194  0.2573  0.1149
 2806TIP3   OH229908   2.437   1.151   0.745 -0.1025 -0.1475  0.9319
 2806TIP3    H129909   2.453   1.244   0.758  0.4258 -0.2004  0.6969
 2806TIP3    H229910   2.358   1.147   0.691 -0.1992  0.1577  1.0509
 2807TIP3   OH229911   6.858   0.698  11.011  0.2348  0.3967  0.4559
 2807TIP3    H129912   6.917   0.629  10.979  0.4479  0.1766  1.3128
 2807TIP3    H229913   6.830   0.743  10.931 -0.1705 -0.8786 -0.1503
 2808TIP3   OH229914   2.357   3.536  13.848 -0.4404 -0.3693 -0.1939
 2808TIP3    H129915   2.292   3.471  13.822 -0.6605 -0.5201  0.7020
 2808TIP3    H229916   2.433   3.517  13.792 -0.6252 -1.1698 -0.1870
 2809TIP3   OH229917   6.283   4.828  12.346 -0.2544 -0.0959  0.7482
 2809TIP3    H129918   6.275   4.764  12.275 -3.6039 -1.1390  1.8822
 2809TIP3    H229919   6.369   4.868  12.332  0.4039 -2.1749 -2.2239
 2810TIP3   OH229920   5.678   0.798  14.592 -1.0046  0.0630 -0.2963
 2810TIP3    H129921   5.731   0.878  14.586 -1.8598  0.9350  2.1817
 2810TIP3    H229922   5.601   0.825  14.643 -1.3200 -2.3450  0.6262
 2811TIP3   OH229923   6.577   1.227  15.750 -0.2946 -0.8239 -0.6132
 2811TIP3    H129924   6.551   1.230  15.658 -0.2133 -2.8966 -0.7384
 2811TIP3    H229925   6.670   1.250  15.748 -0.3572 -0.5809 -1.0039
 2812TIP3   OH229926   1.724   0.106  13.375  0.7987 -0.6135  0.3960
 2812TIP3    H129927   1.804   0.067  13.411  1.3320  1.6115  1.8148
 2812TIP3    H229928   1.691   0.162  13.445 -0.8531  0.1465 -0.9248
 2813TIP3   OH229929   1.176   0.794  16.507 -0.1142 -0.1181 -0.0987
 2813TIP3    H129930   1.140   0.828  16.425 -0.2970  0.0471  0.0481
 2813TIP3    H229931   1.104   0.803  16.570  0.1293  0.0559  0.1565
 2814TIP3   OH229932   3.779   3.097   3.731 -0.0030  0.4536 -0.0568
 2814TIP3    H129933   3.778   3.080   3.826  2.2454  0.5458  0.0460
 2814TIP3    H229934   3.742   3.184   3.722 -0.6356  0.2774  0.6737
 2815TIP3   OH229935   5.071   6.131   1.344  0.1775  0.2665 -0.3996
 2815TIP3    H129936   5.065   6.128   1.249  0.2224  0.9919 -0.4320
 2815TIP3    H229937   5.135   6.200   1.362  1.1589 -0.7480  0.1299
 2816TIP3   OH229938   5.160   3.028   2.942 -0.1101  0.3658 -0.0793
 2816TIP3    H129939   5.074   3.058   2.911 -0.0729 -0.7608 -1.3320
 2816TIP3    H229940   5.214   3.107   2.939 -0.8787  0.9158 -0.0513
 2817TIP3   OH229941   1.543   3.857   1.512 -0.5623 -0.0937  0.0769
 2817TIP3    H129942   1.622   3.880   1.464 -0.4041  1.9673  1.2114
 2817TIP3    H229943   1.523   3.767   1.484  2.5415 -0.9447  0.2614
 2818TIP3   OH229944   0.672   0.609  11.671 -0.4395 -0.2597  0.3168
 2818TIP3    H129945   0.715   0.523  11.674  1.2146  0.5693  2.8623
 2818TIP3    H229946   0.609   0.601  11.598  0.1703 -3.3467 -0.0181
 2819TIP3   OH229947   3.092   4.615   3.042  0.6008 -0.7373  0.6704
 2819TIP3    H129948   3.116   4.620   2.950  1.4415  0.5704  0.9328
 2819TIP3    H229949   2.996   4.615   3.042  0.5734 -2.0247 -0.2306
 2820TIP3   OH229950   1.956   2.308  16.963  0.6114 -0.2946  0.1660
 2820TIP3    H129951   1.976   2.387  17.013  1.9408 -1.2694  1.2492
 2820TIP3    H229952   1.893   2.261  17.017 -0.3797  0.1220 -0.6005
 2821TIP3   OH229953   5.543   6.215  15.793  0.0125 -0.5185  0.0799
 2821TIP3    H129954   5.470   6.259  15.837  0.8811  0.3511  0.6871
 2821TIP3    H229955   5.598   6.182  15.864  0.3409 -0.9666 -0.3705
 2822TIP3   OH229956   0.181   0.902  12.862 -0.0562  0.0681 -0.2151
 2822TIP3    H129957   0.273   0.888  12.885 -0.0900 -0.8343 -0.5912
 2822TIP3    H229958   0.141   0.937  12.941  0.4675 -0.1670  0.1573
 2823TIP3   OH229959   1.159   1.174   1.491  0.3048 -0.3438  0.4968
 2823TIP3    H129960   1.220   1.247   1.483  0.6393 -0.6213  0.4880
 2823TIP3    H229961   1.116   1.188   1.576  0.2008 -0.0109  0.3875
 2824TIP3   OH229962   3.965   3.483   3.668 -0.1288  0.2555 -0.8765
 2824TIP3    H129963   3.889   3.434   3.700  1.6290 -2.3597 -0.4234
 2824TIP3    H229964   3.948   3.493   3.574 -0.6832 -0.9981 -0.9343
 2825TIP3   OH229965   4.042   4.006  11.957  0.4604 -0.2408 -0.0318
 2825TIP3    H129966   4.123   4.049  11.930 -0.0275  0.4704 -0.3791
 2825TIP3    H229967   4.054   3.988  12.050  0.1891  1.7893  0.4379
 2826TIP3   OH229968   2.867   6.149  11.420 -0.1348 -0.1882  0.0929
 2826TIP3    H129969   2.904   6.211  11.357 -0.9186  1.0676  0.8236
 2826TIP3    H229970   2.774   6.169  11.421 -0.1548 -0.2520  1.5510
 2827TIP3   OH229971   6.771   5.074   0.691 -0.0522  0.7490  0.3563
 2827TIP3    H129972   6.770   5.026   0.608 -0.0758 -0.2523  0.9139
 2827TIP3    H229973   6.864   5.089   0.709  0.0143 -0.0068  0.6802
 2828TIP3   OH229974   2.259   3.292  16.594  0.0647 -0.1432  0.0912
 2828TIP3    H129975   2.271   3.335  16.678  1.7978  0.2208 -0.2927
 2828TIP3    H229976   2.196   3.347  16.547  2.1583  2.0613 -0.3556
 2829TIP3   OH229977   0.965   3.733  10.424 -0.1795  0.3612  0.1374
 2829TIP3    H129978   0.914   3.652  10.433 -0.4996  0.3489 -1.4792
 2829TIP3    H229979   0.940   3.768  10.338  2.9481  0.0303 -1.0490
 2830TIP3   OH229980   5.338   5.125   5.431 -0.2231 -0.6041 -0.1609
 2830TIP3    H129981   5.335   5.051   5.492 -2.8321 -1.0856 -0.7552
 2830TIP3    H229982   5.331   5.203   5.486 -0.1266 -0.9267  0.3121
 2831TIP3   OH229983   1.900   3.766   3.523  0.1082  0.4861 -0.5433
 2831TIP3    H129984   1.866   3.714   3.451 -3.1916  1.0710  0.4483
 2831TIP3    H229985   1.882   3.857   3.499  1.2862  0.8817 -0.0539
 2832TIP3   OH229986   0.093   0.699  12.702 -1.0206  0.0187  0.3507
 2832TIP3    H129987   0.005   0.736  12.712 -1.8195 -2.0872  1.9129
 2832TIP3    H229988   0.147   0.747  12.765 -1.4036  0.3630  0.4203
 2833TIP3   OH229989   0.254   1.462   1.815  0.7969 -0.4431  0.2817
 2833TIP3    H129990   0.234   1.519   1.890 -1.3367 -0.9209  0.1542
 2833TIP3    H229991   0.223   1.375   1.843  0.8981 -0.8312 -0.7796
 2834TIP3   OH229992   6.477   5.162  10.772  0.4057 -0.1671 -0.0349
 2834TIP3    H129993   6.430   5.231  10.727  0.3024 -0.8313 -0.9732
 2834TIP3    H229994   6.410   5.099  10.798  0.6709 -0.7517 -0.7205
 2835TIP3   OH229995   0.995   5.049   4.878  0.4912  0.0889  0.1558
 2835TIP3    H129996   0.984   4.988   4.952 -0.7448 -1.5367 -1.2760
 2835TIP3    H229997   0.912   5.043   4.831  0.3653  2.8785 -0.1118
 2836TIP3   OH229998   2.950   5.640  12.373 -0.1437  0.6215  0.2355
 2836TIP3    H129999   3.001   5.709  12.416  0.5661 -0.0403  0.4804
 2836TIP3    H230000   2.963   5.655  12.280  0.4386  0.5179  0.2958
 2837TIP3   OH230001   1.577   5.840  14.370  0.3677  0.1593  0.3146
 2837TIP3    H130002   1.505   5.869  14.313 -0.4442 -1.7988  0.2601
 2837TIP3    H230003   1.639   5.913  14.369 -1.8414  2.1974  0.8230
 2838TIP3   OH230004   1.942   3.061   3.559 -0.3022 -0.0919  0.1431
 2838TIP3    H130005   2.034   3.047   3.583 -0.3954 -0.8623  0.0905
 2838TIP3    H230006   1.918   3.143   3.600  0.6600  0.5585 -0.5554
 2839TIP3   OH230007   6.535   1.821  16.271  0.1292  0.1725 -0.0924
 2839TIP3    H130008   6.450   1.862  16.287  1.5159  2.0422  3.6781
 2839TIP3    H230009   6.596   1.895  16.261  1.7821 -1.0312  0.5938
 2840TIP3   OH230010   5.677   0.301   4.039 -0.1251 -0.2419  0.1740
 2840TIP3    H130011   5.602   0.240   4.041 -0.5379  0.2703  1.8932
 2840TIP3    H230012   5.753   0.245   4.053 -0.4176 -0.4765  0.8618
 2841TIP3   OH230013   5.301   0.972   1.674  0.3443 -0.0676  0.1543
 2841TIP3    H130014   5.299   0.991   1.580  0.4425  2.0325  0.5437
 2841TIP3    H230015   5.272   0.880   1.680 -2.6487  0.6013 -1.7000
 2842TIP3   OH230016   2.114   4.062   1.852  0.2704 -0.2828 -0.1253
 2842TIP3    H130017   2.089   3.970   1.845 -0.1358 -0.3987  2.1827
 2842TIP3    H230018   2.092   4.099   1.767  1.9968 -2.6388 -1.7144
 2843TIP3   OH230019   2.637   1.887  13.468  0.5485 -0.1915 -0.3061
 2843TIP3    H130020   2.579   1.897  13.544  4.3046  2.5150  2.6027
 2843TIP3    H230021   2.593   1.934  13.397 -3.3398 -3.2102 -0.2700
 2844TIP3   OH230022   5.629   6.598   5.314 -0.3131  0.4659  0.6233
 2844TIP3    H130023   5.583   6.674   5.348 -0.7579  0.2300  0.5552
 2844TIP3    H230024   5.718   6.629   5.297 -0.4417  0.9182  0.7702
 2845TIP3   OH230025   2.691   1.426   5.355  0.1672 -0.5451 -0.6998
 2845TIP3    H130026   2.640   1.426   5.274  0.3132  3.5527 -0.9807
 2845TIP3    H230027   2.782   1.434   5.327  0.1671  1.7806 -0.2566
 2846TIP3   OH230028   0.624   2.199  14.049  0.0625  0.3314  0.1509
 2846TIP3    H130029   0.529   2.195  14.060  0.0692 -0.7321 -0.0359
 2846TIP3    H230030   0.641   2.286  14.013 -0.7783  0.7516  0.7497
 2847TIP3   OH230031   2.568   5.978  10.674 -0.7894  0.5311 -0.4590
 2847TIP3    H130032   2.479   5.976  10.708 -1.1155 -0.0783 -1.3156
 2847TIP3    H230033   2.583   5.890  10.639 -0.1260  0.8401 -0.9948
 2848TIP3   OH230034   1.533   5.988   1.884 -0.0615 -0.1475 -0.4755
 2848TIP3    H130035   1.604   5.979   1.821 -0.4597  1.1991 -1.1707
 2848TIP3    H230036   1.573   5.973   1.969  1.9126  3.7392 -0.4759
 2849TIP3   OH230037   3.677   6.090   0.036 -0.2362 -0.0892 -0.1698
 2849TIP3    H130038   3.680   6.026  -0.035  1.7119  1.3348 -1.4857
 2849TIP3    H230039   3.583   6.107   0.048 -0.6584 -0.5803 -2.2446
 2850TIP3   OH230040   1.854   3.633  11.026  0.4713  0.2646 -0.1304
 2850TIP3    H130041   1.826   3.572  10.957 -0.1078  1.0461 -0.5960
 2850TIP3    H230042   1.862   3.717  10.982  1.0568  0.5812  0.5588
 2851TIP3   OH230043   6.548   6.573   1.236  0.0690  0.2932  0.7506
 2851TIP3    H130044   6.566   6.630   1.161  1.8884  2.2624  2.5723
 2851TIP3    H230045   6.606   6.498   1.223  0.8155  0.9063  0.4743
 2852TIP3   OH230046   3.807   5.705  15.888  0.5221 -0.0828 -0.0501
 2852TIP3    H130047   3.815   5.762  15.965 -0.9389  0.6223 -0.3922
 2852TIP3    H230048   3.745   5.751  15.831 -0.1200 -1.6760 -0.6637
 2853TIP3   OH230049   2.616   1.754  15.439 -0.1674  0.5319  0.4508
 2853TIP3    H130050   2.613   1.772  15.345  3.6463 -0.6704 -0.0744
 2853TIP3    H230051   2.668   1.674  15.446  0.6906  1.2325  3.6679
 2854TIP3   OH230052   2.930   5.097  13.734 -0.2390  0.1639 -0.2042
 2854TIP3    H130053   2.997   5.113  13.667 -0.5670 -0.3206 -0.6619
 2854TIP3    H230054   2.893   5.184  13.751  0.1486  0.3569 -0.3286
 2855TIP3   OH230055   6.813   1.178   0.246  0.1044 -0.2471 -0.3733
 2855TIP3    H130056   6.738   1.236   0.246 -1.0793 -1.7178  0.1608
 2855TIP3    H230057   6.828   1.158   0.153  0.4289  0.7449 -0.5464
 2856TIP3   OH230058   6.167   4.046   1.502 -0.1801 -0.2142  0.0378
 2856TIP3    H130059   6.255   4.080   1.484  0.3301 -1.8310 -0.7060
 2856TIP3    H230060   6.124   4.047   1.416 -1.4875  2.0529  0.6420
 2857TIP3   OH230061   2.281   0.559  13.004 -0.2664 -0.5203  0.2534
 2857TIP3    H130062   2.296   0.477  13.051  1.3779 -0.3380  0.0736
 2857TIP3    H230063   2.332   0.551  12.924  1.1968  1.2728  0.9329
 2858TIP3   OH230064   2.399   1.991  11.466 -0.7201 -0.6128  0.0195
 2858TIP3    H130065   2.432   1.929  11.531  0.9832  0.0462 -0.1551
 2858TIP3    H230066   2.306   2.000  11.485 -1.1538 -3.5971 -0.2664
 2859TIP3   OH230067   1.162   5.237  14.888  0.2801 -0.0514 -0.3128
 2859TIP3    H130068   1.202   5.313  14.930  0.2681 -0.1739 -0.0836
 2859TIP3    H230069   1.221   5.164  14.909  0.3619 -0.0831 -0.6411
 2860TIP3   OH230070   3.397   4.206   1.347 -0.4132  0.0438  0.6728
 2860TIP3    H130071   3.410   4.128   1.401 -0.7077 -1.5087 -1.3652
 2860TIP3    H230072   3.335   4.259   1.396 -1.3413 -1.6915  1.4921
 2861TIP3   OH230073   2.893   1.642   2.937  0.2793 -0.6876  0.0265
 2861TIP3    H130074   2.798   1.648   2.951  0.5423  2.3459  1.2577
 2861TIP3    H230075   2.906   1.554   2.902 -2.8070 -1.7546  1.1751
 2862TIP3   OH230076   3.266   0.203   5.855  0.1112 -0.2163  0.6599
 2862TIP3    H130077   3.357   0.208   5.828  0.2503 -0.6836  1.0290
 2862TIP3    H230078   3.258   0.268   5.926 -0.4060  1.4656 -0.8619
 2863TIP3   OH230079   0.780   0.543  15.985  0.0442  0.1259  0.1723
 2863TIP3    H130080   0.822   0.623  15.954 -0.7672  0.3798 -0.2914
 2863TIP3    H230081   0.729   0.571  16.061 -0.3770  0.0927 -0.0922
 2864TIP3   OH230082   5.727   6.773  15.644  0.0390  0.2426 -0.4806
 2864TIP3    H130083   5.654   6.720  15.610  0.1086  1.6327 -3.0723
 2864TIP3    H230084   5.686   6.837  15.701 -0.4485 -0.4912  0.0091
 2865TIP3   OH230085   5.467   6.252  16.107  0.3309 -0.1313  0.5566
 2865TIP3    H130086   5.540   6.193  16.092 -1.4029 -2.5112  0.8155
 2865TIP3    H230087   5.506   6.331  16.144  2.9931 -0.2105 -1.8114
 2866TIP3   OH230088   3.587   0.798  11.675  0.3812  0.3679 -0.0575
 2866TIP3    H130089   3.493   0.785  11.672  0.3596  0.4917  0.0518
 2866TIP3    H230090   3.622   0.718  11.714  0.3927  0.0068 -0.7902
 2867TIP3   OH230091   5.277   0.790   2.136  0.4816  0.6527 -0.4892
 2867TIP3    H130092   5.191   0.754   2.160  0.6422  0.0385 -0.8257
 2867TIP3    H230093   5.321   0.719   2.090  2.5917 -0.3791  2.7752
 2868TIP3   OH230094   1.205   1.533   3.619 -0.5100 -0.1573  0.0794
 2868TIP3    H130095   1.210   1.445   3.580 -1.6619 -0.3646  0.3578
 2868TIP3    H230096   1.111   1.549   3.628 -0.2891  0.7643  0.8181
 2869TIP3   OH230097   2.181   4.781   5.034 -0.0775 -0.5176 -0.2199
 2869TIP3    H130098   2.124   4.747   4.966  0.5588 -1.8164 -0.1354
 2869TIP3    H230099   2.181   4.713   5.101 -0.3732  0.5537  0.9141
 2870TIP3   OH230100   6.011   2.630   1.120  0.4597 -0.0121 -0.4806
 2870TIP3    H130101   6.034   2.716   1.084  0.8919 -0.0499 -0.2979
 2870TIP3    H230102   5.940   2.599   1.064  1.9113 -0.6031 -2.0843
 2871TIP3   OH230103   2.742   3.346   4.983 -0.4762  0.0171 -0.6797
 2871TIP3    H130104   2.806   3.418   4.987 -0.4279  0.0319 -1.5742
 2871TIP3    H230105   2.680   3.366   5.053 -0.4579  0.9284 -0.9050
 2872TIP3   OH230106   0.861   5.909   2.014  0.6086 -0.5563 -0.3700
 2872TIP3    H130107   0.935   5.910   2.075  2.0675 -0.7945 -2.0580
 2872TIP3    H230108   0.857   5.998   1.979 -2.4545  0.6231  2.5116
 2873TIP3   OH230109   2.527   2.433  11.196  0.4192  0.3325 -0.2235
 2873TIP3    H130110   2.463   2.482  11.248  0.1224  0.7647 -0.9751
 2873TIP3    H230111   2.530   2.347  11.236 -0.7813  0.2433 -0.2930
 2874TIP3   OH230112   5.734   5.437  15.732  0.4205  0.0846  0.0149
 2874TIP3    H130113   5.709   5.373  15.799 -0.9566  0.1197 -0.4467
 2874TIP3    H230114   5.706   5.521  15.769  1.7128  0.3910  0.3665
 2875TIP3   OH230115   5.868   1.787   0.757  0.0086 -0.1350  0.1416
 2875TIP3    H130116   5.925   1.740   0.816  0.6299 -0.0371 -0.3729
 2875TIP3    H230117   5.835   1.861   0.809  0.0053 -0.4343  0.5660
 2876TIP3   OH230118   2.597   3.566  14.276 -0.1106 -0.3423  0.1101
 2876TIP3    H130119   2.647   3.512  14.215 -0.9881 -0.4919 -0.4981
 2876TIP3    H230120   2.565   3.640  14.223 -1.3297 -0.7519  0.2359
 2877TIP3   OH230121   6.079   5.598  15.915 -0.4587 -0.1081 -0.5129
 2877TIP3    H130122   6.050   5.509  15.934  2.9423 -1.3635 -0.5102
 2877TIP3    H230123   6.130   5.590  15.834  0.6029  1.6655 -0.0800
 2878TIP3   OH230124   5.129   5.796   4.787  0.3728  0.1123  0.2469
 2878TIP3    H130125   5.172   5.764   4.866  0.0265 -1.0292 -0.0039
 2878TIP3    H230126   5.089   5.718   4.748 -0.1021  0.7816 -0.6548
 2879TIP3   OH230127   6.840   0.163   6.492 -0.4729 -0.7713  0.0518
 2879TIP3    H130128   6.874   0.133   6.408 -1.5784 -1.7827 -0.0776
 2879TIP3    H230129   6.851   0.088   6.550  1.1987  0.2508  1.1143
 2880TIP3   OH230130   4.373   3.311  11.457 -0.2829  0.9030  0.2869
 2880TIP3    H130131   4.327   3.387  11.422  1.8309  1.2081 -2.0856
 2880TIP3    H230132   4.365   3.245  11.389  1.8097  0.6027  0.2738
 2881TIP3   OH230133   5.863   1.014  15.506 -0.4635 -0.1731 -0.4008
 2881TIP3    H130134   5.944   0.991  15.551 -0.7118  0.4270  0.3890
 2881TIP3    H230135   5.822   1.079  15.563 -1.8367 -0.9669 -0.4232
 2882TIP3   OH230136   0.199   0.251  13.709  0.3240 -0.7198  0.0090
 2882TIP3    H130137   0.210   0.323  13.647  2.4584 -0.0084  1.1116
 2882TIP3    H230138   0.272   0.261  13.771 -1.0093 -2.1092  1.9292
 2883TIP3   OH230139   2.940   1.620  11.721 -0.4663  0.1506  0.1828
 2883TIP3    H130140   2.968   1.615  11.813 -0.0649  1.0185  0.1229
 2883TIP3    H230141   2.849   1.590  11.722  0.1607 -1.8814  0.5225
 2884TIP3   OH230142   2.897   5.232   2.731  0.8272 -0.8524  1.2340
 2884TIP3    H130143   2.805   5.206   2.736  0.7888 -1.0498 -0.2541
 2884TIP3    H230144   2.904   5.305   2.793 -1.0493  1.2084 -0.8169
 2885TIP3   OH230145   1.380   0.875   6.248  0.2550 -0.4171 -0.1076
 2885TIP3    H130146   1.456   0.827   6.217 -0.0458 -1.9891  1.4165
 2885TIP3    H230147   1.329   0.894   6.169  0.3128 -2.8119 -0.7987
 2886TIP3   OH230148   5.785   5.784  10.829  0.2012 -0.7194  0.0343
 2886TIP3    H130149   5.719   5.838  10.873  1.4793  1.0187 -0.0838
 2886TIP3    H230150   5.743   5.699  10.820 -2.3643  0.5060 -0.7810
 2887TIP3   OH230151   0.241   3.409  13.897 -0.0486  0.1498  0.0297
 2887TIP3    H130152   0.283   3.338  13.945  1.3119  0.7377 -0.2413
 2887TIP3    H230153   0.312   3.448  13.845 -1.8352 -2.6223 -5.3437
 2888TIP3   OH230154   0.559   0.818   4.483 -0.2179  0.4614 -0.3347
 2888TIP3    H130155   0.467   0.843   4.474 -0.3552 -0.3611 -1.3459
 2888TIP3    H230156   0.561   0.767   4.564 -0.9964 -0.9645 -1.1847
 2889TIP3   OH230157   3.119   5.857  14.349 -0.3675 -0.2049 -0.3238
 2889TIP3    H130158   3.091   5.871  14.259  0.0173 -0.8958 -0.5511
 2889TIP3    H230159   3.200   5.807  14.342 -0.7427 -0.9426  0.4249
 2890TIP3   OH230160   0.490   2.894  13.232  0.0450  0.3161  0.1696
 2890TIP3    H130161   0.398   2.917  13.217  0.3979  0.0790 -3.1837
 2890TIP3    H230162   0.490   2.798  13.239  0.1145  0.2292 -0.8923
 2891TIP3   OH230163   6.003   0.927   3.381  0.1162 -0.5111  0.0864
 2891TIP3    H130164   5.981   0.990   3.313  0.2353 -0.5329  0.0267
 2891TIP3    H230165   5.928   0.867   3.383 -0.5835  0.3652  1.0306
 2892TIP3   OH230166   3.612   0.698   1.340 -0.0502 -0.5680 -0.5847
 2892TIP3    H130167   3.553   0.640   1.290 -0.7089  0.5567 -1.1539
 2892TIP3    H230168   3.686   0.642   1.363 -0.4657 -1.5330 -1.4862
 2893TIP3   OH230169   6.590   2.840  14.703 -0.0933  0.2106  0.1674
 2893TIP3    H130170   6.658   2.810  14.643  0.0796 -0.5303  0.7145
 2893TIP3    H230171   6.637   2.862  14.783 -0.1402  2.4792 -0.3539
 2894TIP3   OH230172   4.487   4.188   3.566  0.1190 -0.4120  0.3618
 2894TIP3    H130173   4.549   4.134   3.615 -0.5603  0.0291  1.7669
 2894TIP3    H230174   4.542   4.250   3.517  0.8307 -1.1734  0.1841
 2895TIP3   OH230175   0.289   6.742  12.944 -0.7378  0.0966 -0.4394
 2895TIP3    H130176   0.340   6.823  12.938  0.3232 -0.5851 -1.0094
 2895TIP3    H230177   0.339   6.687  13.005 -0.2937 -0.9202 -1.6879
 2896TIP3   OH230178   2.693   2.775   2.871 -0.1588  0.1119  0.6307
 2896TIP3    H130179   2.743   2.765   2.952 -0.2916 -0.7426  0.6122
 2896TIP3    H230180   2.748   2.833   2.817 -0.1304  0.7967  1.3634
 2897TIP3   OH230181   5.069   2.551  11.587 -0.2010  0.0735  0.1485
 2897TIP3    H130182   5.148   2.604  11.582 -0.3985  0.2718 -1.5499
 2897TIP3    H230183   5.030   2.573  11.672 -0.3168  2.7377 -0.5051
 2898TIP3   OH230184   6.516   0.613   3.316 -0.2176  0.7156 -0.9346
 2898TIP3    H130185   6.581   0.664   3.268  2.1263 -2.0532 -0.9632
 2898TIP3    H230186   6.559   0.589   3.398 -1.4008 -0.8222 -0.7175
 2899TIP3   OH230187   1.341   0.230  12.093 -0.2266 -0.3989  0.2964
 2899TIP3    H130188   1.426   0.190  12.076 -0.8053 -1.4594 -0.1759
 2899TIP3    H230189   1.356   0.324  12.080  1.3242 -0.3385  2.1285
 2900TIP3   OH230190   5.262   2.341  11.512 -0.4891  0.2635 -0.3963
 2900TIP3    H130191   5.240   2.355  11.420  0.6245 -1.4948 -0.9816
 2900TIP3    H230192   5.280   2.429  11.546  0.7394  0.8252 -2.3082
 2901TIP3   OH230193   5.543   4.777   1.445  0.0800  0.6960  0.0075
 2901TIP3    H130194   5.513   4.816   1.364  1.7161  0.9286 -0.5351
 2901TIP3    H230195   5.589   4.847   1.491 -0.8449  0.5727  1.1543
 2902TIP3   OH230196   3.846   1.205  14.238  0.2449  0.1347 -0.0008
 2902TIP3    H130197   3.938   1.231  14.241 -0.0434  1.0884  1.5410
 2902TIP3    H230198   3.801   1.272  14.288 -1.0710 -1.2375  0.7140
 2903TIP3   OH230199   3.027   1.898  11.796 -0.3776  0.4985 -0.1824
 2903TIP3    H130200   2.975   1.862  11.867  0.7718 -0.5277  0.1852
 2903TIP3    H230201   3.033   1.826  11.732 -1.0406  1.2610 -1.1314
 2904TIP3   OH230202   5.961   2.866  14.414  0.0620  0.4483  0.4689
 2904TIP3    H130203   5.945   2.779  14.377 -0.9207  0.4298  0.8955
 2904TIP3    H230204   6.048   2.859  14.454 -0.5578 -0.8007  1.7219
 2905TIP3   OH230205   1.132   2.241   4.602 -0.0129 -0.3120 -0.2149
 2905TIP3    H130206   1.055   2.197   4.639  0.2254 -0.1353  0.5065
 2905TIP3    H230207   1.199   2.172   4.599 -0.0537 -0.3448 -0.3950
 2906TIP3   OH230208   3.171   2.338   6.180 -0.2421  0.0660  0.2093
 2906TIP3    H130209   3.264   2.326   6.197 -0.2420 -0.3412 -0.0630
 2906TIP3    H230210   3.159   2.433   6.174 -0.1542  0.2377  1.9871
 2907TIP3   OH230211   1.200   5.305  11.299  0.4087 -0.1614 -0.5124
 2907TIP3    H130212   1.146   5.320  11.221 -1.5927 -0.3497  0.7712
 2907TIP3    H230213   1.273   5.253  11.267 -0.5076 -0.4856 -2.2267
 2908TIP3   OH230214   0.666   0.744  14.615  0.0872 -0.0501 -0.7718
 2908TIP3    H130215   0.694   0.771  14.528  0.9954  2.2066  0.1377
 2908TIP3    H230216   0.584   0.791  14.630  0.9429  1.1602  0.2979
 2909TIP3   OH230217   3.251   4.387  10.763 -0.3359  0.1834  0.0703
 2909TIP3    H130218   3.252   4.397  10.859  0.5053  1.6564 -0.0546
 2909TIP3    H230219   3.174   4.333  10.745 -1.9715  1.9432  1.3999
 2910TIP3   OH230220   6.418   1.928  10.578 -0.1376  0.0837 -1.1274
 2910TIP3    H130221   6.331   1.898  10.553 -0.7742  0.4464  0.4819
 2910TIP3    H230222   6.401   2.005  10.632  1.0366 -0.9955  0.8947
 2911TIP3   OH230223   5.533   2.495  14.687  0.2242 -0.0896  0.0675
 2911TIP3    H130224   5.563   2.480  14.776  0.3138 -1.5028 -0.1810
 2911TIP3    H230225   5.438   2.485  14.692  0.2223 -0.0962  0.0186
 2912TIP3   OH230226   1.368   0.895   3.611  0.2175  0.0865 -0.0165
 2912TIP3    H130227   1.435   0.839   3.652 -0.6996 -0.8616  0.2376
 2912TIP3    H230228   1.373   0.978   3.659 -0.6009 -0.8818  1.8463
 2913TIP3   OH230229   5.225   5.708   2.021 -0.6035 -0.3203 -0.1212
 2913TIP3    H130230   5.302   5.653   2.032  0.1779  0.6662 -0.5441
 2913TIP3    H230231   5.179   5.702   2.105 -1.6962 -3.2596 -0.7947
 2914TIP3   OH230232   6.255   3.430   3.876 -0.8298 -0.2677 -0.8476
 2914TIP3    H130233   6.315   3.465   3.810  0.6954 -3.1723 -1.1735
 2914TIP3    H230234   6.236   3.341   3.846 -3.3163 -0.3070  0.6165
 2915TIP3   OH230235   6.344   3.200  15.812  0.2338  0.1219 -0.0783
 2915TIP3    H130236   6.428   3.229  15.775  0.3142 -0.3662 -0.2750
 2915TIP3    H230237   6.365   3.118  15.857  0.0417  0.4549  0.6376
 2916TIP3   OH230238   4.598   1.722  14.690 -0.2422  0.3119 -0.3532
 2916TIP3    H130239   4.654   1.794  14.664  1.5109 -0.3476  1.3884
 2916TIP3    H230240   4.654   1.644  14.686 -0.4453 -0.1483  3.0011
 2917TIP3   OH230241   0.632   2.708  15.065 -0.1566 -0.3866  0.0844
 2917TIP3    H130242   0.557   2.652  15.047  1.2209 -1.9183 -1.1439
 2917TIP3    H230243   0.670   2.673  15.145  0.1503 -0.5890 -0.1512
 2918TIP3   OH230244   3.498   1.820   3.365  0.3253  0.0345 -0.4824
 2918TIP3    H130245   3.533   1.746   3.316  0.7092 -1.9805  2.5719
 2918TIP3    H230246   3.405   1.823   3.341  0.3934 -1.1706 -0.9659
 2919TIP3   OH230247   1.359   4.091  11.279 -0.0156 -0.0512  0.2888
 2919TIP3    H130248   1.332   4.182  11.265  2.6697  1.2974  2.8006
 2919TIP3    H230249   1.439   4.082  11.229 -1.5551 -1.9873 -2.0310
 2920TIP3   OH230250   3.266   2.543  11.100 -0.2353  0.2018 -0.4098
 2920TIP3    H130251   3.258   2.532  11.005 -1.2163  0.1552 -0.3292
 2920TIP3    H230252   3.228   2.464  11.137 -1.2783  0.8874  0.0362
 2921TIP3   OH230253   4.552   4.814   2.864 -0.2252  0.9710 -0.7447
 2921TIP3    H130254   4.609   4.801   2.789 -0.0630  0.7288 -0.5812
 2921TIP3    H230255   4.607   4.858   2.929  0.9352 -2.4108  0.8017
 2922TIP3   OH230256   5.257   3.126   5.692 -0.2685  0.1781 -0.3838
 2922TIP3    H130257   5.172   3.167   5.679 -0.1442  0.4925 -0.2090
 2922TIP3    H230258   5.237   3.034   5.708 -0.5615  0.2141 -0.5421
 2923TIP3   OH230259   2.331   3.556  15.563  0.5419 -0.9287 -0.1119
 2923TIP3    H130260   2.262   3.611  15.525  1.0409 -0.1344  0.1015
 2923TIP3    H230261   2.408   3.576  15.510  1.8001  1.7614  2.4383
 2924TIP3   OH230262   4.854   6.366  10.959  0.2427 -0.4951 -0.5703
 2924TIP3    H130263   4.819   6.400  10.876 -0.7909 -0.2889 -0.0569
 2924TIP3    H230264   4.777   6.341  11.010  0.8391 -0.1654  0.5248
 2925TIP3   OH230265   5.717   2.645  13.553 -0.2206 -0.2592  0.0445
 2925TIP3    H130266   5.793   2.698  13.576 -1.0607  1.2282 -0.4623
 2925TIP3    H230267   5.719   2.642  13.457 -0.7900 -0.2160  0.0311
 2926TIP3   OH230268   5.103   4.850   1.942 -0.2042 -0.0762  1.1262
 2926TIP3    H130269   5.033   4.812   1.889 -0.5813  0.1020  1.4895
 2926TIP3    H230270   5.062   4.925   1.985  1.1782  2.4833 -1.6645
 2927TIP3   OH230271   3.301   0.305  12.975 -0.5642 -0.5430 -0.1958
 2927TIP3    H130272   3.284   0.219  12.937  1.5200 -0.1000 -2.4259
 2927TIP3    H230273   3.221   0.327  13.022 -1.7925 -2.9533 -0.9905
 2928TIP3   OH230274   2.428   3.207  13.642 -0.4914 -0.2286  0.0245
 2928TIP3    H130275   2.435   3.259  13.562 -1.8253  0.1163  0.1040
 2928TIP3    H230276   2.462   3.263  13.711 -0.3570 -0.1101 -0.1376
 2929TIP3   OH230277   0.541   4.971  11.195  0.1060 -0.2644  0.1349
 2929TIP3    H130278   0.448   4.983  11.175  0.2437  1.7409  0.4233
 2929TIP3    H230279   0.575   5.061  11.202  2.1558 -0.9465 -0.3798
 2930TIP3   OH230280   3.942   2.848  14.068 -0.4064  0.2436  0.0976
 2930TIP3    H130281   4.014   2.906  14.091 -0.2216  0.6613 -1.3906
 2930TIP3    H230282   3.945   2.844  13.972 -1.1639 -1.2835  0.1167
 2931TIP3   OH230283   5.433   0.207   3.206 -0.1719  0.1538  0.5130
 2931TIP3    H130284   5.409   0.264   3.133 -0.7652 -0.4176  0.2532
 2931TIP3    H230285   5.378   0.130   3.195 -0.4813  0.1800  1.7350
 2932TIP3   OH230286   0.394   0.690   3.818 -0.7225 -0.2869  0.5880
 2932TIP3    H130287   0.307   0.650   3.817 -1.1875  0.6464 -1.2988
 2932TIP3    H230288   0.381   0.775   3.776  1.4300 -0.9483 -1.6338
 2933TIP3   OH230289   6.841   5.395   0.302 -0.1841 -0.6000  0.6448
 2933TIP3    H130290   6.791   5.394   0.384 -0.8141 -0.8757  0.2549
 2933TIP3    H230291   6.886   5.480   0.303 -0.2522 -0.5647  1.2325
 2934TIP3   OH230292   1.566   1.717   4.518  0.5085  0.0955  0.0659
 2934TIP3    H130293   1.544   1.747   4.606  1.7049 -0.0264  0.4365
 2934TIP3    H230294   1.643   1.768   4.494 -1.1341  1.7958 -1.8842
 2935TIP3   OH230295   0.601   6.615   2.766 -0.6861  0.0069 -0.5044
 2935TIP3    H130296   0.660   6.540   2.771  1.6516  1.2894 -4.3602
 2935TIP3    H230297   0.516   6.577   2.743 -0.6266 -1.6277  1.6416
 2936TIP3   OH230298   6.390   6.222  15.186 -0.4541 -0.8915 -0.4654
 2936TIP3    H130299   6.333   6.241  15.260 -0.8360  1.6579 -1.3034
 2936TIP3    H230300   6.479   6.229  15.221 -0.6326  0.3370 -0.2075
 2937TIP3   OH230301   2.948   6.229  13.045 -0.2024 -1.0767 -0.2654
 2937TIP3    H130302   2.957   6.134  13.040  3.6427 -0.8165 -1.5868
 2937TIP3    H230303   3.037   6.261  13.055 -1.2771  2.4645 -0.6538
 2938TIP3   OH230304   3.097   3.086   5.374  0.2097  0.4712  0.3199
 2938TIP3    H130305   3.009   3.118   5.394  0.0075  0.3405 -0.3397
 2938TIP3    H230306   3.113   3.113   5.284  0.8481  0.4909  0.4347
 2939TIP3   OH230307   0.035   3.726   4.663  0.3138  0.0001  0.5288
 2939TIP3    H130308   0.045   3.821   4.653  0.0219 -0.1680 -1.9263
 2939TIP3    H230309   0.124   3.692   4.657  0.2562  0.0049 -0.5178
 2940TIP3   OH230310   1.034   3.827  14.760  0.3498 -0.2783 -0.2619
 2940TIP3    H130311   1.007   3.878  14.684 -0.8058 -0.2133  0.1632
 2940TIP3    H230312   0.977   3.750  14.758  0.7357 -0.5801  0.1874
 2941TIP3   OH230313   4.964   4.470   0.442 -0.1963  0.1920 -0.1339
 2941TIP3    H130314   4.964   4.513   0.527 -0.7545  0.5105 -0.2895
 2941TIP3    H230315   4.979   4.377   0.462 -0.0718  0.2985  0.2850
 2942TIP3   OH230316   3.219   3.789  12.788 -0.4156 -0.4717  0.0155
 2942TIP3    H130317   3.279   3.774  12.861 -0.3289 -1.8742 -0.3126
 2942TIP3    H230318   3.205   3.884  12.788  1.0935 -0.2132  0.6454
 2943TIP3   OH230319   4.623   5.163  15.742 -0.2913 -0.0340 -0.7589
 2943TIP3    H130320   4.690   5.125  15.684 -0.9800  0.2883 -1.7830
 2943TIP3    H230321   4.553   5.098  15.744 -1.1899  0.8612 -1.9949
 2944TIP3   OH230322   4.958   0.772  11.416 -0.0552  0.1337 -0.5566
 2944TIP3    H130323   4.893   0.777  11.485 -0.4693  0.9910 -0.9955
 2944TIP3    H230324   4.912   0.800  11.336  0.5288 -0.3982 -1.0977
 2945TIP3   OH230325   1.537   0.550  15.939 -0.3518  0.0844 -0.0776
 2945TIP3    H130326   1.504   0.629  15.897  0.8435  1.2277  1.0635
 2945TIP3    H230327   1.479   0.537  16.015 -2.2177 -1.7154 -1.6913
 2946TIP3   OH230328   0.720   2.445   2.542  0.4073  0.1815 -0.7797
 2946TIP3    H130329   0.756   2.485   2.622 -0.4270 -1.0679  0.2507
 2946TIP3    H230330   0.705   2.354   2.565  3.6135 -1.2742 -3.4638
 2947TIP3   OH230331   5.574   4.248   1.216 -0.2144  0.3076 -0.3201
 2947TIP3    H130332   5.596   4.198   1.295  1.0089  1.9926  0.4641
 2947TIP3    H230333   5.492   4.293   1.237 -1.0333 -0.8790 -0.8354
 2948TIP3   OH230334   2.040   3.572  11.681  0.1361  0.0921  0.0708
 2948TIP3    H130335   2.116   3.558  11.625 -0.7659  0.4227 -1.2800
 2948TIP3    H230336   2.059   3.652  11.729  0.6468  0.1537 -0.2364
 2949TIP3   OH230337   0.950   0.092   2.403  0.2230  0.3059  0.3248
 2949TIP3    H130338   1.023   0.116   2.460 -1.8065  0.5514  3.0289
 2949TIP3    H230339   0.940  -0.003   2.415  1.2976 -0.0999 -1.6340
 2950TIP3   OH230340   6.012   0.953  11.366 -0.0500  0.2195 -0.2468
 2950TIP3    H130341   6.041   0.876  11.415  0.4613  1.0798  0.8484
 2950TIP3    H230342   6.028   1.026  11.425  0.8174  1.3441 -1.7843
 2951TIP3   OH230343   3.309   2.202   1.822 -0.0690 -0.1620 -0.1576
 2951TIP3    H130344   3.269   2.129   1.776  0.4510  0.4039 -1.5753
 2951TIP3    H230345   3.357   2.250   1.754  0.9446  0.5760  1.0281
 2952TIP3   OH230346   4.729   4.065   4.304 -0.0453 -0.2584  0.1773
 2952TIP3    H130347   4.776   4.065   4.221  0.7027  0.0352  0.5893
 2952TIP3    H230348   4.642   4.098   4.283  0.0955 -0.3147 -0.5088
 2953TIP3   OH230349   1.181   1.979  12.295 -0.7667  0.3123  0.1718
 2953TIP3    H130350   1.268   2.016  12.309 -1.0842  0.7681  1.0366
 2953TIP3    H230351   1.196   1.889  12.268  0.0576  1.1073 -2.3842
 2954TIP3   OH230352   4.484   6.727   3.374 -0.4616  0.3947 -0.3672
 2954TIP3    H130353   4.492   6.822   3.386  0.9770  0.6105 -2.5532
 2954TIP3    H230354   4.394   6.715   3.344 -0.5937  1.0802 -0.2716
 2955TIP3   OH230355   0.906   6.252  14.182  0.1624  0.1872  0.8261
 2955TIP3    H130356   0.920   6.161  14.209  2.0721  0.6168  1.4503
 2955TIP3    H230357   0.908   6.249  14.087 -0.5856 -0.5274  0.8219
 2956TIP3   OH230358   3.153   4.673  13.626 -0.4719  0.4420  0.5589
 2956TIP3    H130359   3.074   4.698  13.578 -0.1029 -0.0427 -0.3217
 2956TIP3    H230360   3.160   4.579  13.614  0.9219  0.6442 -0.4669
 2957TIP3   OH230361   3.533   6.696  11.040 -0.2478  0.2110 -0.5979
 2957TIP3    H130362   3.488   6.757  10.981  2.3796  1.0092 -1.9432
 2957TIP3    H230363   3.619   6.735  11.053  0.4670 -1.7411  0.9899
 2958TIP3   OH230364   6.384   4.124   5.612  0.3637  0.3991 -0.9735
 2958TIP3    H130365   6.289   4.135   5.617  0.6527  3.0982  0.5647
 2958TIP3    H230366   6.399   4.087   5.525 -2.1616 -1.9799 -0.5374
 2959TIP3   OH230367   6.674   5.084   3.006  0.0369 -0.1307  0.1736
 2959TIP3    H130368   6.615   5.019   3.042 -1.1451  0.5704 -0.4189
 2959TIP3    H230369   6.642   5.099   2.916  0.6263  0.8255  0.0994
 2960TIP3   OH230370   1.422   1.166   3.723 -0.7202 -0.0734  0.0879
 2960TIP3    H130371   1.419   1.255   3.690  1.5410  0.2170  0.4781
 2960TIP3    H230372   1.514   1.152   3.745 -0.9620 -2.6013 -0.2260
 2961TIP3   OH230373   2.720   4.228  12.431 -0.7658 -0.2603  0.4761
 2961TIP3    H130374   2.674   4.244  12.349 -1.4711  0.1155  0.9417
 2961TIP3    H230375   2.813   4.236  12.408 -1.0027  1.7275  0.1008
 2962TIP3   OH230376   0.149   6.266  14.290 -0.4862 -0.0048 -0.6556
 2962TIP3    H130377   0.185   6.297  14.207 -3.2879  1.4960 -1.4552
 2962TIP3    H230378   0.074   6.323  14.306 -0.7634 -1.0474  2.3152
 2963TIP3   OH230379   3.036   4.166  11.674 -0.3376 -0.4823  0.1381
 2963TIP3    H130380   3.076   4.244  11.712 -1.0100  0.4809 -1.0425
 2963TIP3    H230381   3.102   4.134  11.612 -1.3973  1.3035 -2.0621
 2964TIP3   OH230382   5.170   3.001   1.135 -0.1256  0.1890 -0.0846
 2964TIP3    H130383   5.139   2.990   1.045 -2.3733  1.1307  0.4919
 2964TIP3    H230384   5.264   3.012   1.127 -0.2341 -0.0473 -2.2940
 2965TIP3   OH230385   0.175   5.795  11.445 -0.0473  0.2055 -0.3617
 2965TIP3    H130386   0.121   5.846  11.386  1.0939  1.9586  0.0515
 2965TIP3    H230387   0.168   5.839  11.530 -0.1242 -1.1489  0.3796
 2966TIP3   OH230388   1.842   0.835  15.647  0.4139  0.2254  0.1057
 2966TIP3    H130389   1.899   0.887  15.703  0.2274 -0.4908  0.9884
 2966TIP3    H230390   1.792   0.899  15.597  2.3330  0.8989 -1.1050
 2967TIP3   OH230391   4.060   1.384  15.757 -0.4118  0.1691 -0.4739
 2967TIP3    H130392   4.099   1.451  15.813 -0.8509  0.5420 -0.6154
 2967TIP3    H230393   3.972   1.370  15.794 -0.3046 -0.3785 -0.4032
 2968TIP3   OH230394   4.946   5.012   2.075  0.2756 -0.1107  0.5152
 2968TIP3    H130395   4.934   5.107   2.070  1.0003 -0.0717 -1.3542
 2968TIP3    H230396   4.863   4.980   2.112 -0.6959  1.1220 -0.4755
 2969TIP3   OH230397   4.912   3.896  15.724 -0.5143  0.1558  0.1515
 2969TIP3    H130398   4.952   3.821  15.768 -0.7483 -0.8732 -1.3386
 2969TIP3    H230399   4.824   3.866  15.701 -0.6604  0.9359 -0.3433
 2970TIP3   OH230400   2.746   0.626   4.570 -0.0275 -0.0162 -0.3834
 2970TIP3    H130401   2.802   0.613   4.647  2.6542  1.2320 -1.9976
 2970TIP3    H230402   2.718   0.717   4.575 -1.1804 -0.3587 -0.1265
 2971TIP3   OH230403   4.346   1.798  16.810 -0.0749  0.0211  0.3468
 2971TIP3    H130404   4.331   1.807  16.716  0.7371  2.6545  0.3956
 2971TIP3    H230405   4.438   1.774  16.817 -0.1392 -0.1880  0.4833
 2972TIP3   OH230406   2.228   3.565  11.465 -0.0258  0.0758  0.0814
 2972TIP3    H130407   2.324   3.561  11.458 -0.0484  0.7221 -0.8820
 2972TIP3    H230408   2.201   3.474  11.475  0.6405 -0.2108 -0.6110
 2973TIP3   OH230409   1.325   5.605  15.939  0.2929 -0.0980 -0.1851
 2973TIP3    H130410   1.384   5.671  15.904  1.3051  0.1312  1.8218
 2973TIP3    H230411   1.237   5.642  15.925  0.6703  0.2553 -1.8057
 2974TIP3   OH230412   0.150   1.728  15.371  0.3226 -0.2459  0.2704
 2974TIP3    H130413   0.075   1.731  15.430  0.7781 -1.3174  0.9345
 2974TIP3    H230414   0.220   1.774  15.418  0.0651  0.8982 -0.4165
 2975TIP3   OH230415   3.308   6.227   1.751 -0.0217 -0.0701  0.4192
 2975TIP3    H130416   3.327   6.313   1.713  1.9239 -0.3601  0.6478
 2975TIP3    H230417   3.306   6.243   1.846 -0.7901 -0.0809  0.4073
 2976TIP3   OH230418   6.624   4.941   5.110  0.0876  0.0784 -0.2644
 2976TIP3    H130419   6.628   4.924   5.016  1.3409  0.3135 -0.2740
 2976TIP3    H230420   6.616   4.854   5.149  0.6981 -0.1065 -0.5437
 2977TIP3   OH230421   0.652   1.653  15.088 -1.2032  0.2093  0.4068
 2977TIP3    H130422   0.690   1.574  15.125  0.9104  0.2251 -1.5403
 2977TIP3    H230423   0.594   1.622  15.018 -2.9584  0.2990  1.7628
 2978TIP3   OH230424   4.716   1.130  16.848 -0.2213  0.2400  0.4681
 2978TIP3    H130425   4.759   1.180  16.779 -1.3049  0.0766 -0.3606
 2978TIP3    H230426   4.712   1.040  16.814 -0.4928  0.0919  0.8804
 2979TIP3   OH230427   2.491   5.566   6.042 -0.5542 -0.1994  0.1990
 2979TIP3    H130428   2.574   5.535   6.004 -0.4308 -0.8876  1.0005
 2979TIP3    H230429   2.434   5.490   6.038 -1.0752  0.2023 -0.1099
 2980TIP3   OH230430   3.286   0.909  12.599 -0.8153 -0.8663 -0.5403
 2980TIP3    H130431   3.340   0.863  12.535 -0.6329 -2.8999  0.9705
 2980TIP3    H230432   3.312   0.873  12.683 -1.6018  1.1557  0.6338
 2981TIP3   OH230433   3.277   2.680   2.222 -0.3627 -0.4812  0.4238
 2981TIP3    H130434   3.231   2.677   2.139 -1.4989 -0.4289  1.0374
 2981TIP3    H230435   3.217   2.724   2.282  0.3614 -0.6694  1.3220
 2982TIP3   OH230436   5.453   4.670  15.752 -0.2795  0.3433 -0.5985
 2982TIP3    H130437   5.497   4.712  15.825  1.1066 -2.2047  0.1567
 2982TIP3    H230438   5.360   4.687  15.767 -0.2586 -1.6483  2.9582
 2983TIP3   OH230439   1.823   1.244  11.573 -0.0292  0.6077  0.4731
 2983TIP3    H130440   1.792   1.153  11.567 -0.2478  0.7058  0.1347
 2983TIP3    H230441   1.757   1.288  11.627 -0.8492  0.9730 -0.7839
 2984TIP3   OH230442   5.031   0.811   1.086 -0.5482  0.1231  0.2866
 2984TIP3    H130443   4.937   0.809   1.070 -0.7200  3.5369  0.2358
 2984TIP3    H230444   5.040   0.798   1.180 -1.1059  0.1745  0.3478
 2985TIP3   OH230445   0.134   2.758  16.592  0.3211  0.4742  0.4230
 2985TIP3    H130446   0.114   2.837  16.542 -0.8564  0.5937  1.0320
 2985TIP3    H230447   0.052   2.710  16.594  1.0353 -0.7881  0.0440
 2986TIP3   OH230448   1.769   1.902  16.011  0.0492  0.4316  0.0138
 2986TIP3    H130449   1.844   1.880  16.067  1.2978 -1.6313 -2.2560
 2986TIP3    H230450   1.746   1.819  15.969 -2.5287  1.3677 -0.5584
 2987TIP3   OH230451   1.021   6.272   0.192  0.3923 -0.2894 -0.4497
 2987TIP3    H130452   1.058   6.225   0.117  0.1327 -0.7780 -0.2764
 2987TIP3    H230453   1.022   6.208   0.263  1.1571  0.3384  0.1248
 2988TIP3   OH230454   2.202   2.337   3.465 -0.3468 -0.7905  0.3439
 2988TIP3    H130455   2.160   2.252   3.478 -0.3353 -0.6569  1.3468
 2988TIP3    H230456   2.272   2.340   3.531  0.9693 -0.8207 -0.9955
 2989TIP3   OH230457   0.092   4.527  15.262  0.1974  0.4263  0.7291
 2989TIP3    H130458   0.073   4.437  15.290  0.1074  0.1507 -0.1936
 2989TIP3    H230459   0.055   4.533  15.174 -0.1511  1.4999  0.9404
 2990TIP3   OH230460   4.019   6.091   4.230 -0.2191  0.0884  0.7320
 2990TIP3    H130461   4.074   6.025   4.271  0.3357 -0.7716 -1.2911
 2990TIP3    H230462   3.964   6.124   4.302 -0.2945 -2.3185  1.8743
 2991TIP3   OH230463   3.491   1.626  14.597  0.4715  0.3753  0.2011
 2991TIP3    H130464   3.411   1.599  14.642  0.7861 -1.3894 -0.1981
 2991TIP3    H230465   3.460   1.678  14.522 -0.4972 -1.8042 -1.0274
 2992TIP3   OH230466   1.804   2.378  14.026 -0.4033  0.5992 -0.2009
 2992TIP3    H130467   1.891   2.365  13.988 -1.1339 -1.3571 -1.3543
 2992TIP3    H230468   1.806   2.330  14.108 -1.3240 -2.4601 -1.7946
 2993TIP3   OH230469   5.206   0.023   2.243 -0.2243  0.2085  0.3706
 2993TIP3    H130470   5.133   0.004   2.184  0.4053  0.2846 -0.4539
 2993TIP3    H230471   5.217   0.118   2.239  0.2048  0.1540  0.1268
 2994TIP3   OH230472   4.926   4.002  13.477 -0.6352  0.0030 -0.4032
 2994TIP3    H130473   4.858   4.034  13.417 -1.5713 -1.1719 -0.0160
 2994TIP3    H230474   4.917   4.056  13.555 -0.2294  0.7231 -0.8406
 2995TIP3   OH230475   3.707   2.465  10.125  1.0609  0.0056  0.2295
 2995TIP3    H130476   3.647   2.536  10.104  3.7430  1.6632 -2.6164
 2995TIP3    H230477   3.771   2.503  10.185  0.6009 -1.0880  1.4702
 2996TIP3   OH230478   0.683   6.238  15.209  0.0816 -0.5271  0.6377
 2996TIP3    H130479   0.757   6.185  15.238  1.0237  1.1444  1.4400
 2996TIP3    H230480   0.704   6.263  15.119  1.0953  0.8942  1.2422
 2997TIP3   OH230481   4.035   5.535  14.359 -0.5874  0.4311  0.1526
 2997TIP3    H130482   4.033   5.478  14.282  2.7912 -1.6398  1.4005
 2997TIP3    H230483   3.975   5.494  14.421 -0.7226  0.1728 -0.1465
 2998TIP3   OH230484   4.023   0.393  15.935 -0.5817 -0.0310 -0.0554
 2998TIP3    H130485   4.091   0.341  15.978  0.4977  1.5745  0.2693
 2998TIP3    H230486   4.013   0.353  15.849  2.8068  1.2601 -1.2047
 2999TIP3   OH230487   3.902   2.623   0.993 -0.6427  0.4300  0.1250
 2999TIP3    H130488   3.873   2.543   0.949  1.0924 -0.2611  0.1310
 2999TIP3    H230489   3.983   2.646   0.948 -0.2709  1.2594  1.1770
 3000TIP3   OH230490   4.375   0.281   0.218 -0.5654  0.1311  0.4282
 3000TIP3    H130491   4.445   0.327   0.171  0.5388 -0.4818  1.4176
 3000TIP3    H230492   4.304   0.345   0.223 -0.2546  0.6234 -0.9739
 3001TIP3   OH230493   0.734   6.509   2.229 -0.7540  0.1069  0.1601
 3001TIP3    H130494   0.722   6.557   2.311 -1.4756 -2.3292  1.5892
 3001TIP3    H230495   0.661   6.447   2.227  0.6103 -1.5398 -1.1096
 3002TIP3   OH230496   5.604   5.809   1.350 -0.1637 -1.0169 -0.0298
 3002TIP3    H130497   5.630   5.719   1.330 -2.0125 -2.1384  2.0446
 3002TIP3    H230498   5.508   5.807   1.345 -0.3933  0.1574  2.2768
 3003TIP3   OH230499   5.920   3.116  15.377  0.4687 -0.0729 -0.3172
 3003TIP3    H130500   5.879   3.038  15.341  2.9571 -1.3590 -0.5708
 3003TIP3    H230501   5.858   3.187  15.358 -0.0079 -1.2613 -3.9663
 3004TIP3   OH230502   6.196   2.340   3.913 -0.1492 -0.6121 -0.1235
 3004TIP3    H130503   6.258   2.286   3.864 -0.3190 -2.3511  1.4315
 3004TIP3    H230504   6.148   2.277   3.968 -0.4182  1.1336  1.7649
 3005TIP3   OH230505   0.901   6.590  11.993 -0.0386 -0.6316  0.1128
 3005TIP3    H130506   0.848   6.617  11.918 -0.2570 -1.9479 -0.2195
 3005TIP3    H230507   0.958   6.665  12.009 -0.1476 -0.2268 -1.2242
 3006TIP3   OH230508   1.480   6.384   0.956 -0.7083  0.7610  0.1647
 3006TIP3    H130509   1.532   6.419   0.884 -0.1838 -0.5065 -0.0874
 3006TIP3    H230510   1.460   6.460   1.011  0.5863  1.4106 -0.2482
 3007TIP3   OH230511   0.567   0.063  14.799  0.0155 -0.0763 -0.1498
 3007TIP3    H130512   0.524   0.082  14.716 -1.1758 -1.2969  0.1497
 3007TIP3    H230513   0.553   0.140  14.852  0.1632  0.4279 -0.8245
 3008TIP3   OH230514   4.700   1.998   4.825 -0.2694 -0.1885  0.4167
 3008TIP3    H130515   4.787   2.012   4.862 -0.2038  0.0722  0.1683
 3008TIP3    H230516   4.708   2.024   4.734  0.1115 -2.8390 -0.3701
 3009TIP3   OH230517   5.541   6.346  16.993  0.6652  0.2205  0.5120
 3009TIP3    H130518   5.457   6.390  16.982  0.5180  0.1231  1.2016
 3009TIP3    H230519   5.549   6.332  17.088 -0.3310 -3.1921  0.2497
 3010TIP3   OH230520   6.746   6.136   2.476  0.1690 -0.1368 -0.1769
 3010TIP3    H130521   6.701   6.132   2.560  0.0444  0.3873 -0.2160
 3010TIP3    H230522   6.758   6.044   2.451 -0.6624 -0.2858 -0.0537
 3011TIP3   OH230523   3.402   4.988   4.205 -0.0581 -0.2578 -0.1013
 3011TIP3    H130524   3.325   4.951   4.247 -0.6227 -0.2690 -1.1082
 3011TIP3    H230525   3.444   5.041   4.273 -0.9920 -0.1874  0.4364
 3012TIP3   OH230526   6.190   2.601   2.274 -0.3884  0.1989 -0.6863
 3012TIP3    H130527   6.259   2.638   2.329 -0.8031  0.0811 -0.0823
 3012TIP3    H230528   6.127   2.673   2.264 -1.2430 -0.3387  0.5669
 3013TIP3   OH230529   1.486   3.198  16.114  0.4933  0.2815  0.1472
 3013TIP3    H130530   1.430   3.273  16.092 -0.7132 -0.2680  1.2302
 3013TIP3    H230531   1.425   3.124  16.120  1.6016 -0.6984 -0.4252
 3014TIP3   OH230532   2.524   0.333   0.526 -0.0588  0.0225  0.4352
 3014TIP3    H130533   2.516   0.260   0.464 -1.6316 -0.4522  1.1486
 3014TIP3    H230534   2.441   0.380   0.518 -0.9601 -0.8989  3.1910
 3015TIP3   OH230535   6.022   4.047  11.572 -0.1238 -0.3429 -0.2057
 3015TIP3    H130536   6.069   4.110  11.516 -0.2692 -2.3945 -2.8365
 3015TIP3    H230537   5.930   4.062  11.552 -0.2309 -0.5847  0.1057
 3016TIP3   OH230538   3.322   1.083   3.897 -0.0338 -0.1949  0.2310
 3016TIP3    H130539   3.374   1.113   3.823 -0.3146 -1.7701 -0.6417
 3016TIP3    H230540   3.384   1.076   3.969  0.2492  1.3174  0.1660
 3017TIP3   OH230541   0.287   3.739   4.573 -0.0521 -0.3843  0.4750
 3017TIP3    H130542   0.290   3.749   4.478  0.3712 -1.4678  0.3553
 3017TIP3    H230543   0.362   3.789   4.605 -0.7889  0.8418  0.3432
 3018TIP3   OH230544   4.726   0.545  10.414  0.0509  0.4953  0.1023
 3018TIP3    H130545   4.724   0.619  10.353  0.3259  1.7547  1.5546
 3018TIP3    H230546   4.810   0.502  10.397  0.1619  0.8804 -0.3406
 3019TIP3   OH230547   3.426   1.954   5.398  0.0771 -0.4915 -0.1997
 3019TIP3    H130548   3.370   1.988   5.329 -1.1924 -0.5978  0.7400
 3019TIP3    H230549   3.511   1.994   5.382 -0.4808  0.3488 -1.1625
 3020TIP3   OH230550   4.889   3.309   1.419  0.2832  0.0173  0.1730
 3020TIP3    H130551   4.866   3.256   1.496  1.0543 -0.1323  0.3070
 3020TIP3    H230552   4.879   3.400   1.449 -0.6931 -0.0402  0.0507
 3021TIP3   OH230553   1.290   0.384   3.120  0.7809 -0.5701 -0.5236
 3021TIP3    H130554   1.239   0.326   3.175  0.7343  0.4253  0.5344
 3021TIP3    H230555   1.239   0.394   3.040 -2.1264  2.4016  1.4198
 3022TIP3   OH230556   5.499   5.388  16.026 -0.4616  0.4534  0.1778
 3022TIP3    H130557   5.421   5.431  15.993  0.2806  0.6378 -1.4471
 3022TIP3    H230558   5.525   5.329  15.956  0.2413 -0.4348  1.1456
 3023TIP3   OH230559   0.708   5.517   4.408 -0.6595 -0.4396  0.1408
 3023TIP3    H130560   0.617   5.541   4.389 -0.6118 -1.1499 -1.0661
 3023TIP3    H230561   0.705   5.482   4.497 -1.0352  2.2869  1.2973
 3024TIP3   OH230562   0.288   1.128   1.795  0.7589 -0.1662 -0.4029
 3024TIP3    H130563   0.353   1.070   1.836 -1.5052 -2.4876  0.1332
 3024TIP3    H230564   0.265   1.084   1.713 -2.1144 -0.9395  0.7206
 3025TIP3   OH230565   0.786   1.449  16.529  0.1012  0.2049  0.0827
 3025TIP3    H130566   0.747   1.528  16.491  0.1492 -0.4871 -1.4829
 3025TIP3    H230567   0.713   1.388  16.539 -0.1000  0.7342  2.1664
 3026TIP3   OH230568   6.195   2.190  14.885  0.0441 -0.5652 -0.3017
 3026TIP3    H130569   6.105   2.170  14.907 -0.0284 -0.7013 -0.7293
 3026TIP3    H230570   6.235   2.106  14.864 -0.6354 -0.2131 -3.5219
 3027TIP3   OH230571   2.492   3.753  10.736  0.1575  0.0101 -0.3910
 3027TIP3    H130572   2.418   3.769  10.794  0.3949 -0.5864  0.0756
 3027TIP3    H230573   2.459   3.689  10.672 -0.7073  2.0354 -2.0992
 3028TIP3   OH230574   0.535   4.972   5.022 -0.4241 -0.2074 -0.4319
 3028TIP3    H130575   0.601   4.928   4.967 -0.6940  0.0569 -0.9761
 3028TIP3    H230576   0.567   4.960   5.111 -0.2037 -1.0266 -0.6064
 3029TIP3   OH230577   4.964   0.456   3.393 -0.5738  0.0809 -0.0474
 3029TIP3    H130578   4.999   0.403   3.322  1.0456  0.6652  0.2843
 3029TIP3    H230579   5.034   0.458   3.458 -1.8039  0.0388  1.3174
 3030TIP3   OH230580   1.272   0.842  14.094  0.5088 -0.0063  0.3028
 3030TIP3    H130581   1.366   0.853  14.111  0.2884  0.9159  0.9715
 3030TIP3    H230582   1.250   0.914  14.035  0.1357  0.0453  0.5024
 3031TIP3   OH230583   2.143   6.406   5.024 -0.2377  0.3057 -0.1652
 3031TIP3    H130584   2.217   6.446   5.070  1.9653 -2.3578 -1.0855
 3031TIP3    H230585   2.093   6.361   5.093  0.2727  0.3124  0.2132
 3032TIP3   OH230586   3.118   3.687  14.168 -0.1811  1.0707 -0.2229
 3032TIP3    H130587   3.144   3.601  14.136 -1.6108  0.8090 -0.7548
 3032TIP3    H230588   3.183   3.747  14.132  1.2485  0.1561  0.7482
 3033TIP3   OH230589   0.076   6.729  15.734  0.7450 -0.2539 -0.1522
 3033TIP3    H130590   0.157   6.756  15.777  0.1783  0.3365  0.5609
 3033TIP3    H230591   0.039   6.663  15.792  0.5516 -0.2882 -0.3145
 3034TIP3   OH230592   4.031   0.488  16.222  0.3551 -0.5370 -0.0467
 3034TIP3    H130593   4.036   0.456  16.312 -1.4422 -0.6804  0.0394
 3034TIP3    H230594   4.096   0.558  16.218  1.5570 -1.5398  0.8911
 3035TIP3   OH230595   3.747   4.551   2.566  0.6254 -0.0841 -0.4332
 3035TIP3    H130596   3.841   4.544   2.584  0.7003  0.9939 -0.3469
 3035TIP3    H230597   3.728   4.645   2.576 -0.2735 -0.1583 -1.3553
 3036TIP3   OH230598   6.834   0.557  15.296  0.4021 -0.3089  0.5811
 3036TIP3    H130599   6.892   0.520  15.230 -0.6727 -1.2327  0.1219
 3036TIP3    H230600   6.818   0.484  15.357  0.6764  0.2797  1.3817
 3037TIP3   OH230601   2.732   4.176   1.865  0.2168 -0.1779 -0.3326
 3037TIP3    H130602   2.744   4.122   1.787 -1.3642 -0.9849 -0.0708
 3037TIP3    H230603   2.652   4.226   1.847  1.1132  1.3754 -0.1633
 3038TIP3   OH230604   3.778   2.616  12.412  0.1747  0.2011  0.2236
 3038TIP3    H130605   3.833   2.689  12.382  0.0887  0.7029  1.2508
 3038TIP3    H230606   3.695   2.657  12.437 -0.3087 -0.4189 -0.3140
 3039TIP3   OH230607   6.593   6.846   6.561 -0.2224 -0.1183  0.1683
 3039TIP3    H130608   6.598   6.800   6.477  1.5129  0.1920  0.0774
 3039TIP3    H230609   6.680   6.884   6.573 -0.7049  0.5668  1.7098
 3040TIP3   OH230610   3.753   3.120   5.584  0.0448  0.6553 -0.3396
 3040TIP3    H130611   3.690   3.076   5.641  0.4890  0.1659 -0.2152
 3040TIP3    H230612   3.827   3.140   5.641  0.2950  0.5894 -0.6364
 3041TIP3   OH230613   0.579   4.610  10.756  0.0877 -0.2797 -0.3077
 3041TIP3    H130614   0.544   4.596  10.667  1.1441 -0.0619 -0.7735
 3041TIP3    H230615   0.524   4.678  10.793  0.5591  0.6971 -1.3576
 3042TIP3   OH230616   3.229   4.692   1.193 -0.1761  0.0395  0.2012
 3042TIP3    H130617   3.151   4.639   1.175 -0.0964 -1.0530  2.6353
 3042TIP3    H230618   3.198   4.759   1.254 -0.0970  2.4544 -2.2207
 3043TIP3   OH230619   5.420   0.457   1.545 -0.3595 -0.1435  0.3397
 3043TIP3    H130620   5.483   0.524   1.519  0.1275 -0.4838  0.6058
 3043TIP3    H230621   5.406   0.404   1.466  0.1504 -0.4188  0.4231
 3044TIP3   OH230622   5.560   3.432   4.080 -0.0265  0.0857  0.5587
 3044TIP3    H130623   5.468   3.419   4.058  0.4215 -0.7573 -1.0045
 3044TIP3    H230624   5.576   3.525   4.064 -0.4922  0.1286  0.3255
 3045TIP3   OH230625   3.168   1.195  14.588 -0.2876 -0.0768 -0.2754
 3045TIP3    H130626   3.145   1.118  14.641  0.5644 -1.5782 -1.9501
 3045TIP3    H230627   3.099   1.199  14.521  1.1832 -1.2362 -1.9590
 3046TIP3   OH230628   5.397   0.036   5.204 -0.4185 -0.0864 -0.3390
 3046TIP3    H130629   5.366  -0.054   5.194 -0.5037 -0.2254  1.0307
 3046TIP3    H230630   5.436   0.038   5.291 -0.1030  1.1182 -0.5006
 3047TIP3   OH230631   3.651   2.480  13.601  0.1930 -0.0952 -0.2665
 3047TIP3    H130632   3.652   2.385  13.600 -0.8562 -0.1732  1.2236
 3047TIP3    H230633   3.584   2.504  13.536  1.2054 -0.2980 -1.4176
 3048TIP3   OH230634   2.049   5.337  13.713  0.2598  0.3272 -0.2721
 3048TIP3    H130635   2.081   5.417  13.754  3.5604 -1.2236  0.5417
 3048TIP3    H230636   2.015   5.365  13.628  1.6566  2.5365 -0.1590
 3049TIP3   OH230637   4.275   6.429  12.417  0.0265 -0.2889 -0.4457
 3049TIP3    H130638   4.348   6.486  12.395 -1.5907  1.0113 -3.0499
 3049TIP3    H230639   4.197   6.484  12.404 -1.4662 -1.7640  1.6517
 3050TIP3   OH230640   2.073   2.660  13.736  0.7305 -0.0375  0.1332
 3050TIP3    H130641   2.023   2.581  13.715 -0.0884  0.2094  1.0904
 3050TIP3    H230642   2.051   2.722  13.666 -0.6040  0.1872  0.7271
 3051TIP3   OH230643   4.465   1.703   5.240 -0.1720  0.1833  0.2528
 3051TIP3    H130644   4.467   1.784   5.188 -1.1542  0.9330  1.3233
 3051TIP3    H230645   4.556   1.688   5.266  0.2005  0.2640 -0.9588
 3052TIP3   OH230646   5.815   1.141   4.491  0.3566 -0.5529  0.1228
 3052TIP3    H130647   5.825   1.194   4.412  0.9758  2.0694  1.8326
 3052TIP3    H230648   5.880   1.071   4.482  1.9086  0.9419 -0.7676
 3053TIP3   OH230649   4.929   1.657  16.294  0.0917 -0.2744 -0.1708
 3053TIP3    H130650   4.853   1.685  16.243  0.3997  0.5059 -0.2123
 3053TIP3    H230651   4.915   1.697  16.380  0.4587 -0.1192 -0.1823
 3054TIP3   OH230652   2.204   2.890  14.579  0.1550 -0.2175 -0.2312
 3054TIP3    H130653   2.212   2.982  14.603 -1.6483 -0.0733 -0.0511
 3054TIP3    H230654   2.294   2.860  14.570  0.7875  1.4117  0.2615
 3055TIP3   OH230655   0.792   5.558   0.019 -0.1107 -0.1943  0.3047
 3055TIP3    H130656   0.784   5.529   0.110  2.0240 -1.4440  0.1595
 3055TIP3    H230657   0.869   5.614   0.018 -0.4762  0.3183 -0.6339
 3056TIP3   OH230658   3.076   5.745   0.435  0.3958 -0.1212 -0.3962
 3056TIP3    H130659   3.166   5.730   0.407  0.7946 -0.2636  0.9089
 3056TIP3    H230660   3.049   5.824   0.389  1.4557  0.3695 -0.1941
 3057TIP3   OH230661   0.138   2.147  14.904  0.0912 -0.1332  0.1717
 3057TIP3    H130662   0.166   2.138  14.995  1.7986 -0.7682 -0.3947
 3057TIP3    H230663   0.112   2.059  14.878 -1.8932  0.3006  0.4498
 3058TIP3   OH230664   5.161   1.196  13.002  0.8103 -0.2806  0.4787
 3058TIP3    H130665   5.214   1.202  13.082  0.9191  0.6614  0.3515
 3058TIP3    H230666   5.099   1.269  13.010 -0.0059 -0.9456  0.2913
 3059TIP3   OH230667   6.779   0.992   2.117 -0.0925 -0.9164  0.4807
 3059TIP3    H130668   6.720   0.957   2.184 -0.3997 -0.2559  0.5576
 3059TIP3    H230669   6.763   1.086   2.117  0.4654 -0.8165  0.0173
 3060TIP3   OH230670   4.990   6.225   2.617 -0.4522 -0.2230 -0.1629
 3060TIP3    H130671   4.913   6.274   2.586 -1.3319 -1.1907  0.4256
 3060TIP3    H230672   4.959   6.134   2.624  0.2619 -0.3675  1.6270
 3061TIP3   OH230673   5.598   5.755   3.198 -0.6253  0.3280 -0.7232
 3061TIP3    H130674   5.606   5.818   3.126  0.0907  0.7040 -0.3241
 3061TIP3    H230675   5.615   5.670   3.157 -2.9324  0.1977 -1.5479
 3062TIP3   OH230676   3.420   0.149  11.246  0.3753  0.1720 -0.0551
 3062TIP3    H130677   3.496   0.202  11.220  1.6009 -1.9351 -1.0485
 3062TIP3    H230678   3.366   0.144  11.166  0.5079 -0.4429 -0.1092
 3063TIP3   OH230679   0.624   6.491   1.206 -0.1061 -0.2971  0.5920
 3063TIP3    H130680   0.705   6.541   1.220  0.4457 -1.6864  3.2368
 3063TIP3    H230681   0.618   6.480   1.111  2.4687  0.4125  0.2711
 3064TIP3   OH230682   6.341   1.627  11.684 -0.3459  0.3137 -0.9405
 3064TIP3    H130683   6.381   1.671  11.610  2.0324 -3.0839 -1.9268
 3064TIP3    H230684   6.402   1.640  11.756 -0.9262  0.7354 -0.5106
 3065TIP3   OH230685   6.429   3.107  16.898 -0.1032  0.4934 -0.0299
 3065TIP3    H130686   6.478   3.153  16.830 -0.3583 -0.3091 -0.7634
 3065TIP3    H230687   6.489   3.040  16.930 -0.1543  0.5568  0.2007
 3066TIP3   OH230688   2.450   2.884  15.498  0.3571  0.1974 -0.9883
 3066TIP3    H130689   2.442   2.791  15.479 -0.1900  0.3106 -1.3346
 3066TIP3    H230690   2.378   2.903  15.558 -0.9866  0.8611 -2.7293
 3067TIP3   OH230691   5.660   0.224  16.790 -0.1916 -0.1907  0.2685
 3067TIP3    H130692   5.748   0.196  16.818 -0.2976 -0.5662  0.2339
 3067TIP3    H230693   5.675   0.270  16.708 -0.1733 -1.5367 -0.5154
 3068TIP3   OH230694   4.914   5.383  15.958  0.0671  0.5815 -0.2330
 3068TIP3    H130695   4.835   5.403  15.908 -1.7711  0.8463  2.6205
 3068TIP3    H230696   4.939   5.466  15.999 -0.8435 -0.3685  2.4226
 3069TIP3   OH230697   1.584   6.309   0.355 -0.4990  0.0720  0.8437
 3069TIP3    H130698   1.489   6.303   0.365 -0.3667  0.0323  2.3034
 3069TIP3    H230699   1.599   6.292   0.263 -1.8189 -1.1005  0.8105
 3070TIP3   OH230700   0.395   5.706   6.321 -0.2769  0.6504  0.0421
 3070TIP3    H130701   0.338   5.630   6.309  0.2225  0.5617 -2.3050
 3070TIP3    H230702   0.464   5.675   6.380  0.9929 -1.4454 -2.3437
 3071TIP3   OH230703   1.011   3.554   1.920 -0.0456  0.5096 -0.1937
 3071TIP3    H130704   0.924   3.539   1.884  0.2947 -0.3215 -0.6721
 3071TIP3    H230705   1.047   3.626   1.867  0.2449 -0.3435 -1.1784
 3072TIP3   OH230706   2.226   0.137  15.575 -0.4090 -0.1794 -0.5226
 3072TIP3    H130707   2.272   0.206  15.622 -2.0051  0.9557 -0.5448
 3072TIP3    H230708   2.265   0.137  15.488  1.7143 -1.4541  0.3616
 3073TIP3   OH230709   2.659   2.873   3.440 -0.0051 -0.6461  0.0647
 3073TIP3    H130710   2.598   2.807   3.473 -1.9122  1.6926  1.5938
 3073TIP3    H230711   2.745   2.841   3.465 -0.5045 -3.9141 -1.8837
 3074TIP3   OH230712   1.011   4.637   2.004  0.3892 -0.2802  0.6907
 3074TIP3    H130713   0.987   4.719   2.049  1.2088  0.2594  0.1702
 3074TIP3    H230714   1.048   4.666   1.921 -1.1428 -1.2543 -0.3836
 3075TIP3   OH230715   5.505   6.252   1.940 -0.5242 -0.1827  0.0531
 3075TIP3    H130716   5.596   6.283   1.939 -0.6416  0.1681  0.2376
 3075TIP3    H230717   5.513   6.158   1.959 -0.2433  0.0072  0.9240
 3076TIP3   OH230718   3.082   1.803  16.136  0.0685 -0.1676 -0.5429
 3076TIP3    H130719   2.992   1.783  16.111 -1.2037  1.6417  2.1143
 3076TIP3    H230720   3.103   1.884  16.089 -0.8512  1.0236  0.9939
 3077TIP3   OH230721   5.932   4.507  12.659 -0.1241  0.4687  0.1427
 3077TIP3    H130722   5.967   4.520  12.572  0.6820  0.1290  0.4093
 3077TIP3    H230723   5.934   4.594  12.699 -2.0958  0.9739 -0.7322
 3078TIP3   OH230724   6.461   1.151   2.723  0.6220  0.2604  0.0162
 3078TIP3    H130725   6.389   1.212   2.708  0.4011  0.2723  1.0657
 3078TIP3    H230726   6.431   1.069   2.684  0.5348  0.5727 -0.5872
 3079TIP3   OH230727   6.361   6.142   2.036 -0.1193  0.1023 -0.2265
 3079TIP3    H130728   6.295   6.156   1.968  1.1355 -0.5733 -1.6413
 3079TIP3    H230729   6.444   6.144   1.989  0.7128 -1.8344  1.0564
 3080TIP3   OH230730   2.810   4.628   3.254 -0.3612 -0.4162 -0.2202
 3080TIP3    H130731   2.773   4.644   3.168 -0.2071  0.8720 -0.0676
 3080TIP3    H230732   2.805   4.713   3.299 -1.9187 -1.3851  1.6296
 3081TIP3   OH230733   6.165   1.620   4.168  0.2933  0.1418  0.2107
 3081TIP3    H130734   6.253   1.591   4.142 -0.1156 -0.3418 -0.6612
 3081TIP3    H230735   6.119   1.539   4.192 -0.0987  0.3342  0.1135
 3082TIP3   OH230736   3.731   4.776  14.715  0.6335  0.7877 -0.5110
 3082TIP3    H130737   3.731   4.786  14.620  0.7049  1.2592 -0.4620
 3082TIP3    H230738   3.654   4.722  14.734  1.1101 -0.0569 -0.9104
 3083TIP3   OH230739   5.254   2.199  14.019 -0.0276  0.1269 -1.0375
 3083TIP3    H130740   5.285   2.108  14.015  0.9486  0.4565 -1.3490
 3083TIP3    H230741   5.253   2.227  13.927 -0.7002  0.3154 -0.9755
 3084TIP3   OH230742   0.894   6.853  10.992 -0.1964 -0.0223  0.3592
 3084TIP3    H130743   0.917   6.881  10.903 -1.5353 -0.0134 -0.0047
 3084TIP3    H230744   0.871   6.760  10.983 -0.4953  0.0206  0.6697
 3085TIP3   OH230745   5.831   6.742  14.037  0.7144  0.2594  0.2528
 3085TIP3    H130746   5.895   6.673  14.019 -1.2301 -1.4271 -0.5954
 3085TIP3    H230747   5.849   6.809  13.972  1.9222  0.0498  0.3503
 3086TIP3   OH230748   4.935   5.267  11.244 -0.0311 -0.0671  0.5169
 3086TIP3    H130749   4.968   5.184  11.210 -1.7589 -0.0018 -1.6063
 3086TIP3    H230750   4.858   5.243  11.296 -0.6327  0.1724 -0.2394
 3087TIP3   OH230751   6.204   6.252  16.706 -0.3449  0.2525  0.2643
 3087TIP3    H130752   6.195   6.295  16.621 -1.1206  1.0206  0.7160
 3087TIP3    H230753   6.187   6.159  16.688  2.2038 -0.0909 -0.8783
 3088TIP3   OH230754   4.848   2.575   0.191  0.0155  0.0420 -0.2664
 3088TIP3    H130755   4.770   2.527   0.161 -0.4439 -0.6656  1.9054
 3088TIP3    H230756   4.816   2.632   0.261  1.5314 -0.8101  1.1923
 3089TIP3   OH230757   4.930   6.065  10.649 -0.4011  0.1918 -0.2343
 3089TIP3    H130758   4.857   6.125  10.637 -1.2083 -0.8988 -0.9768
 3089TIP3    H230759   5.004   6.121  10.670 -1.4053  1.3324  0.3599
 3090TIP3   OH230760   2.077   5.511   1.908 -0.2054 -0.5084 -0.3303
 3090TIP3    H130761   2.157   5.547   1.870 -0.7078  1.7114  0.5357
 3090TIP3    H230762   2.007   5.546   1.853 -0.7074 -0.6244  0.2285
 3091TIP3   OH230763   0.864   5.452   3.218 -0.0378  0.0697  0.3552
 3091TIP3    H130764   0.826   5.521   3.164  0.9461  1.7803  1.7543
 3091TIP3    H230765   0.956   5.449   3.193  0.2084  0.1897  1.1962
 3092TIP3   OH230766   3.282   1.026  15.400  0.0980 -0.9410  0.0225
 3092TIP3    H130767   3.258   0.979  15.320  0.9633 -0.8328 -0.3054
 3092TIP3    H230768   3.236   1.109  15.394  2.0860  0.1238 -1.5962
 3093TIP3   OH230769   6.384   3.362  17.003  0.1928  0.1642  0.6800
 3093TIP3    H130770   6.459   3.418  17.024 -1.2272  2.5229 -0.2571
 3093TIP3    H230771   6.422   3.274  17.000  2.9189  1.2288  0.3533
 3094TIP3   OH230772   3.299   0.363  14.277 -0.4187  0.0089 -0.5196
 3094TIP3    H130773   3.346   0.353  14.360 -1.7041 -0.1382  0.2209
 3094TIP3    H230774   3.211   0.330  14.295 -0.6444 -0.2979 -2.0396
 3095TIP3   OH230775   6.301   2.602   1.177  0.2502  0.0420  0.4376
 3095TIP3    H130776   6.244   2.552   1.119  1.2503 -1.9924  1.1071
 3095TIP3    H230777   6.321   2.542   1.249  1.9426  1.2167  1.0259
 3096TIP3   OH230778   4.044   5.065   4.094  0.3774  0.4263  0.1473
 3096TIP3    H130779   4.018   5.057   4.186 -1.8966 -1.2962 -0.5553
 3096TIP3    H230780   4.138   5.050   4.095  0.0731 -1.9847  1.9886
 3097TIP3   OH230781   4.434   2.686   4.300 -0.4407 -0.5574  0.0766
 3097TIP3    H130782   4.475   2.671   4.215  0.9041 -1.0152  0.7755
 3097TIP3    H230783   4.484   2.631   4.360  0.0128  1.3544  1.5297
 3098TIP3   OH230784   6.464   5.529   2.272  0.1979  0.1662  0.4935
 3098TIP3    H130785   6.415   5.582   2.334 -0.1880  0.3444  0.0359
 3098TIP3    H230786   6.472   5.583   2.194  1.9687  0.5304  0.8837
 3099TIP3   OH230787   2.078   3.515  13.550 -0.6594 -0.6469  0.1323
 3099TIP3    H130788   2.051   3.458  13.479 -1.4377 -1.0853  0.7602
 3099TIP3    H230789   2.068   3.462  13.629 -1.3612  0.3202  0.7314
 3100TIP3   OH230790   5.502   1.363   4.809 -0.2776 -0.0764  0.2268
 3100TIP3    H130791   5.592   1.366   4.840 -0.0186  1.7092 -0.5757
 3100TIP3    H230792   5.493   1.440   4.753 -3.1888  1.7680  2.8500
 3101TIP3   OH230793   0.740   1.066   6.414 -0.5115 -0.2109  0.2009
 3101TIP3    H130794   0.649   1.084   6.438 -0.0470 -0.1408  2.0527
 3101TIP3    H230795   0.786   1.147   6.435 -0.2932  0.4916 -2.6335
 3102TIP3   OH230796   6.374   3.908  13.240 -0.0465 -0.0232  0.4773
 3102TIP3    H130797   6.332   3.923  13.325 -0.8338 -1.3363  0.3500
 3102TIP3    H230798   6.328   3.832  13.204  1.8798 -1.0048 -0.0582
 3103TIP3   OH230799   1.792   5.716   4.421  0.4032  1.1391 -0.2142
 3103TIP3    H130800   1.835   5.776   4.482  1.2966  0.1868  0.1152
 3103TIP3    H230801   1.858   5.696   4.356  0.0802  0.5890 -0.3797
 3104TIP3   OH230802   3.072   4.086   4.362  0.1108  0.1839  0.5752
 3104TIP3    H130803   3.004   4.143   4.397  0.7956  1.8340 -0.6716
 3104TIP3    H230804   3.047   4.071   4.271 -0.2739 -1.9003  0.9681
 3105TIP3   OH230805   3.308   5.192   3.249 -0.8731 -0.6339  0.4902
 3105TIP3    H130806   3.397   5.208   3.219 -1.2071  0.4430  0.0327
 3105TIP3    H230807   3.252   5.229   3.180 -1.6649 -0.5888  1.1429
 3106TIP3   OH230808   0.604   2.356  11.495 -0.0943 -0.7661 -0.0977
 3106TIP3    H130809   0.674   2.377  11.434  0.7899 -1.8107  0.5402
 3106TIP3    H230810   0.633   2.392  11.579 -0.2473 -1.3360  0.2052
 3107TIP3   OH230811   3.900   2.880  12.511 -0.1697 -0.1474 -0.3495
 3107TIP3    H130812   3.835   2.947  12.529 -1.2520 -0.7776 -1.7076
 3107TIP3    H230813   3.925   2.895  12.420  1.2251 -0.2441 -0.0111
 3108TIP3   OH230814   2.422   1.057  15.849  0.3407 -0.0179  0.7701
 3108TIP3    H130815   2.478   1.059  15.772 -0.9492  0.3027 -0.1971
 3108TIP3    H230816   2.368   0.979  15.838 -0.4806  0.5275  0.8873
 3109TIP3   OH230817   3.804   6.429  11.878 -0.5799 -0.3854  0.1965
 3109TIP3    H130818   3.718   6.397  11.907 -0.7711  0.6353  0.7975
 3109TIP3    H230819   3.787   6.470  11.794 -0.5099 -0.9705 -0.1091
 3110TIP3   OH230820   1.114   4.287   5.168  0.5183 -0.5705  0.4557
 3110TIP3    H130821   1.052   4.244   5.108  1.5170 -0.6734 -0.5429
 3110TIP3    H230822   1.071   4.285   5.253 -1.0839 -0.1522 -0.3091
 3111TIP3   OH230823   1.355   2.113  12.010  0.0779  0.7612  0.7931
 3111TIP3    H130824   1.369   2.183  12.074  0.7795 -0.4551  2.0368
 3111TIP3    H230825   1.385   2.033  12.055 -0.3472 -0.2876 -0.7027
 3112TIP3   OH230826   1.114   3.440  15.297 -0.8327 -0.0878  0.5209
 3112TIP3    H130827   1.032   3.470  15.337 -0.3718 -1.2793  2.5129
 3112TIP3    H230828   1.088   3.367  15.241 -1.3093  0.5886 -0.1604
 3113TIP3   OH230829   3.595   5.631  14.139 -0.0633 -0.1846  0.1477
 3113TIP3    H130830   3.662   5.679  14.187 -1.0825  0.4901  0.9276
 3113TIP3    H230831   3.611   5.539  14.162  0.1664  0.0284  0.8600
 3114TIP3   OH230832   3.567   6.635  12.138 -0.7864  0.5403  0.0838
 3114TIP3    H130833   3.658   6.655  12.158 -0.5048  0.3221 -0.9296
 3114TIP3    H230834   3.558   6.654  12.045 -1.0924 -1.8578 -0.4394
 3115TIP3   OH230835   1.160   0.869   4.216  0.1986  0.7351  0.2443
 3115TIP3    H130836   1.242   0.848   4.172  1.0115  0.6007  1.7715
 3115TIP3    H230837   1.094   0.817   4.170  1.1643 -0.1147 -0.2137
 3116TIP3   OH230838   6.121   2.182   1.468  0.2473  0.3502 -0.2429
 3116TIP3    H130839   6.139   2.088   1.476 -1.8222  0.0554  2.9461
 3116TIP3    H230840   6.031   2.186   1.437 -0.0003  1.2256  0.5576
 3117TIP3   OH230841   1.419   3.295  14.977  0.5087  0.0056 -0.2747
 3117TIP3    H130842   1.499   3.347  14.967  0.9681 -0.5968  0.2520
 3117TIP3    H230843   1.352   3.359  15.003  1.1036  0.3178  0.5092
 3118TIP3   OH230844   3.085   3.347  13.629 -0.3523 -0.4550 -0.1651
 3118TIP3    H130845   3.135   3.428  13.625 -0.5269 -0.3800 -0.9505
 3118TIP3    H230846   3.098   3.306  13.543 -0.8211 -0.9250 -0.0206
 3119TIP3   OH230847   2.701   1.483   0.518 -0.0870 -0.0264 -0.7212
 3119TIP3    H130848   2.647   1.503   0.441 -2.4072  1.3881  1.1351
 3119TIP3    H230849   2.639   1.449   0.582  1.4488  0.5195  1.1411
 3120TIP3   OH230850   3.103   0.029  16.958  0.2610 -0.1976  0.2748
 3120TIP3    H130851   3.146  -0.017  16.886  0.5946  0.8184 -0.1904
 3120TIP3    H230852   3.146   0.115  16.962 -0.2465  0.0317  1.2147
 3121TIP3   OH230853   4.065   1.418   4.673 -0.1134 -0.0581  0.4859
 3121TIP3    H130854   4.096   1.509   4.680  0.0025 -0.1814  1.9889
 3121TIP3    H230855   4.138   1.365   4.706 -1.3038 -0.4458  2.7078
 3122TIP3   OH230856   2.561   1.611   0.316  0.0716  0.2401 -0.7003
 3122TIP3    H130857   2.518   1.592   0.233 -0.7585  0.8233 -0.4141
 3122TIP3    H230858   2.573   1.706   0.315 -2.0493  0.5989  0.8203
 3123TIP3   OH230859   4.945   0.014  12.193  0.2738  0.2969  0.1268
 3123TIP3    H130860   4.894   0.002  12.273  0.1636  0.7978  0.1389
 3123TIP3    H230861   4.904  -0.044  12.129  1.7242 -1.7944  1.0059
 3124TIP3   OH230862   1.481   5.989  13.912  0.0270  0.4698  0.1763
 3124TIP3    H130863   1.550   5.952  13.857  1.7222  1.1306  1.7304
 3124TIP3    H230864   1.492   6.083  13.904 -1.0743  0.5938  0.0239
 3125TIP3   OH230865   1.396   0.096   4.228  0.3027 -0.2504  0.1251
 3125TIP3    H130866   1.437   0.092   4.141  0.4376  1.5565  0.0624
 3125TIP3    H230867   1.351   0.181   4.229 -0.8141 -0.8163  1.3534
 3126TIP3   OH230868   5.712   1.184  11.782  0.0773 -0.2536 -0.4391
 3126TIP3    H130869   5.647   1.179  11.852  1.5134  0.7855  1.0581
 3126TIP3    H230870   5.746   1.094  11.774  0.6534 -0.1876  0.9990
 3127TIP3   OH230871   5.966   5.564  14.347 -0.1782 -0.1582  0.0302
 3127TIP3    H130872   6.033   5.495  14.347  0.1262  0.1236  0.7251
 3127TIP3    H230873   6.014   5.643  14.369 -0.9075 -0.1325  1.6889
 3128TIP3   OH230874   4.156   6.479   3.460  0.0980 -0.2138 -0.9104
 3128TIP3    H130875   4.169   6.561   3.508  0.0637 -0.4994 -0.4013
 3128TIP3    H230876   4.186   6.498   3.371  0.4469  0.2396 -0.7011
 3129TIP3   OH230877   0.647   1.633   0.657 -0.4649 -0.0256 -0.5192
 3129TIP3    H130878   0.611   1.600   0.740 -0.5351 -0.2885 -0.6543
 3129TIP3    H230879   0.730   1.673   0.681 -1.1834  1.2781 -0.0765
 3130TIP3   OH230880   4.429   5.110  12.612 -0.3042 -0.1867 -0.4329
 3130TIP3    H130881   4.400   5.019  12.605  0.4752 -0.5683  0.9391
 3130TIP3    H230882   4.523   5.107  12.599 -0.4048  0.5972 -1.5075
 3131TIP3   OH230883   3.439   2.319   2.536 -0.2490  0.1291 -0.2142
 3131TIP3    H130884   3.501   2.372   2.486 -0.3704  0.2699 -0.2168
 3131TIP3    H230885   3.413   2.249   2.476  0.4917 -0.3776  0.0430
 3132TIP3   OH230886   2.479   0.689   3.014 -0.4962  0.2360  0.0124
 3132TIP3    H130887   2.557   0.718   2.967 -0.8746  2.3901  0.6357
 3132TIP3    H230888   2.504   0.605   3.053  1.1185  0.3585 -0.6826
 3133TIP3   OH230889   6.464   5.046   5.656  0.3294  0.1283  0.4545
 3133TIP3    H130890   6.435   5.024   5.567  0.7213  0.4898  0.2343
 3133TIP3    H230891   6.387   5.033   5.710 -0.1715  0.8156 -0.0772
 3134TIP3   OH230892   0.095   3.515   3.115 -0.0293 -0.3528  1.0323
 3134TIP3    H130893   0.131   3.527   3.028 -0.3278  1.7906  1.1513
 3134TIP3    H230894   0.055   3.427   3.113  1.2278 -0.9279 -0.4859
 3135TIP3   OH230895   6.585   6.066   0.069  0.4336 -0.3731 -0.0284
 3135TIP3    H130896   6.504   6.015   0.068 -1.4063  2.3467 -1.1246
 3135TIP3    H230897   6.652   6.005   0.039 -1.1404 -2.7784  1.0580
 3136TIP3   OH230898   5.785   6.019   3.550  0.1653 -0.3762 -0.0349
 3136TIP3    H130899   5.773   5.987   3.640  0.7576 -0.0317  0.1776
 3136TIP3    H230900   5.802   5.941   3.499 -0.5911 -0.6227  0.0712
 3137TIP3   OH230901   6.177   0.321   0.166 -0.0386 -0.0292 -0.0987
 3137TIP3    H130902   6.187   0.231   0.197 -1.3145 -1.1376 -2.6049
 3137TIP3    H230903   6.263   0.345   0.132  0.8222  0.4809  2.2068
 3138TIP3   OH230904   1.415   4.526   1.195 -0.2730  0.2495 -0.4244
 3138TIP3    H130905   1.488   4.571   1.238 -0.0562 -0.1665 -0.3536
 3138TIP3    H230906   1.341   4.539   1.255  0.7283 -3.0464  1.7960
 3139TIP3   OH230907   6.637   4.834  11.597  0.6800  0.2434 -0.0401
 3139TIP3    H130908   6.704   4.766  11.589  0.4513  0.0109  0.0075
 3139TIP3    H230909   6.577   4.816  11.525  1.6155  1.5238 -1.2085
 3140TIP3   OH230910   1.684   2.877   3.521 -0.8183  0.0194 -0.4257
 3140TIP3    H130911   1.728   2.955   3.555 -0.6711 -0.5067  0.6043
 3140TIP3    H230912   1.703   2.879   3.427 -1.6998  1.7962 -0.6078
 3141TIP3   OH230913   2.151   2.975   4.097 -0.3605  0.2050 -0.0134
 3141TIP3    H130914   2.140   2.936   4.010  1.0979 -0.7196  0.1770
 3141TIP3    H230915   2.245   2.993   4.102 -0.3917 -0.0002  1.4789
 3142TIP3   OH230916   0.316   4.407   0.597  0.7877 -0.1905 -0.1797
 3142TIP3    H130917   0.278   4.322   0.616 -1.4355  0.7903  0.0363
 3142TIP3    H230918   0.333   4.446   0.683 -1.3201  0.8559 -0.1782
 3143TIP3   OH230919   4.778   5.353   0.160 -0.4374  0.4623 -0.4728
 3143TIP3    H130920   4.785   5.414   0.086 -0.1656  3.5174  1.8794
 3143TIP3    H230921   4.686   5.354   0.184 -0.3418  0.3718 -0.0941
 3144TIP3   OH230922   2.752   2.168  13.414 -0.1262 -0.6292 -0.1328
 3144TIP3    H130923   2.833   2.218  13.401  0.0875 -1.2818 -1.6259
 3144TIP3    H230924   2.781   2.076  13.412 -0.9460 -0.8898 -1.3764
 3145TIP3   OH230925   4.269   5.273   6.032 -0.0960  0.4844 -0.3344
 3145TIP3    H130926   4.201   5.275   6.100 -0.0870 -2.1876 -0.1615
 3145TIP3    H230927   4.351   5.288   6.080 -0.1731 -0.5533  0.1385
 3146TIP3   OH230928   1.672   2.310   4.348  0.2533 -0.4636 -0.4396
 3146TIP3    H130929   1.687   2.234   4.291 -1.1868 -0.7133 -0.5204
 3146TIP3    H230930   1.579   2.329   4.339  0.6475  1.5262 -0.6385
 3147TIP3   OH230931   2.878   1.402   5.969 -0.2318  0.4524  0.2350
 3147TIP3    H130932   2.861   1.390   5.875 -0.5286  0.2173  0.3173
 3147TIP3    H230933   2.791   1.407   6.008 -0.1075  0.2357  0.5395
 3148TIP3   OH230934   5.907   1.949   6.240 -0.2371 -0.0006  0.0623
 3148TIP3    H130935   5.840   1.990   6.295  1.3854 -0.9088  2.9364
 3148TIP3    H230936   5.898   1.855   6.256  1.5183 -0.1584  0.3278
 3149TIP3   OH230937   3.356   4.917   0.278 -0.0253 -0.4840  0.5413
 3149TIP3    H130938   3.405   4.983   0.327 -0.6368  0.3924 -0.0044
 3149TIP3    H230939   3.381   4.834   0.318  1.1863  0.0193  0.8810
 3150TIP3   OH230940   0.683   1.263   1.873 -0.0634  0.0215  0.2957
 3150TIP3    H130941   0.692   1.226   1.785  1.3524 -0.6377  0.6933
 3150TIP3    H230942   0.723   1.350   1.866  2.1562 -0.9030  0.7976
 3151TIP3   OH230943   2.453   3.422  13.452  0.4894  0.7699 -0.4507
 3151TIP3    H130944   2.492   3.507  13.474  0.4476  0.4768  0.8406
 3151TIP3    H230945   2.509   3.386  13.384  1.2940  1.2524 -0.0584
 3152TIP3   OH230946   2.021   6.222  13.238  0.1722 -0.3676  0.3429
 3152TIP3    H130947   2.098   6.275  13.218  0.2315 -0.7599 -0.4832
 3152TIP3    H230948   1.948   6.271  13.202  0.2817 -1.0831 -0.9064
 3153TIP3   OH230949   3.195   2.630  15.517 -0.0858  0.4284  0.2149
 3153TIP3    H130950   3.229   2.700  15.572  0.5839  1.8413 -1.9024
 3153TIP3    H230951   3.170   2.673  15.435  0.3878 -1.7944 -1.1840
 3154TIP3   OH230952   4.754   5.722   4.268  0.1746  0.0252 -0.3495
 3154TIP3    H130953   4.820   5.772   4.220  0.7190  0.1423  0.5018
 3154TIP3    H230954   4.782   5.726   4.360  0.4850 -2.2154 -0.2817
 3155TIP3   OH230955   5.485   3.004  16.984  0.0291 -0.3606  0.2725
 3155TIP3    H130956   5.471   3.084  16.934  3.5502  0.4332  0.3124
 3155TIP3    H230957   5.536   2.948  16.925 -0.1553 -1.5295  1.1768
 3156TIP3   OH230958   3.589   0.039  15.123 -0.2377 -0.3494 -0.0129
 3156TIP3    H130959   3.620  -0.045  15.089 -0.1854 -0.7537  0.9829
 3156TIP3    H230960   3.578   0.094  15.046  0.0789 -1.1573 -0.6492
 3157TIP3   OH230961   0.875   3.341  16.674 -0.2261  0.0028 -0.0570
 3157TIP3    H130962   0.839   3.263  16.631  0.5754  1.1937 -3.1212
 3157TIP3    H230963   0.954   3.309  16.719 -1.5911 -1.4544  1.4377
 3158TIP3   OH230964   2.982   0.458   0.264 -0.2441  0.5723  1.1481
 3158TIP3    H130965   3.029   0.504   0.334  0.8771  0.2627  0.6308
 3158TIP3    H230966   3.050   0.435   0.201 -0.8489 -1.2481  1.0990
 3159TIP3   OH230967   1.467   2.422  12.174 -0.4747 -0.8224  0.1283
 3159TIP3    H130968   1.396   2.368  12.208 -1.1912  0.5556  0.9162
 3159TIP3    H230969   1.462   2.503  12.225 -0.6197  0.7411 -2.2027
 3160TIP3   OH230970   6.253   2.011  11.385  0.3682 -0.5980 -0.2256
 3160TIP3    H130971   6.182   1.958  11.422  0.4659  0.4126  1.5382
 3160TIP3    H230972   6.210   2.090  11.354  0.4739 -0.8713 -1.1023
 3161TIP3   OH230973   1.871   5.866  12.747  0.3321 -0.3576 -0.1791
 3161TIP3    H130974   1.825   5.785  12.728 -0.0402 -0.3170  0.5259
 3161TIP3    H230975   1.858   5.920  12.669 -0.1995 -0.6238 -0.2769
 3162TIP3   OH230976   2.327   4.549  11.589 -0.1227 -0.6435 -0.1003
 3162TIP3    H130977   2.373   4.530  11.671  2.7965 -1.0592 -1.7138
 3162TIP3    H230978   2.331   4.645  11.581 -1.6967 -0.4635  0.8724
 3163TIP3   OH230979   6.686   3.669  12.093 -0.3641 -0.4971 -0.0318
 3163TIP3    H130980   6.723   3.646  12.178 -0.7603  0.0125  0.2869
 3163TIP3    H230981   6.724   3.754  12.072 -0.1498 -0.6907 -0.4406
 3164TIP3   OH230982   4.025   2.284   2.984 -0.2430  0.0100 -0.3761
 3164TIP3    H130983   3.955   2.292   2.919 -0.5264 -0.9051 -0.2027
 3164TIP3    H230984   4.094   2.341   2.951 -1.9441  2.9744  0.7134
 3165TIP3   OH230985   4.046   1.859   2.459 -0.0019  0.0917  0.2664
 3165TIP3    H130986   4.106   1.933   2.452 -0.0376  0.0866 -0.0999
 3165TIP3    H230987   3.988   1.881   2.532 -0.1008  0.4826  0.0677
 3166TIP3   OH230988   4.294   1.030   4.692 -0.4312  0.3634  0.2534
 3166TIP3    H130989   4.245   0.951   4.668  0.5477 -0.2759  0.3473
 3166TIP3    H230990   4.363   1.036   4.626  1.5992 -0.7825  2.1877
 3167TIP3   OH230991   0.918   3.357  16.411 -0.3471  0.2084 -0.7994
 3167TIP3    H130992   0.977   3.431  16.395 -0.1936  0.8897  2.1716
 3167TIP3    H230993   0.920   3.347  16.507 -2.3787 -2.0033 -0.9192
 3168TIP3   OH230994   5.456   3.838   1.535  0.1212 -0.5501 -0.2049
 3168TIP3    H130995   5.518   3.796   1.595  0.3798  0.5874  0.3506
 3168TIP3    H230996   5.418   3.766   1.486  2.3041 -1.2539 -0.9863
 3169TIP3   OH230997   4.038   0.999  15.857 -0.2160 -0.2527 -0.9728
 3169TIP3    H130998   3.968   0.969  15.914 -0.1940 -0.7427 -1.2025
 3169TIP3    H230999   3.994   1.028  15.777 -0.2454  0.4201 -0.7211
 3170TIP3   OH231000   4.884   2.257  13.363 -0.0156 -0.7450 -0.1539
 3170TIP3    H131001   4.920   2.169  13.370  2.0645  0.0084 -0.7321
 3170TIP3    H231002   4.892   2.280  13.271 -3.1580 -0.9390 -0.5773
 3171TIP3   OH231003   4.878   3.804  14.236 -0.3562  0.6655 -0.2031
 3171TIP3    H131004   4.813   3.873  14.245 -1.3676 -0.3178  0.3221
 3171TIP3    H231005   4.928   3.828  14.158 -1.9888  0.9579 -1.2129
 3172TIP3   OH231006   5.760   2.994  11.030 -0.1400  0.4217 -0.1226
 3172TIP3    H131007   5.837   3.048  11.011 -0.6153  2.4479  2.9229
 3172TIP3    H231008   5.777   2.911  10.986  3.6292  0.9164  0.0665
 3173TIP3   OH231009   0.218   4.214  16.144 -0.5616 -0.5530  0.5951
 3173TIP3    H131010   0.246   4.264  16.067 -1.5364  1.1320  1.2665
 3173TIP3    H231011   0.123   4.207  16.135 -0.6832 -0.3908  1.5918
 3174TIP3   OH231012   6.706   2.528  14.546 -0.4778  0.2929 -0.4099
 3174TIP3    H131013   6.617   2.492  14.548  0.3767 -1.9338  1.4205
 3174TIP3    H231014   6.752   2.473  14.483  0.0557  0.2747 -0.0027
 3175TIP3   OH231015   0.768   6.438   1.457 -0.4158 -0.4753 -0.4751
 3175TIP3    H131016   0.828   6.376   1.499 -0.4121  0.2130  0.5936
 3175TIP3    H231017   0.805   6.453   1.370  1.7902  0.9886  0.6310
 3176TIP3   OH231018   5.550   6.851   5.447 -0.0749  0.0417  0.3083
 3176TIP3    H131019   5.537   6.788   5.518 -2.1603 -0.8696 -0.8095
 3176TIP3    H231020   5.629   6.900   5.473  1.4670 -2.7678  1.3991
 3177TIP3   OH231021   5.711   5.058   3.405 -0.1946 -0.2642  0.0626
 3177TIP3    H131022   5.781   5.098   3.456 -0.6781 -1.4998  1.7710
 3177TIP3    H231023   5.646   5.127   3.394  1.1036  0.8197 -1.3108
 3178TIP3   OH231024   2.259   1.761   3.220 -0.0248 -0.3828 -0.5158
 3178TIP3    H131025   2.247   1.849   3.186 -0.1659  0.3495  1.2871
 3178TIP3    H231026   2.307   1.774   3.302  0.0405 -1.9924 -0.2706
 3179TIP3   OH231027   5.454   4.469   1.803  0.3146  0.1029 -0.4308
 3179TIP3    H131028   5.404   4.530   1.748 -2.0800 -2.5723 -1.5050
 3179TIP3    H231029   5.511   4.424   1.741  0.3471 -0.3330 -0.0838
 3180TIP3   OH231030   2.709   5.563   4.600  0.2228 -0.1060 -0.1292
 3180TIP3    H131031   2.795   5.520   4.592 -0.4399 -1.4198 -0.4307
 3180TIP3    H231032   2.724   5.652   4.568  1.7342  0.0360  0.8752
 3181TIP3   OH231033   3.621   1.504  12.030 -0.7016 -0.2591  0.4501
 3181TIP3    H131034   3.587   1.427  11.984  2.6854 -0.7062 -1.6664
 3181TIP3    H231035   3.604   1.577  11.971  2.8364 -0.7030 -1.4448
 3182TIP3   OH231036   6.876   5.707   5.499  0.7461  0.4512 -0.2976
 3182TIP3    H131037   6.925   5.788   5.510 -0.1490  1.0547 -0.6627
 3182TIP3    H231038   6.938   5.638   5.521  1.6085  1.2216 -0.2842
 3183TIP3   OH231039   3.850   4.836   2.561 -0.2940  0.5754  0.1244
 3183TIP3    H131040   3.924   4.807   2.508 -1.0905  2.1649 -2.0263
 3183TIP3    H231041   3.863   4.794   2.646  1.8013 -1.0280 -0.8846
 3184TIP3   OH231042   4.541   3.631  16.631 -0.6870  0.4051  0.3689
 3184TIP3    H131043   4.636   3.636  16.640 -0.6171  0.7882 -0.4210
 3184TIP3    H231044   4.519   3.700  16.568 -1.5799  0.8167  1.0986
 3185TIP3   OH231045   2.262   4.898  14.804  0.1079  0.1605 -0.5550
 3185TIP3    H131046   2.186   4.955  14.813  1.2287  1.8471 -1.2357
 3185TIP3    H231047   2.311   4.911  14.886  0.3100  0.0971 -0.6655
 3186TIP3   OH231048   5.247   5.665  11.858  0.9057  0.4279 -0.0235
 3186TIP3    H131049   5.267   5.571  11.861  1.6561  0.4589 -2.2533
 3186TIP3    H231050   5.323   5.707  11.899  0.9209  0.1097  0.2838
 3187TIP3   OH231051   5.412   4.845   1.211 -0.0824  0.3468 -0.6782
 3187TIP3    H131052   5.330   4.798   1.203 -1.2690  2.1939 -0.1064
 3187TIP3    H231053   5.426   4.885   1.126  0.3653 -0.1647 -0.8488
 3188TIP3   OH231054   0.826   5.924  10.829 -0.3699 -0.0615 -0.6649
 3188TIP3    H131055   0.738   5.956  10.808 -0.5932 -0.6514 -0.6478
 3188TIP3    H231056   0.849   5.867  10.756 -1.4905 -2.7855  0.9573
 3189TIP3   OH231057   1.500   4.241   0.386  0.3153  0.2962  0.5598
 3189TIP3    H131058   1.463   4.166   0.340 -2.1454  1.4502  0.5335
 3189TIP3    H231059   1.581   4.261   0.339 -1.0823  0.1890 -2.0264
 3190TIP3   OH231060   1.388   5.472   6.335 -0.5001 -0.2441  0.0706
 3190TIP3    H131061   1.377   5.524   6.256 -2.2332 -0.4745  0.1150
 3190TIP3    H231062   1.443   5.526   6.393  3.5322 -1.3377 -2.3498
 3191TIP3   OH231063   3.794   0.470   3.196  0.2050 -0.4102  0.3783
 3191TIP3    H131064   3.797   0.454   3.102  0.4262 -0.4620  0.3931
 3191TIP3    H231065   3.855   0.406   3.233  1.4643  0.7461  0.4007
 3192TIP3   OH231066   1.464   3.805  15.502  0.7638  0.0434 -0.2712
 3192TIP3    H131067   1.559   3.805  15.487  0.6981  0.0408 -0.6885
 3192TIP3    H231068   1.447   3.721  15.546  0.8981 -0.1389 -0.5660
 3193TIP3   OH231069   0.938   1.893  14.296  0.1531 -0.0303  0.3153
 3193TIP3    H131070   0.892   1.974  14.274  0.0471  0.4458  2.1304
 3193TIP3    H231071   0.962   1.903  14.388  1.4225 -1.4655  0.1835
 3194TIP3   OH231072   2.492   0.444  15.019  0.2084  0.3506  0.4645
 3194TIP3    H131073   2.573   0.394  15.026  0.4499  0.1643 -2.4733
 3194TIP3    H231074   2.520   0.535  15.017  0.3993  0.2798 -0.7167
 3195TIP3   OH231075   1.040   4.950   2.336  0.1903  0.1770 -0.1573
 3195TIP3    H131076   0.976   5.013   2.369 -0.2554 -0.4603  0.2055
 3195TIP3    H231077   1.061   4.981   2.248  0.5237  1.2427  0.2731
 3196TIP3   OH231078   3.887   5.001   0.772  0.5706 -0.3016 -0.3886
 3196TIP3    H131079   3.887   5.063   0.845  0.9916 -0.5710 -0.1524
 3196TIP3    H231080   3.897   5.055   0.694 -1.7548  0.1678 -0.4314
 3197TIP3   OH231081   6.513   3.810  16.326 -0.0357  0.5984 -0.6355
 3197TIP3    H131082   6.525   3.715  16.324  0.4721  0.6580 -0.5593
 3197TIP3    H231083   6.425   3.824  16.292 -0.4085  0.0457  0.0744
 3198TIP3   OH231084   5.515   5.513  10.339 -0.6585 -0.6176  0.0085
 3198TIP3    H131085   5.480   5.514  10.250 -0.4003  0.0339 -0.0925
 3198TIP3    H231086   5.566   5.593  10.345 -2.4828  0.5062  1.4793
 3199TIP3   OH231087   1.320   0.432  11.723  0.3604  0.0973 -0.2778
 3199TIP3    H131088   1.365   0.514  11.703 -2.2908  1.4872 -1.0230
 3199TIP3    H231089   1.253   0.424  11.655 -0.3924 -1.9641  0.6184
 3200TIP3   OH231090   6.456   1.145   0.363 -0.2641 -0.8857 -0.4750
 3200TIP3    H131091   6.518   1.072   0.356  1.3214  0.3645 -0.1225
 3200TIP3    H231092   6.446   1.177   0.273 -0.7439 -1.3446 -0.5905
 3201TIP3   OH231093   3.432   2.214  10.766  0.5977  0.1240  0.7221
 3201TIP3    H131094   3.340   2.220  10.743  0.4011 -0.2641  1.3622
 3201TIP3    H231095   3.471   2.296  10.737  0.3469 -0.2687 -0.8239
 3202TIP3   OH231096   5.797   5.609  14.124  0.4386 -0.1396  0.5675
 3202TIP3    H131097   5.851   5.594  14.202 -0.1628 -0.7531  0.8784
 3202TIP3    H231098   5.753   5.692  14.142  1.5408  0.5576  0.1475
 3203TIP3   OH231099   1.614   5.262  14.061  0.1283  0.0170  0.4844
 3203TIP3    H131100   1.688   5.251  14.001  1.9469 -0.4354  2.6787
 3203TIP3    H231101   1.595   5.173  14.092  0.1866  0.3905  1.6349
 3204TIP3   OH231102   0.072   0.301   5.385 -0.3290  0.0339 -0.2478
 3204TIP3    H131103   0.140   0.233   5.386 -2.4269 -2.2297 -1.0128
 3204TIP3    H231104   0.012   0.275   5.456 -1.4456  0.7881 -0.8827
 3205TIP3   OH231105   2.950   3.431   2.234  0.0764  0.3496 -0.0520
 3205TIP3    H131106   2.942   3.478   2.317  0.5448  0.2016  0.0786
 3205TIP3    H231107   2.957   3.339   2.259  0.2843  0.3105 -0.2480
 3206TIP3   OH231108   5.005   6.498  12.749  0.2405  0.3568 -0.1938
 3206TIP3    H131109   5.030   6.586  12.719  0.3019  0.4267  0.0529
 3206TIP3    H231110   4.910   6.496  12.740  0.0772  0.9474  1.0607
 3207TIP3   OH231111   3.471   4.990   5.441  0.3246  0.5435  0.3619
 3207TIP3    H131112   3.453   4.906   5.399 -0.1769  1.1270 -0.6320
 3207TIP3    H231113   3.557   5.015   5.409 -0.5763  1.5892 -1.4126
 3208TIP3   OH231114   3.531   5.639  13.783 -0.3697 -0.3137 -0.0622
 3208TIP3    H131115   3.619   5.676  13.775 -0.8226  0.8043 -0.1760
 3208TIP3    H231116   3.491   5.655  13.698 -0.4486 -1.5013 -0.2634
 3209TIP3   OH231117   2.438   2.708   2.011 -0.7048  0.0906 -0.3929
 3209TIP3    H131118   2.418   2.784   2.065 -0.0307  1.6806 -2.2365
 3209TIP3    H231119   2.494   2.654   2.065  0.9318  2.1930  0.1536
 3210TIP3   OH231120   6.553   1.660  14.354  0.0777  0.9314 -0.3184
 3210TIP3    H131121   6.540   1.609  14.435  1.0690  0.2431 -0.5743
 3210TIP3    H231122   6.601   1.601  14.296 -0.6596  1.4012 -1.4453
 3211TIP3   OH231123   5.313   5.105  12.422 -0.8469 -0.7423 -0.5549
 3211TIP3    H131124   5.396   5.105  12.374 -0.3994  2.1054  0.0847
 3211TIP3    H231125   5.330   5.051  12.499  1.5492  2.2232  1.2172
 3212TIP3   OH231126   3.913   5.073   0.498 -0.4071  0.2315  0.5564
 3212TIP3    H131127   3.927   5.034   0.411 -0.0685  0.8919  0.3055
 3212TIP3    H231128   3.984   5.136   0.508  0.3097 -0.7343  1.8708
 3213TIP3   OH231129   2.277   1.309   2.381 -0.1509 -0.5724  0.2433
 3213TIP3    H131130   2.315   1.225   2.355 -1.2945 -0.3175 -2.6298
 3213TIP3    H231131   2.318   1.373   2.322 -1.2395  0.4648  0.5842
 3214TIP3   OH231132   3.951   5.356  11.151  0.3295 -0.0127 -0.2641
 3214TIP3    H131133   3.898   5.347  11.072  1.6108 -0.3131 -1.1130
 3214TIP3    H231134   3.889   5.344  11.223 -0.8923  0.4491 -1.2112
 3215TIP3   OH231135   2.225   2.212  12.267 -0.3486 -0.3443 -0.2729
 3215TIP3    H131136   2.257   2.278  12.329  0.3169  0.0979 -1.0636
 3215TIP3    H231137   2.163   2.259  12.211 -1.1621 -0.8094  0.2188
 3216TIP3   OH231138   3.980   0.726   0.586  0.2634  0.1566  0.6990
 3216TIP3    H131139   4.046   0.660   0.606  1.0982  0.5536 -0.6201
 3216TIP3    H231140   3.951   0.758   0.672  0.4454 -1.3137  1.3253
 3217TIP3   OH231141   2.040   0.554   1.018 -0.2533  0.5208  0.1175
 3217TIP3    H131142   2.000   0.640   1.030  0.9737  1.3545 -1.3112
 3217TIP3    H231143   2.009   0.526   0.932  1.6977  0.9632 -0.8017
 3218TIP3   OH231144   5.306   1.453  12.803 -0.2701 -0.5668 -0.4592
 3218TIP3    H131145   5.229   1.398  12.817  0.6226 -2.2322 -1.7450
 3218TIP3    H231146   5.326   1.443  12.710  2.1423 -1.0684  0.0541
 3219TIP3   OH231147   5.495   3.813  15.237  0.0918  0.2832 -0.3106
 3219TIP3    H131148   5.440   3.829  15.313 -0.1024  2.7720 -0.9055
 3219TIP3    H231149   5.485   3.719  15.220 -1.1851  0.0024  1.6786
 3220TIP3   OH231150   6.568   5.733   2.088 -0.2578 -0.5276 -0.2173
 3220TIP3    H131151   6.582   5.742   1.994  0.8553 -0.6029 -0.0712
 3220TIP3    H231152   6.532   5.817   2.115 -0.4441 -0.4534 -0.6799
 3221TIP3   OH231153   3.285   1.905  16.612  0.2164 -0.0929  0.0145
 3221TIP3    H131154   3.237   1.831  16.575 -0.1086 -0.1619  0.5615
 3221TIP3    H231155   3.352   1.864  16.668  1.1087 -0.0061 -0.9547
 3222TIP3   OH231156   6.155   5.076  10.535 -0.0466 -0.2443 -0.9839
 3222TIP3    H131157   6.201   4.997  10.563 -0.0118 -0.9103 -2.7799
 3222TIP3    H231158   6.210   5.148  10.567  0.3400 -0.9555 -0.0030
 3223TIP3   OH231159   2.333   2.108   5.819  0.3951  0.0888 -0.5812
 3223TIP3    H131160   2.300   2.173   5.881  0.6847 -1.3672  1.1938
 3223TIP3    H231161   2.281   2.122   5.739 -0.6841  1.3874  0.3041
 3224TIP3   OH231162   2.327   6.014   3.339  0.0495 -0.1669 -0.3700
 3224TIP3    H131163   2.385   5.998   3.264  0.0790 -1.0898 -0.1663
 3224TIP3    H231164   2.381   5.995   3.415 -0.7322 -1.9075 -0.1939
 3225TIP3   OH231165   0.318   5.922   6.187 -0.0162  0.3055 -0.3266
 3225TIP3    H131166   0.337   5.848   6.244  0.7149  1.0018  0.3717
 3225TIP3    H231167   0.403   5.965   6.174 -0.4916  1.2966 -0.2947
 3226TIP3   OH231168   3.886   1.231   1.041 -0.3444  0.0146  0.6290
 3226TIP3    H131169   3.927   1.251   0.957 -0.6832 -1.2159  0.1603
 3226TIP3    H231170   3.955   1.192   1.094 -0.1461  0.7366  0.9217
 3227TIP3   OH231171   1.395   6.594   2.843 -0.5028 -0.2447 -0.5516
 3227TIP3    H131172   1.422   6.506   2.817 -0.9805 -0.4064 -0.5034
 3227TIP3    H231173   1.476   6.635   2.874 -0.3112 -0.7283 -0.3942
 3228TIP3   OH231174   0.156   2.853   4.599  0.0208  0.2112  0.2933
 3228TIP3    H131175   0.093   2.875   4.530  0.3150 -0.4953 -0.2153
 3228TIP3    H231176   0.230   2.814   4.552  0.3298 -0.0517  0.9895
 3229TIP3   OH231177   4.159   5.242  14.382  0.2838 -0.3928 -0.3555
 3229TIP3    H131178   4.073   5.200  14.387 -0.8822  1.6574 -2.0361
 3229TIP3    H231179   4.183   5.237  14.290  0.7190  1.4105 -0.3696
 3230TIP3   OH231180   1.310   5.401   5.321  0.1437  0.4510  0.3111
 3230TIP3    H131181   1.250   5.349   5.375  1.6733  0.4311  2.0958
 3230TIP3    H231182   1.258   5.476   5.292 -1.1495 -0.3366  0.5353
 3231TIP3   OH231183   3.418   5.146  12.990 -0.2028  0.5786  0.0117
 3231TIP3    H131184   3.483   5.093  13.036 -1.7207  0.3598  2.0394
 3231TIP3    H231185   3.460   5.231  12.977  1.0210 -0.0306 -0.1599
 3232TIP3   OH231186   5.197   4.125  16.817  0.0834  0.3262  0.4813
 3232TIP3    H131187   5.285   4.095  16.793  0.2715  1.8535 -1.0310
 3232TIP3    H231188   5.194   4.120  16.912  2.2189  1.2000  0.6475
 3233TIP3   OH231189   4.890   2.910   0.773  0.6886  0.3319 -1.1273
 3233TIP3    H131190   4.856   2.967   0.842  0.2009 -0.2684 -0.8683
 3233TIP3    H231191   4.985   2.915   0.783  0.6502  0.9943 -1.0249
 3234TIP3   OH231192   5.517   5.134   5.212  0.1930  0.4571  0.1492
 3234TIP3    H131193   5.467   5.112   5.134 -0.2356  2.1720 -0.0967
 3234TIP3    H231194   5.452   5.137   5.282  0.3435  0.3059  0.2946
 3235TIP3   OH231195   2.756   2.239  13.710 -0.2082 -0.4495  0.1418
 3235TIP3    H131196   2.704   2.293  13.651 -0.2725  0.1703  0.7501
 3235TIP3    H231197   2.846   2.267  13.694 -0.2470 -0.1137  0.4999
 3236TIP3   OH231198   2.337   2.011  14.773 -0.6841  0.0079 -0.5322
 3236TIP3    H131199   2.378   1.925  14.764  1.4124  0.7060  1.4154
 3236TIP3    H231200   2.272   1.999  14.843 -0.6378 -0.0593 -0.5013
 3237TIP3   OH231201   1.009   3.365   2.468  0.3821  0.0080 -0.2750
 3237TIP3    H131202   1.012   3.299   2.538  0.1426 -0.0035 -0.2739
 3237TIP3    H231203   1.052   3.324   2.394  2.2642  0.6615  0.3865
 3238TIP3   OH231204   5.916   6.319   5.616 -0.0292 -0.2663  0.5275
 3238TIP3    H131205   5.968   6.394   5.587 -0.3654 -0.1028  0.3400
 3238TIP3    H231206   5.921   6.257   5.543 -1.7380  0.5743 -0.3720
 3239TIP3   OH231207   4.384   2.266   4.945  0.0432  0.3521 -0.3299
 3239TIP3    H131208   4.294   2.286   4.970  0.1731  0.5686 -0.0267
 3239TIP3    H231209   4.412   2.342   4.893 -0.2016 -0.0637 -1.0845
 3240TIP3   OH231210   1.106   1.049   6.464 -0.0944 -0.3137  0.7658
 3240TIP3    H131211   1.172   1.038   6.532  1.6888  1.9142 -0.4544
 3240TIP3    H231212   1.114   1.140   6.437 -2.6286 -0.3835 -0.5678
 3241TIP3   OH231213   0.092   4.683  13.937 -0.1009  0.3475 -0.1273
 3241TIP3    H131214   0.021   4.646  13.989  0.3887 -0.3865  0.0297
 3241TIP3    H231215   0.165   4.692  13.999  0.6527 -1.0109 -0.7765
 3242TIP3   OH231216   1.382   2.927   1.514  0.2240 -0.5061  0.0506
 3242TIP3    H131217   1.315   2.926   1.583 -0.3351  0.0868 -0.4776
 3242TIP3    H231218   1.360   2.854   1.457  1.7714 -2.1958  1.4845
 3243TIP3   OH231219   3.802   3.779   1.491  1.0771  0.1035 -0.4183
 3243TIP3    H131220   3.869   3.841   1.462  0.9139 -0.1429 -1.3471
 3243TIP3    H231221   3.849   3.699   1.512  1.0768 -0.1154 -1.2057
 3244TIP3   OH231222   5.629   1.406  13.246 -0.2164  0.2245 -0.1703
 3244TIP3    H131223   5.663   1.374  13.162  0.5385 -0.7039  0.4596
 3244TIP3    H231224   5.704   1.398  13.306 -1.2202 -0.8473  1.0104
 3245TIP3   OH231225   6.754   0.323   5.593 -0.3197  0.5117  0.4772
 3245TIP3    H131226   6.764   0.296   5.685 -0.8171 -1.1645  0.0744
 3245TIP3    H231227   6.663   0.352   5.586 -0.7651 -0.8431  0.2046
 3246TIP3   OH231228   6.753   2.428   4.242  0.3509  0.1735  0.2031
 3246TIP3    H131229   6.748   2.376   4.162 -0.3422  1.0906 -0.3755
 3246TIP3    H231230   6.766   2.364   4.312  0.0794 -0.7181 -0.5424
 3247TIP3   OH231231   0.957   2.654  13.800 -0.1777  0.0955 -0.7494
 3247TIP3    H131232   0.987   2.685  13.886  0.2461  0.8973 -1.1818
 3247TIP3    H231233   1.015   2.580  13.781  0.2512  0.4126 -0.6993
 3248TIP3   OH231234   2.399   0.224  14.202 -0.7970 -0.1678  0.0423
 3248TIP3    H131235   2.432   0.184  14.282  1.0520  0.1272 -0.5375
 3248TIP3    H231236   2.457   0.193  14.133 -0.1806  2.3149 -0.6510
 3249TIP3   OH231237   2.138   0.374   2.073 -0.2511  0.4949  1.1811
 3249TIP3    H131238   2.162   0.429   2.148  1.0003  1.0625  0.3962
 3249TIP3    H231239   2.116   0.436   2.004 -1.6826 -0.0262  1.1251
 3250TIP3   OH231240   4.082   1.277  14.697 -0.3659  0.8048 -0.1444
 3250TIP3    H131241   4.106   1.252  14.786 -1.9305 -1.7401 -0.3465
 3250TIP3    H231242   4.004   1.331  14.707  0.4269  1.9514  0.0644
 3251TIP3   OH231243   0.566   1.448   0.890  0.0474 -0.5005 -0.6452
 3251TIP3    H131244   0.518   1.391   0.950  0.0835 -1.9219 -1.9101
 3251TIP3    H231245   0.591   1.523   0.944 -0.3413 -1.4834  0.9885
 3252TIP3   OH231246   5.830   5.584   0.390  0.6840 -0.0609 -0.1720
 3252TIP3    H131247   5.734   5.583   0.384  0.6936  0.2821 -0.4379
 3252TIP3    H231248   5.848   5.598   0.483  0.4696  0.5301 -0.2157
 3253TIP3   OH231249   6.649   3.401  12.268 -0.3772 -0.2376  0.3145
 3253TIP3    H131250   6.731   3.445  12.293 -0.1824 -0.6512  0.4118
 3253TIP3    H231251   6.621   3.356  12.348 -1.3878  0.9482  0.6656
 3254TIP3   OH231252   5.908   1.106  15.252  0.3293 -0.6719  0.3768
 3254TIP3    H131253   6.000   1.132  15.247 -0.0434  0.5928 -0.2783
 3254TIP3    H231254   5.897   1.077  15.343  0.8450  1.4178  1.1894
 3255TIP3   OH231255   5.430   5.453  11.908  0.4932  0.7284  0.3672
 3255TIP3    H131256   5.442   5.511  11.833 -2.3906  0.2352 -0.6182
 3255TIP3    H231257   5.447   5.365  11.874  0.8804  0.6382  0.7790
 3256TIP3   OH231258   4.067   2.029  12.999  0.3623 -0.1305  0.5124
 3256TIP3    H131259   4.134   2.093  13.023  1.6887 -0.8012 -1.1762
 3256TIP3    H231260   3.996   2.082  12.962  0.1004  0.5548  1.9320
 3257TIP3   OH231261   5.060   3.302   0.465 -0.8739  0.5302 -0.3378
 3257TIP3    H131262   5.030   3.372   0.407 -0.4856 -0.0908 -1.2965
 3257TIP3    H231263   5.145   3.332   0.496 -0.5278  0.3147 -1.0590
 3258TIP3   OH231264   1.662   4.629   5.121  0.2094 -0.6994 -0.4671
 3258TIP3    H131265   1.594   4.696   5.122 -0.1491 -1.0645 -0.2612
 3258TIP3    H231266   1.619   4.550   5.154  0.2577 -1.3886 -1.9811
 3259TIP3   OH231267   4.442   4.053   4.245 -0.4705 -0.3099  0.3328
 3259TIP3    H131268   4.353   4.032   4.217  0.5845 -3.0349 -1.4368
 3259TIP3    H231269   4.452   4.007   4.328 -0.8635  0.4316  0.7949
 3260TIP3   OH231270   5.179   1.018   1.406 -0.4543  0.6381  0.1440
 3260TIP3    H131271   5.104   1.059   1.449 -1.8312 -0.3409 -1.1842
 3260TIP3    H231272   5.162   0.924   1.413 -0.4850  0.4239 -1.9649
 3261TIP3   OH231273   2.972   0.442  14.705 -0.2516 -0.0086  0.2383
 3261TIP3    H131274   3.004   0.361  14.745  0.3176 -0.9484 -1.9725
 3261TIP3    H231275   2.892   0.416  14.659 -0.6412  0.9247  0.3752
 3262TIP3   OH231276   4.677   4.746  16.384 -0.3182 -0.1855 -0.2688
 3262TIP3    H131277   4.668   4.835  16.350 -2.6344 -0.2909 -0.0775
 3262TIP3    H231278   4.652   4.752  16.476  1.7819 -0.6582  0.3819
 3263TIP3   OH231279   2.399   1.780  13.231  0.1451 -0.0197 -0.2853
 3263TIP3    H131280   2.446   1.710  13.277  1.5277  1.0359 -0.0005
 3263TIP3    H231281   2.445   1.787  13.147 -1.6620 -1.1878 -1.4484
 3264TIP3   OH231282   6.209   2.245   1.736  0.7786  0.3346  0.1801
 3264TIP3    H131283   6.148   2.226   1.665 -0.2166  1.4385  0.6992
 3264TIP3    H231284   6.221   2.340   1.732  0.8002  0.3989  1.4124
 3265TIP3   OH231285   3.315   3.278  13.423 -0.3687  0.5352 -0.1468
 3265TIP3    H131286   3.380   3.226  13.470 -0.0352 -0.2252 -1.3889
 3265TIP3    H231287   3.246   3.216  13.400 -0.8487  1.0329 -0.0569
 3266TIP3   OH231288   6.840   3.706  10.461  0.0946  0.1889  0.3194
 3266TIP3    H131289   6.818   3.799  10.455  0.5284  0.4546  2.3058
 3266TIP3    H231290   6.762   3.661  10.429  1.0964  1.1700 -4.2126
 3267TIP3   OH231291   6.352   6.601  15.852  0.4969  0.0631  0.1004
 3267TIP3    H131292   6.274   6.624  15.904  0.0608  0.5695 -0.7562
 3267TIP3    H231293   6.415   6.671  15.872  0.2837  0.3267 -0.1504
 3268TIP3   OH231294   5.018   1.443   3.449 -0.2990  0.0847  0.3013
 3268TIP3    H131295   4.956   1.494   3.502  0.8788 -1.6506  3.6775
 3268TIP3    H231296   4.963   1.385   3.397 -1.6343 -0.5849  2.3158
 3269TIP3   OH231297   5.237   6.329   4.145  0.1999 -0.6285  0.5604
 3269TIP3    H131298   5.203   6.255   4.094  0.9028  0.1399 -1.1244
 3269TIP3    H231299   5.328   6.337   4.116  0.3103  0.4918  1.1889
 3270TIP3   OH231300   6.680   6.716  15.496  0.5807 -0.1071 -0.2078
 3270TIP3    H131301   6.694   6.641  15.437 -1.7764 -0.6620 -0.1567
 3270TIP3    H231302   6.645   6.677  15.576 -0.1636  0.9966  0.0186
 3271TIP3   OH231303   1.844   3.445  15.909  0.4271  0.0181 -0.2072
 3271TIP3    H131304   1.799   3.482  15.832 -0.5738  1.6156  1.0679
 3271TIP3    H231305   1.776   3.442  15.976  1.4163 -0.8537  0.7812
 3272TIP3   OH231306   5.615   6.623  10.323  0.0351 -0.2153  0.1454
 3272TIP3    H131307   5.706   6.649  10.306  1.5723 -2.9847  2.9250
 3272TIP3    H231308   5.604   6.542  10.273 -0.6599 -0.2814  0.3951
 3273TIP3   OH231309   5.075   4.834   2.882  0.2411  0.2407  0.3684
 3273TIP3    H131310   5.059   4.893   2.808 -3.7428  0.1482  0.9221
 3273TIP3    H231311   5.065   4.746   2.845 -1.0924  0.1774  0.8311
 3274TIP3   OH231312   1.553   3.967  15.691  0.5531 -0.1054 -0.1550
 3274TIP3    H131313   1.509   3.923  15.619  1.5065  0.8321 -1.3477
 3274TIP3    H231314   1.529   4.059  15.682  3.2105  0.5535 -1.2579
 3275TIP3   OH231315   1.642   0.385  12.776 -0.2953  0.0999  0.1870
 3275TIP3    H131316   1.726   0.344  12.757  0.4326  1.9980 -0.9280
 3275TIP3    H231317   1.631   0.372  12.871  1.2626 -0.1308  0.3699
 3276TIP3   OH231318   0.097   1.054  13.830 -0.1236  0.3396 -0.4034
 3276TIP3    H131319   0.191   1.075  13.830 -0.4186  1.8253  0.5213
 3276TIP3    H231320   0.093   0.962  13.804  1.5771  0.2966 -0.6368
 3277TIP3   OH231321   3.239   2.971   2.941 -0.3152  0.3543 -0.3261
 3277TIP3    H131322   3.307   2.978   2.874  0.4326 -1.8177  0.1256
 3277TIP3    H231323   3.282   2.924   3.013 -1.6840  0.8793  0.8731
 3278TIP3   OH231324   1.581   3.158  12.580  0.1433  0.3087 -0.1803
 3278TIP3    H131325   1.583   3.088  12.645 -1.2606  0.2943 -0.1227
 3278TIP3    H231326   1.597   3.238  12.631 -1.3177  0.3400  0.3024
 3279TIP3   OH231327   0.612   3.641   3.227 -0.0498  0.1635 -0.0396
 3279TIP3    H131328   0.646   3.634   3.316  3.0200  1.1049 -1.0249
 3279TIP3    H231329   0.658   3.716   3.189 -1.8060  0.2516 -2.2424
 3280TIP3   OH231330   2.695   0.050   2.514  0.2065 -0.2318 -0.1447
 3280TIP3    H131331   2.766   0.076   2.455 -0.3369  0.6256 -0.4316
 3280TIP3    H231332   2.620   0.103   2.487 -0.4990 -0.9848  0.2797
 3281TIP3   OH231333   6.447   0.278   1.458 -0.3685 -0.2696 -0.5723
 3281TIP3    H131334   6.483   0.356   1.501 -0.5465 -0.7508  0.4733
 3281TIP3    H231335   6.517   0.250   1.399  0.0334  0.1901 -0.3278
 3282TIP3   OH231336   5.297   5.716  10.504 -0.0396  0.3337  0.6515
 3282TIP3    H131337   5.314   5.788  10.442  0.1271 -1.0324 -0.9535
 3282TIP3    H231338   5.258   5.647  10.451  2.3023 -1.8215  1.5710
 3283TIP3   OH231339   6.238   5.625  17.004  0.3251  0.5279 -0.2262
 3283TIP3    H131340   6.172   5.646  17.070 -0.3292 -0.7511 -0.4291
 3283TIP3    H231341   6.207   5.543  16.966 -0.6717  2.4052 -3.8762
 3284TIP3   OH231342   2.552   5.309  11.463  0.3431  0.5052 -0.5989
 3284TIP3    H131343   2.516   5.230  11.422  1.0157 -0.4433  0.5826
 3284TIP3    H231344   2.481   5.342  11.518  0.5269 -0.1292  0.0388
 3285TIP3   OH231345   4.212   5.126  12.962  0.0555 -0.5276  0.2902
 3285TIP3    H131346   4.179   5.190  12.898  0.0802  0.4194  1.2052
 3285TIP3    H231347   4.284   5.083  12.917 -0.7550 -0.8116 -0.7997
 3286TIP3   OH231348   3.642   2.540   6.276 -0.4487  0.1983 -0.2511
 3286TIP3    H131349   3.643   2.508   6.367  0.1444 -0.5251 -0.5014
 3286TIP3    H231350   3.579   2.482   6.232 -3.6967  2.8531  0.4614
 3287TIP3   OH231351   0.641   5.389  13.816 -0.7020 -0.3318  0.6603
 3287TIP3    H131352   0.671   5.462  13.761 -0.0870 -0.9065  0.2167
 3287TIP3    H231353   0.546   5.391  13.808 -0.9461  2.0861  2.7991
 3288TIP3   OH231354   4.971   2.980  16.344  0.2738 -0.4260 -0.0032
 3288TIP3    H131355   4.892   3.032  16.330  0.5300  0.1327  0.6023
 3288TIP3    H231356   4.948   2.921  16.416  0.9882  0.9946  1.4344
 3289TIP3   OH231357   5.117   2.752   2.893  0.3397  0.1573 -0.7530
 3289TIP3    H131358   5.165   2.726   2.815  0.3012 -0.5699 -0.5411
 3289TIP3    H231359   5.137   2.845   2.904  0.8417  0.1132 -1.2726
 3290TIP3   OH231360   4.070   4.978  16.583 -0.5274 -0.4553 -0.1627
 3290TIP3    H131361   4.002   4.923  16.546 -0.0528 -0.9129 -0.3711
 3290TIP3    H231362   4.151   4.928  16.571 -0.4999 -1.3285  2.7898
 3291TIP3   OH231363   1.882   0.258   0.612  0.3660 -0.3698 -0.2987
 3291TIP3    H131364   1.930   0.316   0.672  1.0085 -1.1301 -0.0609
 3291TIP3    H231365   1.810   0.224   0.664  1.9543 -2.4477  0.6569
 3292TIP3   OH231366   3.705   5.043   5.309  0.1554 -0.1863 -0.6228
 3292TIP3    H131367   3.788   5.068   5.349 -0.4047 -1.3677  1.4214
 3292TIP3    H231368   3.726   4.967   5.254  0.3722 -0.8039  0.2915
 3293TIP3   OH231369   1.342   3.417  11.362 -0.6413 -0.2237 -0.3581
 3293TIP3    H131370   1.416   3.396  11.419 -1.6873 -1.6778  0.5294
 3293TIP3    H231371   1.283   3.343  11.372 -1.7734  0.4464 -1.8154
 3294TIP3   OH231372   5.984   3.842   0.856  0.7476  0.0889 -0.2540
 3294TIP3    H131373   5.995   3.751   0.828 -0.6991 -0.3091  0.3631
 3294TIP3    H231374   5.977   3.838   0.951 -2.8854  0.3219 -0.3604
 3295TIP3   OH231375   5.762   4.743  14.582 -0.7019  0.0189  0.2544
 3295TIP3    H131376   5.835   4.802  14.598  0.1407 -1.3318  1.6745
 3295TIP3    H231377   5.801   4.669  14.534 -0.6920 -1.4812  2.4146
 3296TIP3   OH231378   1.539   2.424  11.728  0.4333 -0.5199  0.0035
 3296TIP3    H131379   1.521   2.375  11.647  0.6050 -1.2819  0.4173
 3296TIP3    H231380   1.627   2.397  11.753  0.6657  0.2782  0.0479
 3297TIP3   OH231381   1.103   3.947   1.440  0.2751  0.2083 -0.1257
 3297TIP3    H131382   1.160   4.006   1.389 -0.1584 -0.6076 -1.6197
 3297TIP3    H231383   1.148   3.863   1.437  1.0176  0.4640  2.2157
 3298TIP3   OH231384   3.593   0.454   6.078  0.3689 -0.4582  0.2003
 3298TIP3    H131385   3.562   0.406   6.154  1.1095 -0.0675  0.7687
 3298TIP3    H231386   3.599   0.545   6.109  0.8856 -0.3346 -0.2511
 3299TIP3   OH231387   6.410   0.515   2.159  0.2128 -0.1791 -0.0900
 3299TIP3    H131388   6.474   0.472   2.216  1.5190  1.8764  0.1014
 3299TIP3    H231389   6.424   0.608   2.173 -0.7118  0.3824 -2.3904
 3300TIP3   OH231390   3.600   5.917   3.951  0.3700 -0.5588 -0.0110
 3300TIP3    H131391   3.628   5.963   3.871 -2.0806  3.0439  0.9301
 3300TIP3    H231392   3.682   5.895   3.996  1.7616  0.8404 -1.7046
 3301TIP3   OH231393   6.460   4.080   3.469  0.3299 -0.3588  0.1294
 3301TIP3    H131394   6.483   4.107   3.558 -0.6062  2.4617 -0.3618
 3301TIP3    H231395   6.482   4.156   3.415  0.2445 -1.7384 -1.9763
 3302TIP3   OH231396   1.094   5.401   4.899 -0.2373  0.0401  0.1156
 3302TIP3    H131397   1.097   5.494   4.878 -0.7185 -0.2995 -1.5623
 3302TIP3    H231398   1.022   5.392   4.961 -1.4385  0.5337 -1.1809
 3303TIP3   OH231399   6.564   4.630   2.076  0.1807 -0.1874 -0.1137
 3303TIP3    H131400   6.482   4.647   2.122  0.2584  1.1373 -0.4194
 3303TIP3    H231401   6.539   4.574   2.002 -0.5506  0.6261 -0.5006
 3304TIP3   OH231402   1.990   1.502   4.783 -0.1201  0.7369 -0.0650
 3304TIP3    H131403   2.047   1.436   4.822  0.0219 -0.3987 -2.0437
 3304TIP3    H231404   1.903   1.462   4.783 -0.0778  0.6083 -1.0623
 3305TIP3   OH231405   0.949   4.216   5.516  0.0182 -0.0268  0.5072
 3305TIP3    H131406   1.031   4.238   5.471 -1.6326  1.7004 -1.8572
 3305TIP3    H231407   0.977   4.162   5.590  3.3607  1.0829  0.2438
 3306TIP3   OH231408   3.088   5.892   6.484  0.2667 -0.6898 -0.0567
 3306TIP3    H131409   3.012   5.851   6.524 -0.3075  0.3160 -0.0833
 3306TIP3    H231410   3.096   5.976   6.530  1.3856 -0.7957 -0.0251
 3307TIP3   OH231411   2.982   3.208  11.067  0.1743  0.2415  0.4941
 3307TIP3    H131412   2.895   3.240  11.042 -1.1670 -1.2130  2.7990
 3307TIP3    H231413   3.041   3.281  11.049 -1.1877  0.7101 -2.7126
 3308TIP3   OH231414   5.241   2.701  13.549  0.2364 -0.6925  0.2527
 3308TIP3    H131415   5.182   2.653  13.490  0.9517 -1.5481  0.2197
 3308TIP3    H231416   5.302   2.635  13.580  0.4452 -0.0494  1.2295
 3309TIP3   OH231417   5.713   0.045  13.468 -0.0242 -0.0345 -0.8291
 3309TIP3    H131418   5.761   0.122  13.498  0.3611 -0.2553 -0.8752
 3309TIP3    H231419   5.628   0.051  13.512  0.0367  0.3663 -0.7615
 3310TIP3   OH231420   1.636   2.703   3.215 -0.1991  0.8629 -0.1379
 3310TIP3    H131421   1.713   2.721   3.160  1.5535  0.4763  2.0228
 3310TIP3    H231422   1.585   2.784   3.213  0.8691  1.5458 -0.7415
 3311TIP3   OH231423   0.471   5.286   3.367  0.4632  0.1205 -0.2147
 3311TIP3    H131424   0.385   5.315   3.337  0.6143 -0.1157 -0.8847
 3311TIP3    H231425   0.529   5.360   3.349  0.6626 -0.2317 -1.0315
 3312TIP3   OH231426   5.371   1.791  11.755 -0.2960 -1.1570 -0.2605
 3312TIP3    H131427   5.389   1.797  11.849  1.4755 -0.8152 -0.5793
 3312TIP3    H231428   5.379   1.882  11.723  0.0206 -1.3905 -0.8695
 3313TIP3   OH231429   3.960   3.302   4.990 -0.0337  0.4782  0.2614
 3313TIP3    H131430   4.024   3.231   4.998  0.0428  0.5165 -0.0210
 3313TIP3    H231431   3.978   3.342   4.905  0.3301  1.2367  0.6836
 3314TIP3   OH231432   3.182   2.196  13.512  0.4773 -0.2691  0.3060
 3314TIP3    H131433   3.261   2.246  13.490  1.5804 -2.6291 -1.5958
 3314TIP3    H231434   3.117   2.226  13.448  0.5133  0.1034  0.4394
 3315TIP3   OH231435   2.230   5.753   2.144  0.1223 -0.0297 -0.0795
 3315TIP3    H131436   2.157   5.703   2.180  0.6567  0.0071  1.0802
 3315TIP3    H231437   2.291   5.687   2.111  0.1942 -0.1026  0.1998
 3316TIP3   OH231438   6.557   3.258  15.365  0.6293  0.3084 -0.0112
 3316TIP3    H131439   6.538   3.166  15.345 -2.1556  0.7669  0.1259
 3316TIP3    H231440   6.535   3.267  15.458  2.5835  0.7578  0.4485
 3317TIP3   OH231441   5.751   4.607   4.894  0.0876 -0.0876 -0.0559
 3317TIP3    H131442   5.800   4.644   4.821 -1.8161 -1.1914 -2.0349
 3317TIP3    H231443   5.812   4.548   4.937  2.5643  3.5740  1.9469
 3318TIP3   OH231444   6.252   5.680  16.112 -0.2094  0.6108  0.0612
 3318TIP3    H131445   6.171   5.693  16.063 -1.3777 -0.8319  1.5063
 3318TIP3    H231446   6.240   5.732  16.192  0.8781  1.4226 -0.2698
 3319TIP3   OH231447   4.790   5.115   4.947  0.2753  0.0641 -0.1106
 3319TIP3    H131448   4.756   5.097   5.035 -1.6389  0.6121 -0.6933
 3319TIP3    H231449   4.815   5.207   4.949 -0.5707  0.3042 -0.3739
 3320TIP3   OH231450   0.764   1.396   3.126  0.0371 -0.3002  0.7770
 3320TIP3    H131451   0.795   1.462   3.063 -1.7480  1.8543  2.0100
 3320TIP3    H231452   0.686   1.359   3.087  0.4913 -1.0259  0.5270
 3321TIP3   OH231453   2.088   5.412  16.059  0.8631  0.5075  0.1820
 3321TIP3    H131454   2.103   5.419  15.965 -1.0788 -2.4442 -0.4984
 3321TIP3    H231455   2.156   5.352  16.090  0.2875 -0.1236  0.2424
 3322TIP3   OH231456   1.220   3.043   2.084  1.0230 -0.6354 -0.0117
 3322TIP3    H131457   1.191   2.961   2.044 -1.6039  0.2059  0.0060
 3322TIP3    H231458   1.298   3.018   2.134  1.8103 -2.5843 -2.0066
 3323TIP3   OH231459   5.196   2.910  13.718 -0.4194  0.2313 -0.1051
 3323TIP3    H131460   5.197   2.991  13.668  0.7212 -0.5310 -1.3738
 3323TIP3    H231461   5.190   2.841  13.652  0.9877 -0.7934  0.7908
 3324TIP3   OH231462   0.747   5.284  15.980  0.2308  0.4914  0.7081
 3324TIP3    H131463   0.675   5.236  16.022  0.4551  0.4835  1.0883
 3324TIP3    H231464   0.779   5.225  15.912  1.7310 -0.7250  2.3651
 3325TIP3   OH231465   5.782   0.679   3.612  0.1219 -0.4888  0.0131
 3325TIP3    H131466   5.739   0.635   3.685 -1.9779  0.2174 -0.7212
 3325TIP3    H231467   5.754   0.770   3.618 -2.2702 -0.8477 -3.0412
 3326TIP3   OH231468   6.511   0.144   2.531  0.2065  0.0636 -0.3344
 3326TIP3    H131469   6.516   0.223   2.584 -1.3247 -0.8655  1.3156
 3326TIP3    H231470   6.525   0.072   2.593 -0.9502 -1.0533 -1.2922
 3327TIP3   OH231471   5.593   3.911  16.001  0.1558  0.1030  0.2077
 3327TIP3    H131472   5.648   3.867  16.065  0.6265 -0.1450 -0.3501
 3327TIP3    H231473   5.597   3.855  15.923 -0.1887  0.5285 -0.1233
 3328TIP3   OH231474   2.679   5.655   0.522 -0.0658 -0.0397  0.7013
 3328TIP3    H131475   2.666   5.639   0.428 -0.0849 -2.0729  0.9930
 3328TIP3    H231476   2.660   5.748   0.533  1.1255  0.5422 -1.5018
 3329TIP3   OH231477   5.389   0.163   4.718  0.5239 -0.0691 -0.2211
 3329TIP3    H131478   5.366   0.096   4.653  0.0001 -1.6345  1.4556
 3329TIP3    H231479   5.483   0.174   4.709  0.3623  0.3063 -1.7143
 3330TIP3   OH231480   1.359   6.597   3.603  0.4250 -0.3314  0.7615
 3330TIP3    H131481   1.285   6.655   3.620  1.3065  0.8930  0.4873
 3330TIP3    H231482   1.337   6.554   3.521  1.1081  1.8972 -0.6666
 3331TIP3   OH231483   1.701   6.330   2.144  0.1400  0.0188  0.0918
 3331TIP3    H131484   1.627   6.328   2.083 -0.9848  0.3757  1.4072
 3331TIP3    H231485   1.770   6.281   2.098 -1.3496 -1.5524 -0.6048
 3332TIP3   OH231486   5.816   2.482  13.776 -0.3024 -0.2820 -0.3368
 3332TIP3    H131487   5.850   2.555  13.827 -0.9563 -0.1616 -0.0659
 3332TIP3    H231488   5.791   2.521  13.693 -2.6933  0.2581  0.5696
 3333TIP3   OH231489   1.882   3.507  16.188 -0.4661 -0.5108  0.5218
 3333TIP3    H131490   1.839   3.426  16.162  1.5960 -1.3881 -0.3246
 3333TIP3    H231491   1.816   3.575  16.172 -1.9076 -1.8944  0.3465
 3334TIP3   OH231492   0.732   5.636   1.263  0.4844  0.5442 -0.0901
 3334TIP3    H131493   0.664   5.585   1.218  1.1576  0.3296 -0.8929
 3334TIP3    H231494   0.733   5.600   1.352 -0.4027  0.5048 -0.0853
 3335TIP3   OH231495   1.041   4.753   3.755 -0.2817 -0.0494  0.0311
 3335TIP3    H131496   1.116   4.736   3.698  1.2166  1.6367  1.3840
 3335TIP3    H231497   1.057   4.699   3.833 -1.0740 -0.5119 -0.1099
 3336TIP3   OH231498   0.283   4.445  12.407  0.2482 -0.8557  0.0119
 3336TIP3    H131499   0.201   4.402  12.432  0.9650 -3.1951 -1.3625
 3336TIP3    H231500   0.274   4.460  12.313  0.3084  1.5336  0.3191
 3337TIP3   OH231501   2.348   2.294  10.934  0.1168 -0.1520  0.5932
 3337TIP3    H131502   2.277   2.356  10.949 -0.4273  0.2027 -2.6429
 3337TIP3    H231503   2.427   2.348  10.933 -0.3578  0.6282 -2.2491
 3338TIP3   OH231504   2.051   4.554   4.446 -0.0367 -0.0128  0.4198
 3338TIP3    H131505   2.035   4.647   4.433 -0.8604 -0.1916  0.1051
 3338TIP3    H231506   2.121   4.551   4.511  0.7388  0.8347 -0.3526
 3339TIP3   OH231507   3.431   0.543  15.721 -0.1827 -0.8408  0.7642
 3339TIP3    H131508   3.503   0.586  15.675  0.0724  0.1802  2.0448
 3339TIP3    H231509   3.359   0.543  15.659  0.2384  0.2135  0.2513
 3340TIP3   OH231510   2.466   2.239  14.839 -0.0080 -0.1458  0.7450
 3340TIP3    H131511   2.417   2.257  14.920 -0.9513 -1.1491  0.4293
 3340TIP3    H231512   2.431   2.155  14.809  0.3619  0.1929 -0.6886
 3341TIP3   OH231513   0.859   2.456   0.537  0.0501 -0.3199 -0.0884
 3341TIP3    H131514   0.874   2.404   0.458 -1.4481  0.2113 -0.7683
 3341TIP3    H231515   0.789   2.411   0.583  0.5527 -0.3339  0.6779
 3342TIP3   OH231516   6.439   5.109  13.253 -0.0309  0.6347 -0.7237
 3342TIP3    H131517   6.488   5.029  13.270 -1.4241 -0.9279 -3.4096
 3342TIP3    H231518   6.348   5.085  13.267 -0.4316  1.9774 -0.8410
 3343TIP3   OH231519   2.531   1.009   5.583 -0.1088 -0.1903  0.2946
 3343TIP3    H131520   2.467   0.938   5.589  0.8474 -1.1024  0.0908
 3343TIP3    H231521   2.553   1.029   5.674 -0.7812  0.2419  0.3732
 3344TIP3   OH231522   0.472   5.777  11.588 -0.1750 -0.1329 -0.4308
 3344TIP3    H131523   0.478   5.870  11.567 -0.4969  0.1152  0.5383
 3344TIP3    H231524   0.562   5.751  11.609  0.0840 -0.2891 -1.6554
 3345TIP3   OH231525   4.834   6.148   5.400  0.2089  0.4145 -0.2858
 3345TIP3    H131526   4.862   6.239   5.411 -1.0475  0.5230  4.2386
 3345TIP3    H231527   4.902   6.097   5.444 -0.5644 -0.5296 -0.1630
 3346TIP3   OH231528   4.320   0.515   5.152  0.2622  0.1792  0.0131
 3346TIP3    H131529   4.239   0.465   5.164 -0.3690  1.1008 -0.3542
 3346TIP3    H231530   4.349   0.533   5.242  0.8104 -1.3116  0.1630
 3347TIP3   OH231531   0.881   3.550  14.385 -0.2490 -0.3827  0.0869
 3347TIP3    H131532   0.960   3.578  14.432  0.9896 -1.7573 -1.0717
 3347TIP3    H231533   0.840   3.486  14.443  1.5183 -2.4195 -0.7839
 3348TIP3   OH231534   0.055   6.700   6.160  0.3340 -0.3956  0.3526
 3348TIP3    H131535   0.077   6.687   6.068  3.7005  3.2868  0.3508
 3348TIP3    H231536   0.079   6.618   6.202  1.1455 -1.2882 -1.7151
 3349TIP3   OH231537   6.187   4.745   3.482 -0.5189  0.3182  0.1422
 3349TIP3    H131538   6.204   4.733   3.389  0.2012 -2.0677  0.5088
 3349TIP3    H231539   6.274   4.742   3.523 -0.9670 -1.0527  1.0719
 3350TIP3   OH231540   4.932   0.138   0.519 -0.7158  0.2766 -0.1347
 3350TIP3    H131541   5.006   0.111   0.573  0.1750  2.5651 -0.0802
 3350TIP3    H231542   4.870   0.178   0.580 -2.9058 -3.0155  0.0843
 3351TIP3   OH231543   4.092   2.520  10.605 -0.1030  0.0587  0.0152
 3351TIP3    H131544   4.141   2.589  10.561 -1.4620  0.9114 -0.2174
 3351TIP3    H231545   4.119   2.439  10.561  0.3825  0.6129 -0.7227
 3352TIP3   OH231546   3.463   1.113  12.855 -0.4952 -0.2930 -0.7632
 3352TIP3    H131547   3.473   1.017  12.859 -2.3347 -0.5212 -1.0306
 3352TIP3    H231548   3.489   1.143  12.942 -2.4754 -1.3422  0.2634
 3353TIP3   OH231549   5.267   0.698   4.800 -0.0748 -0.0985  0.2859
 3353TIP3    H131550   5.222   0.780   4.823  1.7792  0.6478  1.5044
 3353TIP3    H231551   5.228   0.671   4.717 -2.7951  0.4372  1.2805
 3354TIP3   OH231552   0.261   0.579   6.641  0.2204 -0.5460 -0.0208
 3354TIP3    H131553   0.257   0.553   6.733  1.2960  2.5706  1.0333
 3354TIP3    H231554   0.352   0.604   6.627  0.0753 -0.9364 -1.9561
 3355TIP3   OH231555   3.721   0.583  13.552 -0.2088 -0.5865 -0.4177
 3355TIP3    H131556   3.635   0.602  13.514  0.3967  1.0626 -1.0445
 3355TIP3    H231557   3.751   0.667  13.587  1.9091 -0.7040 -1.7833
 3356TIP3   OH231558   4.685   0.559   5.507  0.2401  0.2473 -0.6155
 3356TIP3    H131559   4.685   0.470   5.471  1.8260 -0.5411  1.1216
 3356TIP3    H231560   4.614   0.558   5.571  0.9106 -0.1296  0.1394
 3357TIP3   OH231561   0.251   1.553   5.870  0.3771 -0.0351  0.3329
 3357TIP3    H131562   0.250   1.551   5.966  0.0059 -0.6917  0.3220
 3357TIP3    H231563   0.197   1.628   5.847 -1.7053 -1.3517  0.6207
 3358TIP3   OH231564   1.874   3.188   2.724 -0.6076  0.4448  0.2506
 3358TIP3    H131565   1.969   3.181   2.715 -0.4497  2.4225  0.0512
 3358TIP3    H231566   1.840   3.156   2.640 -0.0940  0.2010  0.1292
 3359TIP3   OH231567   3.885   0.471  14.884  0.2871  0.4291 -0.3513
 3359TIP3    H131568   3.850   0.504  14.967  0.5690 -1.5756  0.6059
 3359TIP3    H231569   3.968   0.518  14.874 -0.2965  1.5488 -0.1114
 3360TIP3   OH231570   4.970   0.027   3.558 -0.2096 -0.4020  0.4306
 3360TIP3    H131571   4.891  -0.021   3.583 -0.7322  0.6374  0.8464
 3360TIP3    H231572   4.947   0.068   3.474  0.0163 -0.3873  0.3768
 3361TIP3   OH231573   1.372   2.159   0.920  0.0278 -0.0196  0.5558
 3361TIP3    H131574   1.453   2.154   0.870 -0.0275  0.5115  0.4078
 3361TIP3    H231575   1.305   2.179   0.855  0.0086  1.0268  0.8899
 3362TIP3   OH231576   5.297   6.479  15.209 -0.4549  0.2720 -0.2239
 3362TIP3    H131577   5.203   6.482  15.195 -0.2970 -0.8554 -1.6982
 3362TIP3    H231578   5.324   6.392  15.180  1.3763  1.4045 -2.2446
 3363TIP3   OH231579   1.560   5.346  11.583 -0.0689  0.2285 -0.1485
 3363TIP3    H131580   1.631   5.407  11.561  0.9581 -0.4139  1.2087
 3363TIP3    H231581   1.564   5.279  11.514  1.5724 -0.5297  0.6155
 3364TIP3   OH231582   5.979   5.589  11.705  0.0749 -0.2002 -0.0985
 3364TIP3    H131583   6.029   5.541  11.771 -0.9998 -0.4468  0.5703
 3364TIP3    H231584   5.897   5.611  11.749 -1.0590 -1.1655 -1.6438
 3365TIP3   OH231585   2.565   2.308  15.302  0.7654 -0.3928  0.5511
 3365TIP3    H131586   2.608   2.380  15.255  2.3335 -0.4146  1.8799
 3365TIP3    H231587   2.608   2.306  15.387 -2.4645  0.1038  2.3323
 3366TIP3   OH231588   5.651   2.292  12.973  0.0931 -0.0776  0.0952
 3366TIP3    H131589   5.709   2.369  12.968  1.7580 -1.1711  1.5545
 3366TIP3    H231590   5.697   2.231  13.031 -0.6320 -2.6626 -1.8721
 3367TIP3   OH231591   4.987   4.014   1.652 -0.1331 -0.1061 -0.3103
 3367TIP3    H131592   5.024   4.006   1.564 -1.4872 -0.0568 -0.9082
 3367TIP3    H231593   4.946   4.101   1.653 -1.2240 -0.6025 -0.0861
 3368TIP3   OH231594   0.324   5.774   3.964  0.6357  0.2171 -0.0979
 3368TIP3    H131595   0.318   5.867   3.983 -0.3755  0.1623 -0.0856
 3368TIP3    H231596   0.297   5.731   4.045  2.9682 -0.1541  0.5602
 3369TIP3   OH231597   2.670   1.804  14.064 -0.3875  0.2672  0.1842
 3369TIP3    H131598   2.627   1.840  13.986 -0.8427 -2.1007 -0.7359
 3369TIP3    H231599   2.726   1.735  14.031 -1.2067 -1.3666  2.0219
 3370TIP3   OH231600   1.770   0.874  15.074 -0.1016  0.1434  0.2307
 3370TIP3    H131601   1.783   0.802  15.012 -1.1367 -0.0099  0.1774
 3370TIP3    H231602   1.853   0.880  15.121 -0.0298 -1.1687  0.3091
 3371TIP3   OH231603   4.137   0.082  10.708  0.0922 -0.0753 -0.2197
 3371TIP3    H131604   4.080   0.008  10.728 -1.3056  1.3627  1.4182
 3371TIP3    H231605   4.215   0.042  10.669 -1.6977 -2.1552 -1.9154
 3372TIP3   OH231606   3.200   0.080   2.629 -0.0018 -0.2173 -0.4624
 3372TIP3    H131607   3.205   0.147   2.560 -2.0330  2.1601  1.4991
 3372TIP3    H231608   3.240   0.122   2.705 -1.2768 -1.2385  0.8143
 3373TIP3   OH231609   1.635   2.926  13.525  0.2387 -0.0811  0.5953
 3373TIP3    H131610   1.548   2.966  13.524  0.1643 -0.1504 -1.9266
 3373TIP3    H231611   1.656   2.916  13.618 -1.5423  1.8405  1.2711
 3374TIP3   OH231612   6.482   6.258  16.772 -0.2624  0.1845  0.1223
 3374TIP3    H131613   6.390   6.269  16.749 -0.3131  0.4288  0.4436
 3374TIP3    H231614   6.493   6.164  16.786 -0.8786  0.3405  1.8458
 3375TIP3   OH231615   3.806   1.242  13.094 -0.6687 -0.3233  0.5181
 3375TIP3    H131616   3.901   1.245  13.104 -0.7393  0.6142  0.9695
 3375TIP3    H231617   3.792   1.239  12.999 -0.1904 -0.8856  0.4553
 3376TIP3   OH231618   0.018   6.487   4.329  0.2914  0.7158 -0.0662
 3376TIP3    H131619  -0.027   6.403   4.320  1.0235  0.1805  1.0804
 3376TIP3    H231620   0.030   6.518   4.239 -0.1138 -0.3340 -0.4917
 3377TIP3   OH231621   6.211   6.202   0.227  0.6533  0.6986  0.0265
 3377TIP3    H131622   6.218   6.295   0.248  0.9669  0.7386 -0.2435
 3377TIP3    H231623   6.221   6.198   0.132  3.1855  0.1700  0.2409
 3378TIP3   OH231624   3.154   2.489  14.982  0.2931 -0.0792 -0.1445
 3378TIP3    H131625   3.203   2.503  14.901  0.1546  0.5798 -0.1193
 3378TIP3    H231626   3.220   2.491  15.050  0.2107  1.1893 -0.0721
 3379TIP3   OH231627   3.387   4.372   2.412 -0.4145  0.2742  0.4918
 3379TIP3    H131628   3.459   4.332   2.363 -0.2541  1.2888 -0.1232
 3379TIP3    H231629   3.423   4.393   2.497 -0.5223 -0.9424  0.8583
 3380TIP3   OH231630   5.955   0.703   2.231 -0.1043 -0.6648  0.1376
 3380TIP3    H131631   6.045   0.730   2.247 -0.2947  0.1207 -0.0533
 3380TIP3    H231632   5.906   0.738   2.306 -0.6517  1.1401 -0.9932
 3381TIP3   OH231633   5.363   4.176  14.894 -0.2687 -0.3199  0.1607
 3381TIP3    H131634   5.402   4.182  14.981  0.6459  0.6006 -0.2925
 3381TIP3    H231635   5.279   4.221  14.902  1.6642  3.8548 -0.4014
 3382TIP3   OH231636   3.116   3.243   4.242  0.6050  0.2071 -0.8222
 3382TIP3    H131637   3.038   3.297   4.257  2.4458  3.2279 -1.0909
 3382TIP3    H231638   3.114   3.225   4.148 -0.3788 -0.8633 -0.6184
 3383TIP3   OH231639   4.940   4.541   4.577  0.1634  0.4744  0.7812
 3383TIP3    H131640   4.997   4.488   4.633  0.0155  0.5010  0.9549
 3383TIP3    H231641   4.998   4.606   4.538  0.1149  0.9662  1.5263
 3384TIP3   OH231642   0.141   4.754   4.588  0.1134 -0.1196  0.4711
 3384TIP3    H131643   0.145   4.685   4.655  0.7169 -0.2984  0.2517
 3384TIP3    H231644   0.223   4.801   4.598 -0.0009  0.1446  0.1625
 3385TIP3   OH231645   0.453   0.086  10.705 -0.0116 -0.4675  0.2348
 3385TIP3    H131646   0.467   0.175  10.738  0.9440 -0.7188  0.5371
 3385TIP3    H231647   0.540   0.056  10.678 -0.2010 -1.5426  0.7557
 3386TIP3   OH231648   3.554   1.271   4.856  0.8612  0.4694 -0.3119
 3386TIP3    H131649   3.572   1.205   4.923  0.6855  0.1704 -0.5561
 3386TIP3    H231650   3.466   1.303   4.878  1.2068  1.0944  0.1921
 3387TIP3   OH231651   2.199   2.953   3.537  0.2734  0.1560 -0.3911
 3387TIP3    H131652   2.240   3.033   3.504  1.3080 -0.6902 -1.2200
 3387TIP3    H231653   2.221   2.886   3.473 -1.1759 -0.6649 -0.0779
 3388TIP3   OH231654   1.240   1.024  14.458  0.0368 -0.0996  0.1087
 3388TIP3    H131655   1.242   1.087  14.530 -1.2157 -1.5844  1.5542
 3388TIP3    H231656   1.194   0.948  14.495  1.8972 -2.0736 -1.3530
 3389TIP3   OH231657   3.466   1.821   1.677  0.2696 -0.3047 -0.0810
 3389TIP3    H131658   3.531   1.866   1.731  1.2802 -1.0119 -0.6745
 3389TIP3    H231659   3.412   1.773   1.740  0.1100  0.5489  0.4438
 3390TIP3   OH231660   4.921   1.504   4.697  0.2120 -0.4582  0.2880
 3390TIP3    H131661   4.887   1.505   4.787  1.4993  0.7041  0.7805
 3390TIP3    H231662   4.980   1.429   4.695  1.0162  0.1577  0.7404
 3391TIP3   OH231663   1.721   2.842   1.285  0.6848  0.2403 -0.0056
 3391TIP3    H131664   1.702   2.931   1.313 -1.5269 -0.3050  0.3872
 3391TIP3    H231665   1.787   2.811   1.348 -0.9822  0.5142  1.9727
 3392TIP3   OH231666   2.505   3.585  12.318 -0.4528 -0.0967 -0.3079
 3392TIP3    H131667   2.473   3.587  12.228  0.2086  0.0432 -0.5526
 3392TIP3    H231668   2.504   3.677  12.346  0.2755 -0.0144 -0.5272
 3393TIP3   OH231669   0.604   6.104  14.839 -0.1848  0.4165 -0.3773
 3393TIP3    H131670   0.643   6.190  14.850  0.3963  0.3687 -1.8846
 3393TIP3    H231671   0.542   6.114  14.767 -0.3439 -0.3599 -0.3668
 3394TIP3   OH231672   5.405   6.027  17.031  0.0660  0.1048 -0.0362
 3394TIP3    H131673   5.436   6.117  17.019  0.0330  0.1673  0.3376
 3394TIP3    H231674   5.340   6.015  16.962 -0.8696  0.8010  0.6930
 3395TIP3   OH231675   3.290   6.551   4.667  0.5238  0.3807 -0.5779
 3395TIP3    H131676   3.304   6.637   4.627  0.1349  0.2306 -1.0440
 3395TIP3    H231677   3.356   6.546   4.736 -0.6454  1.8223  0.7221
 3396TIP3   OH231678   4.382   0.903   5.421  0.1761 -0.1354 -0.0510
 3396TIP3    H131679   4.417   0.815   5.404 -1.2350 -0.5358 -1.0726
 3396TIP3    H231680   4.438   0.962   5.371 -0.0676 -0.6819 -1.0003
 3397TIP3   OH231681   5.968   6.267  15.669 -0.4949 -0.0589 -0.1966
 3397TIP3    H131682   5.951   6.238  15.759  2.2552 -0.3359  0.3211
 3397TIP3    H231683   5.999   6.189  15.624  1.3865  0.7282 -0.3879
 3398TIP3   OH231684   1.035   5.001   2.812 -0.7835  0.3748  0.1735
 3398TIP3    H131685   0.942   5.006   2.788 -0.6076  0.7240 -0.4451
 3398TIP3    H231686   1.080   4.976   2.732 -0.1634  1.7787  0.0623
 3399TIP3   OH231687   1.966   6.388   1.359  0.1669 -0.0225  0.0532
 3399TIP3    H131688   1.890   6.334   1.336 -0.2726  1.2154 -1.5884
 3399TIP3    H231689   2.016   6.394   1.277  0.4564  1.6154  0.3236
 3400TIP3   OH231690   4.260   4.654  11.463 -0.5312 -0.3420  0.1529
 3400TIP3    H131691   4.268   4.749  11.466  0.2328 -0.4089  0.3121
 3400TIP3    H231692   4.317   4.622  11.533 -0.7340 -0.9209  0.0625
 3401TIP3   OH231693   2.484   0.791   4.078 -0.4308  0.4800 -0.2012
 3401TIP3    H131694   2.578   0.811   4.079 -0.6352  1.5005 -0.3020
 3401TIP3    H231695   2.458   0.792   4.170 -0.0664 -1.3285 -0.0266
 3402TIP3   OH231696   2.861   6.748   6.854 -0.7678  0.2386 -0.4582
 3402TIP3    H131697   2.794   6.689   6.888  0.1675 -0.4840  0.2005
 3402TIP3    H231698   2.836   6.764   6.763 -0.9878 -1.2664 -0.6782
 3403TIP3   OH231699   4.536   5.348  11.712 -0.1327  0.0826  0.0802
 3403TIP3    H131700   4.495   5.417  11.660 -0.8933  0.8395  1.6169
 3403TIP3    H231701   4.618   5.387  11.741 -0.4114  0.2291  0.6792
 3404TIP3   OH231702   6.660   2.384  15.915 -0.1442  0.3341 -0.0761
 3404TIP3    H131703   6.631   2.470  15.947  0.2997  1.0092 -1.3800
 3404TIP3    H231704   6.723   2.354  15.980  0.6592  1.6032 -0.2311
 3405TIP3   OH231705   4.398   4.317   4.368 -0.6769 -0.5297  0.3119
 3405TIP3    H131706   4.407   4.243   4.308  2.8599 -1.3929  1.6361
 3405TIP3    H231707   4.383   4.393   4.311  1.1893 -1.4977 -1.6080
 3406TIP3   OH231708   5.312   0.394   1.288 -0.2564 -0.2710 -0.0719
 3406TIP3    H131709   5.366   0.440   1.223 -0.8512 -0.3222 -0.6204
 3406TIP3    H231710   5.250   0.343   1.235 -0.2383 -0.9449  0.5346
 3407TIP3   OH231711   4.096   5.650  10.275 -0.3683  0.3960  0.4477
 3407TIP3    H131712   4.035   5.578  10.291  1.5576 -1.2135  1.0266
 3407TIP3    H231713   4.075   5.714  10.343 -1.5784  0.0097  0.4639
 3408TIP3   OH231714   3.665   0.405  14.423 -0.1588 -0.3367  0.9412
 3408TIP3    H131715   3.657   0.379  14.332 -1.1654 -0.3526  1.0214
 3408TIP3    H231716   3.725   0.341  14.462 -0.2524 -0.7226  0.4518
 3409TIP3   OH231717   6.127   0.032   5.201 -0.3790  0.1896  0.3059
 3409TIP3    H131718   6.129   0.045   5.296  0.3291  1.6988  0.1201
 3409TIP3    H231719   6.185  -0.042   5.185 -2.2551 -1.5493  1.2146
 3410TIP3   OH231720   3.225   4.176   3.547 -0.2822 -0.1786  0.1731
 3410TIP3    H131721   3.300   4.160   3.490 -0.8366 -2.4273  0.0169
 3410TIP3    H231722   3.160   4.218   3.490 -0.4933 -1.5777 -0.6582
 3411TIP3   OH231723   2.110   2.214  12.637  0.0727  0.0213  0.0689
 3411TIP3    H131724   2.136   2.171  12.719  0.8713  0.1748 -0.0933
 3411TIP3    H231725   2.054   2.286  12.664  0.5909  0.2648  0.5096
 3412TIP3   OH231726   4.107   2.214   1.477  0.2601 -0.5219 -0.5000
 3412TIP3    H131727   4.026   2.204   1.427 -0.7813  1.3289  0.7248
 3412TIP3    H231728   4.142   2.125   1.484 -2.0944 -1.4841 -0.3392
 3413TIP3   OH231729   0.704   0.119  14.168 -0.1689  0.0407  0.0270
 3413TIP3    H131730   0.747   0.198  14.134  1.6817 -0.7950  0.2844
 3413TIP3    H231731   0.759   0.047  14.137 -1.8544 -1.1857 -0.2623
 3414TIP3   OH231732   3.048   0.246  14.878 -0.7709 -1.1250  0.3072
 3414TIP3    H131733   3.067   0.156  14.906 -2.1881 -1.1073  1.4340
 3414TIP3    H231734   2.959   0.262  14.909 -0.3738  0.8410  0.5260
 3415TIP3   OH231735   4.882   6.244  12.803 -0.3922 -0.6859 -0.3314
 3415TIP3    H131736   4.862   6.221  12.712  0.8190 -0.2799 -0.7126
 3415TIP3    H231737   4.955   6.306  12.797 -1.9555  1.3904  0.7828
 3416TIP3   OH231738   3.841   0.764  13.991 -0.0558  0.1973  0.1227
 3416TIP3    H131739   3.932   0.744  14.015  0.4080  0.7232 -1.1072
 3416TIP3    H231740   3.819   0.842  14.042 -0.3391 -0.7700  1.5324
 3417TIP3   OH231741   5.838   2.177   5.645  0.4549  0.6028 -0.2960
 3417TIP3    H131742   5.913   2.132   5.606  0.1593 -0.1048 -0.0731
 3417TIP3    H231743   5.768   2.112   5.643  0.2161  0.8118  0.6920
 3418TIP3   OH231744   6.590   6.215  13.575 -0.4745 -0.2943  0.1665
 3418TIP3    H131745   6.515   6.202  13.631 -1.0714  0.2317 -0.4894
 3418TIP3    H231746   6.658   6.250  13.633 -2.0375  3.3215  0.0862
 3419TIP3   OH231747   1.009   3.193   3.893  0.1635 -0.2047  0.0503
 3419TIP3    H131748   1.028   3.284   3.871  0.4644 -0.1573  0.4800
 3419TIP3    H231749   0.990   3.151   3.810  3.2480 -0.5290 -0.6123
 3420TIP3   OH231750   0.624   4.427  15.969 -0.3446 -0.0977  0.2708
 3420TIP3    H131751   0.529   4.425  15.957 -0.1428 -0.4076 -1.6558
 3420TIP3    H231752   0.642   4.355  16.030 -1.1806 -1.4956 -1.0344
 3421TIP3   OH231753   3.755   6.333  12.863  0.7692 -0.3506 -0.2479
 3421TIP3    H131754   3.841   6.375  12.870  0.8827 -0.5624 -0.3597
 3421TIP3    H231755   3.774   6.239  12.860  0.5112 -0.4180  0.1071
 3422TIP3   OH231756   4.213   2.102   2.376  0.0898  0.1575  0.3593
 3422TIP3    H131757   4.283   2.137   2.430  1.0226  1.1559 -1.4153
 3422TIP3    H231758   4.147   2.171   2.373 -0.0617  0.0166  0.4006
 3423TIP3   OH231759   4.491   2.363  16.418  0.2175 -0.0933  0.1372
 3423TIP3    H131760   4.553   2.369  16.491  1.7907 -0.1748 -1.1478
 3423TIP3    H231761   4.543   2.385  16.341 -1.2413 -0.6956 -1.0573
 3424TIP3   OH231762   4.508   5.632   0.489  0.3698  0.1728 -0.0680
 3424TIP3    H131763   4.506   5.575   0.566 -1.2326  0.9487  0.5145
 3424TIP3    H231764   4.568   5.588   0.429  2.5472  0.0905  2.0054
 3425TIP3   OH231765   0.502   5.083  14.479  0.1761  0.0600 -0.3699
 3425TIP3    H131766   0.523   5.115  14.391  1.2871 -1.4019 -0.6623
 3425TIP3    H231767   0.586   5.058  14.517 -0.0009  2.3700  1.8760
 3426TIP3   OH231768   2.091   4.179  16.201 -0.4890 -0.1048  0.2999
 3426TIP3    H131769   2.149   4.208  16.271 -0.5638 -0.0987  0.3593
 3426TIP3    H231770   2.088   4.083  16.210  0.5054 -0.2231 -0.4800
 3427TIP3   OH231771   1.695   3.916   1.094 -0.0857 -0.5717  0.3112
 3427TIP3    H131772   1.709   3.975   1.168 -0.1760  0.4986 -0.4994
 3427TIP3    H231773   1.604   3.930   1.069  0.5573  0.8625 -1.4571
 3428TIP3   OH231774   2.254   6.315   3.191 -0.0590  0.0508  0.5396
 3428TIP3    H131775   2.221   6.240   3.241 -1.3100  0.3755  0.2224
 3428TIP3    H231776   2.178   6.372   3.179  0.5991  0.7804 -0.2945
 3429TIP3   OH231777   4.080   6.195  13.427 -0.2788 -0.5427 -0.2457
 3429TIP3    H131778   4.107   6.151  13.508 -0.9196  0.7661  0.7106
 3429TIP3    H231779   3.998   6.239  13.450 -0.6091 -0.3492 -1.6938
 3430TIP3   OH231780   2.479   3.139  14.252  0.0846 -0.0098  0.1185
 3430TIP3    H131781   2.538   3.145  14.327 -0.8664 -0.4378  0.9242
 3430TIP3    H231782   2.445   3.049  14.254 -1.6425  0.6008  0.5238
 3431TIP3   OH231783   3.620   1.571   2.396  0.3622  0.3124 -0.3661
 3431TIP3    H131784   3.572   1.603   2.473  0.7573  2.3034 -0.8961
 3431TIP3    H231785   3.712   1.573   2.424  0.4752  0.6862 -0.7572
 3432TIP3   OH231786   2.720   1.038   1.690 -0.2414  0.1386  0.6165
 3432TIP3    H131787   2.677   1.046   1.605  0.3334  0.9143  0.3843
 3432TIP3    H231788   2.708   1.124   1.731 -0.5779 -0.2486  1.3566
 3433TIP3   OH231789   0.137   2.206   5.872 -0.5729  0.1124 -0.1288
 3433TIP3    H131790   0.135   2.155   5.954 -0.1870 -3.1143 -1.9296
 3433TIP3    H231791   0.045   2.215   5.847 -0.7275  1.6176  0.8892
 3434TIP3   OH231792   3.676   0.036  11.447 -0.8730  0.2013  0.0358
 3434TIP3    H131793   3.619  -0.041  11.451 -0.6661 -0.1240 -2.0231
 3434TIP3    H231794   3.637   0.090  11.378 -0.9413  1.9166  1.3446
 3435TIP3   OH231795   6.191   5.097   1.616  0.2103  0.3385  0.5238
 3435TIP3    H131796   6.256   5.144   1.668 -0.8551  0.9799  1.3113
 3435TIP3    H231797   6.182   5.012   1.658  0.1530  0.4461  0.7282
 3436TIP3   OH231798   6.247   0.643  11.318  0.4257 -0.2759  0.0854
 3436TIP3    H131799   6.340   0.655  11.337  0.8844  0.7151 -2.4414
 3436TIP3    H231800   6.241   0.646  11.223 -2.1307 -1.0246  0.1374
 3437TIP3   OH231801   4.249   5.519   2.141  0.0193  0.6435  0.2943
 3437TIP3    H131802   4.225   5.534   2.050  0.1670  1.5797  0.3934
 3437TIP3    H231803   4.213   5.594   2.188  1.3689  1.0514  0.7405
 3438TIP3   OH231804   3.664   2.273  16.516  1.3317 -0.5636 -0.4159
 3438TIP3    H131805   3.746   2.224  16.510  1.1392 -0.8511 -0.6905
 3438TIP3    H231806   3.643   2.274  16.610  0.9627 -1.6209 -0.4749
 3439TIP3   OH231807   1.490   1.766   5.250  0.1951 -0.3128 -0.0312
 3439TIP3    H131808   1.532   1.717   5.180  0.3730  1.9425 -1.6334
 3439TIP3    H231809   1.437   1.702   5.296  0.8471 -2.0880 -1.6055
 3440TIP3   OH231810   6.487   3.130  16.565 -0.2365 -0.1311 -0.0871
 3440TIP3    H131811   6.401   3.091  16.580  0.3839 -2.1715 -1.4533
 3440TIP3    H231812   6.550   3.067  16.601  0.7340  0.7709 -0.1411
 3441TIP3   OH231813   4.972   1.886   4.910 -0.4704  0.5190  0.2813
 3441TIP3    H131814   4.913   1.812   4.927 -0.6900  0.6413  0.0686
 3441TIP3    H231815   5.059   1.854   4.935 -0.5395  0.1299  0.0426
 3442TIP3   OH231816   1.580   3.000  12.856 -0.6158  0.2543  0.5165
 3442TIP3    H131817   1.674   2.989  12.875 -0.3521  0.1097 -0.7978
 3442TIP3    H231818   1.541   3.021  12.941  0.6322  0.4598  1.0598
 3443TIP3   OH231819   5.140   6.122   3.984  0.0547  0.0783  0.3842
 3443TIP3    H131820   5.187   6.049   3.944  0.8762  0.8671 -0.1349
 3443TIP3    H231821   5.067   6.081   4.031 -0.0017 -0.9892 -0.6013
 3444TIP3   OH231822   0.810   6.167   4.509  0.1488  0.5271 -0.3463
 3444TIP3    H131823   0.858   6.111   4.570 -1.9014 -0.5619  0.3515
 3444TIP3    H231824   0.857   6.158   4.426  2.3127  1.1314  0.7380
 3445TIP3   OH231825   3.011   0.415  11.679 -0.0127 -0.2597  0.2725
 3445TIP3    H131826   3.074   0.487  11.676 -0.0663 -0.1754  0.9264
 3445TIP3    H231827   3.031   0.361  11.602 -1.0324  1.3219 -1.1674
 3446TIP3   OH231828   6.861   0.563   0.783 -0.1838  0.1913  0.5077
 3446TIP3    H131829   6.776   0.533   0.752  0.6035 -0.2924 -1.3422
 3446TIP3    H231830   6.864   0.656   0.759 -0.7599  0.6311  1.9900
 3447TIP3   OH231831   3.454   4.673   0.375  0.3937  0.5334 -0.1287
 3447TIP3    H131832   3.453   4.581   0.349  1.3506  0.6887 -0.7747
 3447TIP3    H231833   3.480   4.671   0.467 -0.3788  0.1259  0.0887
 3448TIP3   OH231834   1.981   5.139  16.267 -0.7741  0.3311 -0.3253
 3448TIP3    H131835   1.963   5.197  16.341  0.9405 -0.1550  0.5108
 3448TIP3    H231836   1.894   5.110  16.238 -1.5454  1.6136  0.6060
 3449TIP3   OH231837   2.567   5.556   4.904  0.1755 -0.2659  0.5203
 3449TIP3    H131838   2.568   5.651   4.917 -0.5895 -0.5313  2.9779
 3449TIP3    H231839   2.616   5.543   4.823 -2.3245  2.4395 -1.6801
 3450TIP3   OH231840   4.027   5.668  13.278 -0.7953  0.0078 -0.6417
 3450TIP3    H131841   3.970   5.602  13.318  0.9454 -2.0518 -1.3183
 3450TIP3    H231842   4.004   5.750  13.322 -4.4546 -0.5877 -1.1671
 3451TIP3   OH231843   1.968   0.874   4.359  0.4360  0.2258  0.0334
 3451TIP3    H131844   1.977   0.966   4.335  0.6011  0.1864 -0.0580
 3451TIP3    H231845   2.052   0.834   4.335  0.9527  0.3699  1.5015
 3452TIP3   OH231846   6.519   0.917   5.662 -0.3129 -0.8063  0.1986
 3452TIP3    H131847   6.524   0.985   5.596  1.8419  1.9514  2.9011
 3452TIP3    H231848   6.604   0.874   5.660 -0.0692 -0.4269  1.3499
 3453TIP3   OH231849   4.845   6.215  13.097 -0.4541  0.0289 -0.2851
 3453TIP3    H131850   4.840   6.220  13.001  2.0946  2.2836 -0.4231
 3453TIP3    H231851   4.872   6.303  13.124  1.8305 -1.3158  2.2545
 3454TIP3   OH231852   3.184   2.057   4.092 -0.2625  0.0686 -0.0620
 3454TIP3    H131853   3.111   1.997   4.109  1.5077 -1.6534  2.0431
 3454TIP3    H231854   3.255   2.000   4.062  1.2827  1.1333  1.3697
 3455TIP3   OH231855   0.258   5.495  12.902 -0.5601  0.2123  0.2095
 3455TIP3    H131856   0.170   5.523  12.874 -1.1346 -0.2916  1.4447
 3455TIP3    H231857   0.317   5.541  12.842 -1.7043 -2.8171 -3.6881
 3456TIP3   OH231858   0.711   3.389   1.831  0.2866 -0.3199 -0.5239
 3456TIP3    H131859   0.746   3.374   1.743 -2.1204 -0.4986 -1.5146
 3456TIP3    H231860   0.662   3.309   1.851  0.1924  0.0271  0.6771
 3457TIP3   OH231861   3.986   4.005  14.912 -0.1126  0.4913 -0.2658
 3457TIP3    H131862   3.978   4.095  14.942 -1.2291  0.3695 -0.1842
 3457TIP3    H231863   3.957   4.007  14.821  0.1112  0.2618 -0.3437
 3458TIP3   OH231864   1.679   6.162   5.791  0.1257  0.0363  0.3403
 3458TIP3    H131865   1.637   6.098   5.733 -0.4159  0.9365 -0.2917
 3458TIP3    H231866   1.688   6.116   5.875 -1.5628 -0.4216  0.3178
 3459TIP3   OH231867   0.772   2.032  15.384  0.3410 -0.5573  0.4609
 3459TIP3    H131868   0.748   2.006  15.474  0.2693  0.9894  0.9113
 3459TIP3    H231869   0.703   1.994  15.330  0.3113 -1.4042  1.0568
 3460TIP3   OH231870   5.885   3.656  14.511 -0.0338 -0.6740  0.4085
 3460TIP3    H131871   5.878   3.744  14.548  0.5424 -0.7614  0.7411
 3460TIP3    H231872   5.831   3.659  14.432  0.7900  0.2903 -0.1413
 3461TIP3   OH231873   6.221   1.708  14.616 -0.5760  0.4110  0.2373
 3461TIP3    H131874   6.293   1.645  14.604 -0.5116  0.3523  0.9043
 3461TIP3    H231875   6.178   1.711  14.531 -0.3732 -0.2846  0.1038
 3462TIP3   OH231876   6.590   3.758  15.696  0.4339  0.1299 -0.3341
 3462TIP3    H131877   6.628   3.806  15.623  0.8944 -0.3015 -0.3877
 3462TIP3    H231878   6.495   3.758  15.678  0.5537 -0.0720 -0.9926
 3463TIP3   OH231879   2.953   2.992   3.430  0.3162 -0.0899 -0.1414
 3463TIP3    H131880   2.911   3.072   3.398 -0.1551 -0.8973 -1.6537
 3463TIP3    H231881   3.034   2.985   3.379  1.1563  0.2189  1.1028
 3464TIP3   OH231882   3.830   1.241  13.972 -0.4374  0.2094 -0.6766
 3464TIP3    H131883   3.816   1.239  14.067 -1.6118 -2.3205 -0.8258
 3464TIP3    H231884   3.923   1.261  13.962  0.2918 -1.8421  1.1434
 3465TIP3   OH231885   4.671   0.653   5.178  0.0406 -0.0375  0.2737
 3465TIP3    H131886   4.710   0.639   5.264  1.2678 -2.1904 -0.5585
 3465TIP3    H231887   4.576   0.648   5.194  0.0984  1.9863  1.7970
 3466TIP3   OH231888   2.704   4.763  12.799  0.5811  0.0483  0.7625
 3466TIP3    H131889   2.711   4.721  12.885 -1.3833 -0.7846  0.5778
 3466TIP3    H231890   2.783   4.817  12.792  1.0781 -0.3139  2.8350
 3467TIP3   OH231891   3.988   3.541  14.373  0.4060 -0.2538  0.1001
 3467TIP3    H131892   4.019   3.595  14.300  0.7090  0.0819  0.4693
 3467TIP3    H231893   3.924   3.482  14.334 -0.0439  0.4730 -0.2966
 3468TIP3   OH231894   4.681   0.614  12.599 -0.2656  0.0502 -0.3058
 3468TIP3    H131895   4.690   0.539  12.657 -2.1160 -0.6861 -0.9033
 3468TIP3    H231896   4.626   0.676  12.648 -0.1425  0.2964 -0.4748
 3469TIP3   OH231897   6.872   5.416   6.398 -0.2033 -0.2174 -0.6275
 3469TIP3    H131898   6.814   5.410   6.323 -3.1362 -0.8586  1.5065
 3469TIP3    H231899   6.847   5.343   6.454 -2.7507  3.4892  3.8174
 3470TIP3   OH231900   6.436   2.600  14.049 -0.3545 -0.5096  0.7057
 3470TIP3    H131901   6.437   2.575  13.956 -4.0593 -0.4999  0.5389
 3470TIP3    H231902   6.466   2.521  14.095 -1.0444 -1.4356 -0.3922
 3471TIP3   OH231903   6.225   2.560  15.000 -0.4048  0.2296  0.3402
 3471TIP3    H131904   6.157   2.627  15.010 -2.6545 -1.4461 -2.2908
 3471TIP3    H231905   6.205   2.495  15.067  0.5221  1.1397  1.5396
 3472TIP3   OH231906   0.086   5.834   6.108 -0.2645  0.0563 -0.2457
 3472TIP3    H131907   0.041   5.849   6.192  1.2636  1.7053  0.3384
 3472TIP3    H231908   0.177   5.856   6.126  0.7507 -2.6036 -1.5519
 3473TIP3   OH231909   6.101   4.878   0.835  0.5417 -0.1466  0.5390
 3473TIP3    H131910   6.105   4.855   0.928  0.3886 -1.6114  0.2041
 3473TIP3    H231911   6.187   4.916   0.816  0.3646  0.7298  1.4024
 3474TIP3   OH231912   6.747   6.063  12.577  0.2564  0.2020 -0.1432
 3474TIP3    H131913   6.805   5.987  12.585 -0.9598 -0.7124  0.2482
 3474TIP3    H231914   6.659   6.026  12.573 -0.4193  1.6266  0.7375
 3475TIP3   OH231915   6.597   1.003  11.319 -0.0161  0.4046  0.7412
 3475TIP3    H131916   6.511   0.996  11.361 -0.0606 -0.3474  0.5344
 3475TIP3    H231917   6.653   1.043  11.386 -0.9389  2.6359  0.2685
 3476TIP3   OH231918   4.282   4.718   3.844  0.5701  0.2944  0.1090
 3476TIP3    H131919   4.340   4.650   3.879  1.7335  0.0056 -2.1990
 3476TIP3    H231920   4.204   4.671   3.815  0.9935  0.0262 -0.6442
 3477TIP3   OH231921   0.863   6.011   3.441 -0.1871 -0.4599  0.6750
 3477TIP3    H131922   0.810   5.935   3.466 -0.6076 -1.0214 -1.6633
 3477TIP3    H231923   0.951   5.989   3.469 -0.0251 -2.5292 -1.1951
 3478TIP3   OH231924   1.833   2.903   5.918  0.1205  0.1331  0.1308
 3478TIP3    H131925   1.753   2.956   5.922  0.7377  1.0153  2.1051
 3478TIP3    H231926   1.889   2.939   5.987  1.7201 -1.2850 -0.3668
 3479TIP3   OH231927   0.880   4.494   3.618  0.7752 -0.0982  1.1658
 3479TIP3    H131928   0.808   4.555   3.603 -0.1514 -0.7229  2.8465
 3479TIP3    H231929   0.907   4.466   3.530 -1.2402 -0.0998  0.5038
 3480TIP3   OH231930   1.509   0.012  17.018  0.4985 -0.2300 -0.7541
 3480TIP3    H131931   1.527  -0.081  17.007  1.3212 -0.0528 -0.9597
 3480TIP3    H231932   1.480   0.042  16.932 -1.0508 -0.5613 -0.3712
 3481TIP3   OH231933   1.005   3.893  14.309  0.3629 -0.0767  0.0182
 3481TIP3    H131934   0.947   3.896  14.385 -1.0654  5.1096 -0.9059
 3481TIP3    H231935   1.078   3.949  14.333 -0.0424  1.5457 -2.2697
 3482TIP3   OH231936   2.779   2.144   5.151  0.1869 -0.0848  0.9726
 3482TIP3    H131937   2.761   2.112   5.062 -0.8722  2.0988  0.3288
 3482TIP3    H231938   2.844   2.214   5.138 -0.1992  0.4495  1.8862
 3483TIP3   OH231939   5.642   3.694  12.001  0.1407 -0.5674  0.4239
 3483TIP3    H131940   5.727   3.658  12.026  0.0156 -0.3766  1.1313
 3483TIP3    H231941   5.650   3.711  11.907  1.3795  0.7704  0.7320
 3484TIP3   OH231942   2.141   3.744  14.706 -0.7344  0.2026  0.0830
 3484TIP3    H131943   2.132   3.794  14.625  0.8954  2.2772  1.1019
 3484TIP3    H231944   2.095   3.796  14.772 -1.3969 -1.0746  0.6757
 3485TIP3   OH231945   6.157   2.989   0.736 -0.0033 -0.5696 -0.0868
 3485TIP3    H131946   6.245   3.012   0.765  0.2355 -1.1491 -0.3423
 3485TIP3    H231947   6.144   3.041   0.657 -0.6894  1.0863  1.0356
 3486TIP3   OH231948   3.989   0.616   3.588 -0.1354 -0.5904 -0.4081
 3486TIP3    H131949   4.069   0.631   3.538 -0.7723  1.3582 -0.9284
 3486TIP3    H231950   3.996   0.525   3.618  2.5905 -0.2701  0.1742
 3487TIP3   OH231951   5.337   4.960  16.157  0.7051  0.1233 -0.1431
 3487TIP3    H131952   5.349   5.050  16.188 -0.2627  0.0941  0.3401
 3487TIP3    H231953   5.325   4.908  16.236 -0.3807 -0.1719 -0.4917
 3488TIP3   OH231954   2.079   0.233  12.097  0.0751 -0.8676  0.2484
 3488TIP3    H131955   2.009   0.176  12.127 -1.5599  0.6314 -0.5176
 3488TIP3    H231956   2.050   0.263  12.011  0.4727  1.6444  0.9093
 3489TIP3   OH231957   3.474   2.951   3.697 -0.4409  0.3576 -0.0804
 3489TIP3    H131958   3.505   2.973   3.785 -0.3090 -1.8527  0.4812
 3489TIP3    H231959   3.410   3.019   3.677  0.5005  1.6736  1.1490
 3490TIP3   OH231960   2.980   3.817   2.731 -0.2573  0.7587 -0.1640
 3490TIP3    H131961   3.024   3.834   2.814 -0.6459 -2.5230  0.8662
 3490TIP3    H231962   3.049   3.823   2.665  0.8449 -0.0830  0.8806
 3491TIP3   OH231963   5.850   0.503   5.170  0.4153 -0.3042  0.0781
 3491TIP3    H131964   5.887   0.590   5.155 -1.7254  0.7584  0.6732
 3491TIP3    H231965   5.876   0.481   5.259 -0.5960  0.5684  0.6031
 3492TIP3   OH231966   1.177   5.172  15.190  0.2968 -0.0941  0.0254
 3492TIP3    H131967   1.146   5.088  15.155  0.6399 -0.6556  1.0036
 3492TIP3    H231968   1.228   5.210  15.118 -1.1921  0.0445 -0.9899
 3493TIP3   OH231969   4.574   4.257   4.561  0.1931  0.3990 -0.1134
 3493TIP3    H131970   4.630   4.240   4.485 -0.0103  1.1723 -0.4496
 3493TIP3    H231971   4.493   4.292   4.523 -0.1003  0.3283  0.4352
 3494TIP3   OH231972   2.909   3.000   0.187  0.1122 -0.5163 -0.1407
 3494TIP3    H131973   2.861   3.083   0.183  2.1519  0.8334  1.2633
 3494TIP3    H231974   2.980   3.010   0.124  2.8035  0.6224  2.8014
 3495TIP3   OH231975   5.873   1.079  12.741  0.1494  0.2817  0.0064
 3495TIP3    H131976   5.905   1.011  12.800 -0.5092  0.8255  1.0242
 3495TIP3    H231977   5.946   1.140  12.732  1.4378 -1.4806 -2.4566
 3496TIP3   OH231978   2.368   4.622  16.482  0.0437 -0.3781 -0.2837
 3496TIP3    H131979   2.273   4.625  16.482  0.0170  0.2149  1.4426
 3496TIP3    H231980   2.394   4.687  16.547  1.6467 -0.2751 -0.9860
 3497TIP3   OH231981   2.336   5.858   0.443  1.0772 -0.4922  0.0547
 3497TIP3    H131982   2.405   5.913   0.405 -0.5509  0.8087 -1.1688
 3497TIP3    H231983   2.255   5.898   0.413 -0.2682 -1.1820  2.5583
 3498TIP3   OH231984   0.957   1.569   3.342  0.6706 -0.5861  0.2913
 3498TIP3    H131985   0.881   1.521   3.374  0.5418 -0.6544 -0.1133
 3498TIP3    H231986   1.006   1.505   3.290 -0.0762  0.0026 -1.1806
 3499TIP3   OH231987   3.355   0.711   1.008  0.1748 -0.4695 -0.2107
 3499TIP3    H131988   3.305   0.678   0.934 -0.4189 -0.6935  0.2790
 3499TIP3    H231989   3.371   0.803   0.987 -0.1441 -0.4838 -0.5337
 3500TIP3   OH231990   0.928   5.645   1.966 -0.0555  0.2827 -0.1313
 3500TIP3    H131991   0.906   5.738   1.966  0.6901  0.5008  1.8567
 3500TIP3    H231992   1.013   5.640   1.921 -0.7367  0.3436 -1.4802
 3501TIP3   OH231993   5.749   6.435  13.248 -0.1855 -0.1650 -0.0322
 3501TIP3    H131994   5.836   6.447  13.286  0.1996 -0.6749 -0.7277
 3501TIP3    H231995   5.716   6.523  13.236 -0.5524  0.0146  1.9791
 3502TIP3   OH231996   3.390   1.937   3.965  0.5005  0.7136  0.1651
 3502TIP3    H131997   3.412   1.872   3.897  1.1884 -0.3607  1.3677
 3502TIP3    H231998   3.415   2.021   3.926  1.8993  0.0200 -0.5250
 3503TIP3   OH231999   3.795   3.231  11.065  0.2119 -0.2545  0.0951
 3503TIP3    H132000   3.878   3.190  11.042  0.4089  0.8819 -1.3702
 3503TIP3    H232001   3.816   3.288  11.139  1.0849  1.1086 -1.1575
 3504TIP3   OH232002   5.325   4.005   3.967  0.6757 -0.1262  0.3819
 3504TIP3    H132003   5.346   3.984   4.058  1.4327 -0.1871  0.2033
 3504TIP3    H232004   5.274   4.086   3.972  1.1659  0.1670  0.8324
 3505TIP3   OH232005   2.719   3.781  12.285  0.2204 -0.0765 -0.1781
 3505TIP3    H132006   2.742   3.775  12.192  0.7001 -2.6218  0.0210
 3505TIP3    H232007   2.798   3.815  12.326  0.9627 -1.3935 -0.4415
 3506TIP3   OH232008   1.976   0.182   6.213 -0.3609  0.1487 -0.0860
 3506TIP3    H132009   2.013   0.211   6.296 -0.0748  0.6777 -0.3974
 3506TIP3    H232010   1.911   0.248   6.190  0.5293  0.7472 -0.9602
 3507TIP3   OH232011   3.667   5.969   6.057  0.0158  0.2169 -0.1186
 3507TIP3    H132012   3.612   6.043   6.032  0.9241  0.9306 -0.0275
 3507TIP3    H232013   3.605   5.902   6.087 -0.9650  0.1903 -2.0268
 3508TIP3   OH232014   3.500   0.469  14.985 -0.5539  0.1777 -0.0508
 3508TIP3    H132015   3.466   0.385  14.954  0.6750 -0.4841  0.3432
 3508TIP3    H232016   3.536   0.511  14.907  0.2178 -0.3543  0.0089
 3509TIP3   OH232017   6.500   2.924   2.493  0.3225  0.7204 -0.3432
 3509TIP3    H132018   6.421   2.910   2.440  0.1538 -1.7855  0.4280
 3509TIP3    H232019   6.479   2.883   2.577  2.5450 -0.2221 -0.2053
 3510TIP3   OH232020   6.273   4.067  12.139 -0.1407 -0.1731 -0.7695
 3510TIP3    H132021   6.198   4.009  12.126  1.8714 -3.5236  1.0202
 3510TIP3    H232022   6.275   4.084  12.233  1.3812 -0.2878 -0.7422
 3511TIP3   OH232023   6.591   6.637   4.302 -0.6266  0.1475 -0.1494
 3511TIP3    H132024   6.593   6.703   4.232  0.4435  0.2247 -0.0552
 3511TIP3    H232025   6.675   6.592   4.295 -1.9319 -2.3436 -1.2538
 3512TIP3   OH232026   5.272   1.848  13.909 -0.1401  0.0462 -0.0818
 3512TIP3    H132027   5.339   1.883  13.967  1.7327 -2.3874 -0.5859
 3512TIP3    H232028   5.296   1.880  13.822  1.0656 -1.6373 -0.4151
 3513TIP3   OH232029   3.455   1.944   2.676  0.1941 -0.3513 -0.1947
 3513TIP3    H132030   3.409   1.898   2.606 -0.1490  1.3985 -1.1863
 3513TIP3    H232031   3.545   1.914   2.669 -0.1319 -1.3595 -0.3533
 3514TIP3   OH232032   0.728   5.196   5.855 -0.0677  0.4130  0.2155
 3514TIP3    H132033   0.693   5.237   5.935 -0.6293 -1.4970  1.0062
 3514TIP3    H232034   0.816   5.167   5.880 -0.4861 -0.7615  0.3673
 3515TIP3   OH232035   2.455   4.072   1.663  0.0974 -0.3269  0.2247
 3515TIP3    H132036   2.496   4.034   1.585  0.2014 -0.6023  0.4148
 3515TIP3    H232037   2.395   4.139   1.628  0.5501 -0.0669 -0.0634
 3516TIP3   OH232038   0.673   4.410  10.364 -0.1505  0.0151 -0.4605
 3516TIP3    H132039   0.703   4.480  10.306 -0.1767  1.1113  0.8074
 3516TIP3    H232040   0.753   4.367  10.393  0.0094  0.7402  0.2201
 3517TIP3   OH232041   3.518   0.819  15.315 -0.4507 -0.5937  0.1147
 3517TIP3    H132042   3.436   0.852  15.279  0.3860  0.3362 -1.0438
 3517TIP3    H232043   3.499   0.729  15.342 -0.9028 -1.8567 -3.8010
 3518TIP3   OH232044   0.247   0.440   4.085  0.7350  0.4553  0.4858
 3518TIP3    H132045   0.294   0.394   4.015  0.1719 -1.0316  1.0351
 3518TIP3    H232046   0.154   0.429   4.064  0.3767 -2.7876  2.9766
 3519TIP3   OH232047   2.613   2.532  15.549  0.1281  0.4205  0.0055
 3519TIP3    H132048   2.695   2.576  15.572 -0.8251  0.4570  3.9442
 3519TIP3    H232049   2.633   2.439  15.553  0.5416  0.3866 -1.7944
 3520TIP3   OH232050   1.944   4.383   5.692  0.3769 -0.5506 -0.1841
 3520TIP3    H132051   1.926   4.293   5.720  0.9346 -0.6429 -0.1173
 3520TIP3    H232052   2.036   4.382   5.665  0.2878 -0.0849 -0.5186
 3521TIP3   OH232053   4.915   5.442   1.901  0.1660  0.0848  0.1896
 3521TIP3    H132054   4.844   5.419   1.839 -2.1433 -1.2251  3.0681
 3521TIP3    H232055   4.914   5.537   1.903 -0.4532  0.1321 -0.9704
 3522TIP3   OH232056   0.683   2.736  11.419  0.3120  0.4898  0.1355
 3522TIP3    H132057   0.649   2.822  11.394  0.4915  0.5220 -0.0004
 3522TIP3    H232058   0.605   2.680  11.426  0.0624  0.9790  1.5111
 3523TIP3   OH232059   4.903   2.529   4.399  0.3798 -0.2105 -0.0597
 3523TIP3    H132060   4.874   2.445   4.435 -0.5844 -0.8534 -2.2060
 3523TIP3    H232061   4.965   2.507   4.330  1.7396  0.9672  0.7285
 3524TIP3   OH232062   1.917   4.982   1.537  0.2469  0.6324  0.4414
 3524TIP3    H132063   1.961   4.985   1.622  1.9593 -2.5864 -0.1335
 3524TIP3    H232064   1.863   4.903   1.541 -0.8139  1.2493 -0.9583
 3525TIP3   OH232065   4.863   1.042   4.353  0.2286 -0.3123 -0.5811
 3525TIP3    H132066   4.857   0.956   4.311  0.6831 -0.7638  0.2542
 3525TIP3    H232067   4.957   1.052   4.371 -0.0300 -0.3845  0.8445
 3526TIP3   OH232068   5.464   0.720  14.980 -0.4225 -0.1707 -0.6195
 3526TIP3    H132069   5.435   0.633  15.009  1.0834 -0.7939 -0.8484
 3526TIP3    H232070   5.386   0.775  14.985 -1.1663 -1.2807  0.5516
 3527TIP3   OH232071   4.077   0.887   5.306 -0.5160 -0.1286 -0.1894
 3527TIP3    H132072   4.031   0.948   5.363  1.9667  0.4989  1.3272
 3527TIP3    H232073   4.170   0.908   5.318  0.2563 -1.8912 -2.3324
 3528TIP3   OH232074   0.699   5.341   3.893 -0.3912  0.0928 -0.0788
 3528TIP3    H132075   0.680   5.401   3.965 -0.6886  1.3483 -1.1656
 3528TIP3    H232076   0.793   5.325   3.899 -0.0292  1.7942 -0.5638
 3529TIP3   OH232077   2.725   6.029   5.552  0.7253  0.7006 -0.8336
 3529TIP3    H132078   2.806   6.000   5.594  0.0865  0.9614  0.6600
 3529TIP3    H232079   2.716   5.972   5.475 -0.0795 -2.7422  1.5458
 3530TIP3   OH232080   2.905   3.172   6.320  0.2265 -0.0555 -0.2876
 3530TIP3    H132081   2.961   3.238   6.360 -0.0895  0.2796 -0.3934
 3530TIP3    H232082   2.840   3.152   6.387  1.6137 -1.9225  0.6193
 3531TIP3   OH232083   3.882   4.734   3.074 -0.7123  0.0581 -0.4163
 3531TIP3    H132084   3.866   4.658   3.129  0.1551 -0.5303 -0.9496
 3531TIP3    H232085   3.837   4.806   3.118 -0.9951 -0.6298  0.4395
 3532TIP3   OH232086   3.528   6.548  16.594 -0.0211  0.4553 -0.8111
 3532TIP3    H132087   3.509   6.525  16.503  0.5504  1.0956 -1.1016
 3532TIP3    H232088   3.557   6.639  16.590  1.0449  0.1695 -0.1280
 3533TIP3   OH232089   4.539   0.982  11.081 -0.2185  0.4287  0.7880
 3533TIP3    H132090   4.477   1.037  11.034 -2.3123 -1.7419  0.8177
 3533TIP3    H232091   4.616   0.978  11.023 -0.6522  1.9922  0.0450
 3534TIP3   OH232092   4.406   3.010   3.904  0.7315 -0.7065 -0.8172
 3534TIP3    H132093   4.465   3.072   3.946  2.9740 -1.6568 -2.3629
 3534TIP3    H232094   4.430   3.013   3.811 -0.9350 -1.9542 -1.3553
 3535TIP3   OH232095   4.219   5.537   5.767 -0.2373  0.0376 -0.2766
 3535TIP3    H132096   4.255   5.469   5.709  0.1066 -0.4786  0.5235
 3535TIP3    H232097   4.208   5.613   5.710 -1.3421 -0.9046 -1.3681
 3536TIP3   OH232098   5.862   2.526  11.420  0.6548 -0.3436  0.7200
 3536TIP3    H132099   5.772   2.513  11.390  0.8890  0.2487 -0.2793
 3536TIP3    H232100   5.916   2.510  11.343  1.4514 -1.1097  1.4112
 3537TIP3   OH232101   4.322   1.557  11.843  0.2383  0.0918  1.0165
 3537TIP3    H132102   4.335   1.520  11.930  1.0584 -0.2152  0.7712
 3537TIP3    H232103   4.386   1.512  11.788  1.3691  1.9066  0.7292
 3538TIP3   OH232104   1.047   2.878   0.549 -0.1085  0.5533  0.1658
 3538TIP3    H132105   1.000   2.919   0.621 -2.0584  0.7388 -1.1594
 3538TIP3    H232106   1.050   2.944   0.480 -2.0422 -0.9432 -1.4736
 3539TIP3   OH232107   6.284   5.962   4.862  0.7597  0.3999 -0.3289
 3539TIP3    H132108   6.318   6.009   4.786  1.1365 -1.4072 -1.3234
 3539TIP3    H232109   6.214   5.908   4.828  1.7172 -1.3492  0.3606
 3540TIP3   OH232110   5.702   5.307  13.381  0.1117 -0.0061  0.0605
 3540TIP3    H132111   5.651   5.385  13.404 -0.3097  0.0430 -1.0046
 3540TIP3    H232112   5.636   5.241  13.362  0.4534 -0.9056  1.7747
 3541TIP3   OH232113   6.136   2.716   0.663 -0.0082  0.3520  0.4427
 3541TIP3    H132114   6.128   2.796   0.716 -1.7834 -0.8028  2.0357
 3541TIP3    H232115   6.093   2.648   0.715  0.1914 -1.3590 -1.5013
 3542TIP3   OH232116   4.813   0.064  11.065  0.3006  0.0999 -0.1192
 3542TIP3    H132117   4.846   0.144  11.105 -0.9716  1.0388 -0.8677
 3542TIP3    H232118   4.783   0.011  11.139  3.0521 -0.6528  0.5591
 3543TIP3   OH232119   1.151   4.935   2.576 -0.0984  0.1821 -0.3538
 3543TIP3    H132120   1.221   4.870   2.569  0.0336  0.2248  0.3947
 3543TIP3    H232121   1.114   4.941   2.488 -1.6027 -2.5358 -0.0390
 3544TIP3   OH232122   3.536   5.156  14.373 -0.1071 -0.1774 -0.2607
 3544TIP3    H132123   3.623   5.190  14.352  0.2369 -0.4235  0.7108
 3544TIP3    H232124   3.542   5.062  14.359 -0.2356 -0.1868 -0.2560
 3545TIP3   OH232125   1.859   3.676   4.302 -0.6731 -0.0975 -0.0263
 3545TIP3    H132126   1.922   3.642   4.365 -0.0734  0.7992 -0.1120
 3545TIP3    H232127   1.910   3.689   4.222 -0.6804  1.5763  0.1875
 3546TIP3   OH232128   0.320   4.005  13.287 -0.3566 -0.0961 -0.6938
 3546TIP3    H132129   0.285   4.088  13.255  0.7095  0.9463  0.7239
 3546TIP3    H232130   0.396   3.988  13.232  0.7977  1.0975  0.4890
 3547TIP3   OH232131   3.302   1.071  15.808 -0.1621 -0.2310  0.5542
 3547TIP3    H132132   3.230   1.131  15.789 -0.2746 -0.4841  0.1748
 3547TIP3    H232133   3.258   0.988  15.830  0.0057 -0.3269  0.5277
 3548TIP3   OH232134   3.969   4.139  12.721 -0.0093  0.1094  0.3431
 3548TIP3    H132135   3.984   4.146  12.626  0.4702  0.5507  0.4483
 3548TIP3    H232136   3.938   4.049  12.734 -1.1304  0.3703 -0.3704
 3549TIP3   OH232137   1.001   5.951  14.549  0.1531 -0.4480 -0.0886
 3549TIP3    H132138   0.982   6.027  14.604  2.5938  0.0017  0.2432
 3549TIP3    H232139   1.012   5.879  14.611  0.1390 -0.5732 -0.2319
 3550TIP3   OH232140   2.721   5.739   2.287 -0.3203  0.7314 -0.0739
 3550TIP3    H132141   2.633   5.714   2.259 -0.0395  0.5006 -0.7515
 3550TIP3    H232142   2.717   5.733   2.383 -0.6395 -0.6526 -0.1459
 3551TIP3   OH232143   5.043   4.743  13.523 -0.0680 -0.1079  0.6154
 3551TIP3    H132144   5.068   4.790  13.602 -1.6259 -0.3411  1.2636
 3551TIP3    H232145   4.978   4.799  13.480 -0.6511 -0.8634  0.4950
 3552TIP3   OH232146   0.101   1.853  11.802  0.1537 -0.1100  0.4599
 3552TIP3    H132147   0.110   1.765  11.766 -0.1661 -0.0861  0.3217
 3552TIP3    H232148   0.047   1.841  11.880 -2.4361  0.3420 -1.1464
 3553TIP3   OH232149   4.431   3.155  13.985  0.4384  0.3585  0.5040
 3553TIP3    H132150   4.440   3.206  14.065  0.3334  2.2955 -0.6455
 3553TIP3    H232151   4.361   3.092  14.004 -1.3561  2.4331  1.1605
 3554TIP3   OH232152   4.208   0.059   2.577  0.2873 -0.3154 -0.0424
 3554TIP3    H132153   4.273  -0.012   2.578 -0.1073 -0.8080  3.2525
 3554TIP3    H232154   4.126   0.015   2.597 -0.8266  0.5533 -2.3750
 3555TIP3   OH232155   5.513   3.712  10.798  0.0306  0.1840 -0.3976
 3555TIP3    H132156   5.482   3.623  10.779  1.2662 -0.1134 -1.1097
 3555TIP3    H232157   5.465   3.767  10.736  0.3344 -0.1707 -0.9551
 3556TIP3   OH232158   4.837   0.872   5.179  0.6999 -0.0842 -1.0907
 3556TIP3    H132159   4.793   0.789   5.166  1.0442 -0.2140 -1.4582
 3556TIP3    H232160   4.784   0.936   5.131 -0.3828  0.1789  0.3920
 3557TIP3   OH232161   2.182   4.846  16.145 -0.1276  0.5259 -0.0585
 3557TIP3    H132162   2.154   4.755  16.134 -1.2257  0.8199  0.1520
 3557TIP3    H232163   2.257   4.842  16.204 -0.3342 -0.2158  0.1591
 3558TIP3   OH232164   5.029   5.132   5.932 -0.2158 -0.0184  0.2183
 3558TIP3    H132165   4.981   5.087   6.001  1.0048 -1.1265  0.3945
 3558TIP3    H232166   5.121   5.125   5.958  0.1527  0.9118 -0.7423
 3559TIP3   OH232167   4.113   1.013   2.969 -0.3780  0.3177  0.1110
 3559TIP3    H132168   4.205   0.987   2.965 -0.3250  0.4118  0.6370
 3559TIP3    H232169   4.077   0.965   3.043 -1.0970 -0.7347 -0.8959
 3560TIP3   OH232170   6.540   3.451   0.523  0.2799 -0.8258 -0.4114
 3560TIP3    H132171   6.447   3.473   0.516  0.2978  0.3249  1.8841
 3560TIP3    H232172   6.575   3.516   0.584  2.2265 -2.2234  0.0466
 3561TIP3   OH232173   4.052   6.212  12.981  0.4535  0.5657  0.5115
 3561TIP3    H132174   4.097   6.174  12.905 -0.2074  0.2903  0.2502
 3561TIP3    H232175   4.016   6.137  13.028  2.2767  0.5894  2.0533
 3562TIP3   OH232176   4.641   2.411  13.822  0.6479 -0.1121 -0.1887
 3562TIP3    H132177   4.655   2.499  13.856 -0.4131  0.5074 -1.2832
 3562TIP3    H232178   4.718   2.362  13.851  1.0177  1.0329  0.8626
 3563TIP3   OH232179   4.077   4.045   3.267 -0.5764  0.1573  0.1168
 3563TIP3    H132180   4.168   4.075   3.269 -1.2657  2.4109  0.4857
 3563TIP3    H232181   4.053   4.036   3.359 -0.2288 -2.3141  0.0437
 3564TIP3   OH232182   5.167   3.479   6.547  0.3442 -0.3255 -0.3964
 3564TIP3    H132183   5.103   3.434   6.603  1.8931 -0.9866  0.9053
 3564TIP3    H232184   5.235   3.414   6.532  1.4927  0.8574 -0.4260
 3565TIP3   OH232185   3.032   5.096   6.049 -0.4216  0.0819  0.4157
 3565TIP3    H132186   2.977   5.017   6.054 -0.3344  0.0875  1.7960
 3565TIP3    H232187   3.120   5.063   6.029 -0.4604 -0.1481  0.6154
 3566TIP3   OH232188   0.076   6.190   2.899  0.3213  0.4210  0.5460
 3566TIP3    H132189   0.132   6.173   2.823 -0.2562  2.8272 -0.5300
 3566TIP3    H232190   0.057   6.284   2.894 -1.2939  0.2862  2.6350
 3567TIP3   OH232191   2.511   3.343   0.313 -0.1404  0.3483  0.0813
 3567TIP3    H132192   2.493   3.253   0.287 -0.3236 -0.1477  1.7807
 3567TIP3    H232193   2.545   3.384   0.234 -1.4986 -0.7698 -1.1675
 3568TIP3   OH232194   5.807   4.848  13.956  0.2625  0.2007 -0.2038
 3568TIP3    H132195   5.779   4.938  13.973  1.4008  0.4329  0.5457
 3568TIP3    H232196   5.847   4.819  14.038  1.3727 -0.4252 -0.9328
 3569TIP3   OH232197   5.452   0.259  12.188 -0.1810 -0.3356 -0.0236
 3569TIP3    H132198   5.532   0.310  12.205 -1.9073  2.6331 -0.1069
 3569TIP3    H232199   5.444   0.258  12.093 -1.1883  1.0657  0.0226
 3570TIP3   OH232200   5.053   2.089   0.243  0.4730  0.1153  0.3795
 3570TIP3    H132201   5.053   2.073   0.148  0.3682 -1.4659  0.6310
 3570TIP3    H232202   5.001   2.169   0.253  0.2313  0.1409 -0.8643
 3571TIP3   OH232203   2.256   0.215  11.822  0.1383 -0.3198  0.4329
 3571TIP3    H132204   2.288   0.267  11.749  1.8086 -0.7440  0.8218
 3571TIP3    H232205   2.225   0.134  11.782 -1.2408  0.4118 -0.0311
 3572TIP3   OH232206   1.066   3.158   0.375  0.4464 -0.0053  0.4624
 3572TIP3    H132207   1.055   3.242   0.419 -1.6731  0.6325 -1.0888
 3572TIP3    H232208   1.159   3.154   0.352  1.0228  0.8849  2.4317
 3573TIP3   OH232209   2.200   1.640  15.306 -0.5793  0.1086 -0.6328
 3573TIP3    H132210   2.212   1.679  15.393  1.6331 -3.4721  0.8623
 3573TIP3    H232211   2.242   1.703  15.246  0.5518  1.2577  1.2629
 3574TIP3   OH232212   1.926   2.636   4.677  0.9364 -0.4390  0.3210
 3574TIP3    H132213   1.964   2.548   4.676  2.9569  0.3596  1.6206
 3574TIP3    H232214   1.833   2.621   4.697  1.1320 -2.2991  0.0245
 3575TIP3   OH232215   4.342   0.009  15.716 -0.1782 -0.0293 -0.1450
 3575TIP3    H132216   4.300   0.043  15.637  0.9012 -1.6453 -1.4938
 3575TIP3    H232217   4.436   0.019  15.701  0.2488 -3.4384 -0.7252
 3576TIP3   OH232218   3.475   4.461  13.031 -0.1883  0.7310 -0.1726
 3576TIP3    H132219   3.477   4.365  13.038 -0.2458  0.7969  0.9327
 3576TIP3    H232220   3.567   4.486  13.021 -0.2507  0.5099 -1.3975
 3577TIP3   OH232221   2.064   6.586  14.767 -0.2822 -0.1101  0.2629
 3577TIP3    H132222   2.047   6.654  14.833  0.3694  1.0144 -0.6882
 3577TIP3    H232223   2.034   6.625  14.685  0.9227 -0.6293 -0.4424
 3578TIP3   OH232224   2.551   1.301   1.143  0.0948 -0.0384  0.0055
 3578TIP3    H132225   2.582   1.379   1.098 -0.1025 -0.6883 -1.3009
 3578TIP3    H232226   2.608   1.230   1.112  1.0709 -0.2394  2.1127
 3579TIP3   OH232227   2.467   6.153  16.014  0.5343 -0.4587 -0.4748
 3579TIP3    H132228   2.459   6.060  16.038  0.1893 -0.2661  0.1702
 3579TIP3    H232229   2.506   6.151  15.926  0.2985 -1.2222 -0.5753
 3580TIP3   OH232230   6.501   3.101   2.134 -0.2205 -0.0845  0.2689
 3580TIP3    H132231   6.452   3.027   2.170  1.8072 -1.8462 -0.3466
 3580TIP3    H232232   6.468   3.111   2.045 -0.1968 -0.5712  0.2017
 3581TIP3   OH232233   3.980   2.389  16.067 -0.3969 -0.0848  0.4984
 3581TIP3    H132234   3.945   2.328  16.003 -0.4306 -0.0220  0.4581
 3581TIP3    H232235   4.019   2.460  16.015 -1.2144  0.4157  0.5618
 3582TIP3   OH232236   2.606   5.754   2.659 -0.0840  0.2417  0.1806
 3582TIP3    H132237   2.588   5.664   2.687  0.6529  0.6468  2.1840
 3582TIP3    H232238   2.545   5.770   2.588  0.0278 -1.9673 -0.4939
 3583TIP3   OH232239   2.980   6.468   1.332  0.3240 -0.0753  0.0245
 3583TIP3    H132240   2.964   6.435   1.244  2.7014  1.0462 -0.9000
 3583TIP3    H232241   2.928   6.547   1.338  0.2770 -0.0681 -0.4439
 3584TIP3   OH232242   5.188   4.697  15.834 -0.3056 -0.0976  0.7962
 3584TIP3    H132243   5.102   4.703  15.791  2.1714  1.7951 -5.0050
 3584TIP3    H232244   5.207   4.787  15.860  1.3433  0.4295 -1.8608
 3585TIP3   OH232245   3.145   2.332  11.224  0.5031  0.8840  0.1675
 3585TIP3    H132246   3.063   2.378  11.238 -0.2119 -0.5874  1.0048
 3585TIP3    H232247   3.153   2.271  11.298  1.2548 -0.5394 -1.0041
 3586TIP3   OH232248   4.558   0.878  16.118  0.2535  0.2615 -0.7604
 3586TIP3    H132249   4.518   0.838  16.195  1.0822  0.8831  0.0102
 3586TIP3    H232250   4.570   0.970  16.141  0.3798  0.4918 -1.6888
 3587TIP3   OH232251   0.577   6.824  11.821  0.2794 -0.1475  0.0770
 3587TIP3    H132252   0.520   6.778  11.883  0.4171 -0.3876  0.0236
 3587TIP3    H232253   0.604   6.903  11.869 -2.4300  1.5096 -0.9065
 3588TIP3   OH232254   0.695   1.637   5.553 -0.4284 -0.0286 -0.1943
 3588TIP3    H132255   0.666   1.722   5.518 -0.1701  0.0208 -0.2874
 3588TIP3    H232256   0.645   1.626   5.634 -0.4319  0.2318 -0.1598
 3589TIP3   OH232257   0.255   4.092  14.566  0.1496 -0.7632 -0.1385
 3589TIP3    H132258   0.176   4.139  14.593  0.4352 -0.0961 -0.4564
 3589TIP3    H232259   0.325   4.157  14.572  0.3750 -0.8586 -1.5718
 3590TIP3   OH232260   2.206   0.119   2.021  0.2689 -0.2108  0.3828
 3590TIP3    H132261   2.130   0.102   1.966  0.5407 -0.7432  0.1595
 3590TIP3    H232262   2.200   0.211   2.044 -0.7281 -0.3756  0.8136
 3591TIP3   OH232263   3.610   3.547  12.003  0.4774  0.1347  0.0233
 3591TIP3    H132264   3.688   3.510  11.963  0.5973  0.5829 -0.1591
 3591TIP3    H232265   3.538   3.515  11.949  0.5281 -0.3173  0.2190
 3592TIP3   OH232266   0.648   5.822  12.675 -0.2297 -0.2649  0.1016
 3592TIP3    H132267   0.606   5.907  12.660 -1.1842 -0.8010 -0.3693
 3592TIP3    H232268   0.727   5.824  12.622 -0.5562  0.1039 -0.3792
 3593TIP3   OH232269   2.618   5.922   3.227  0.0918  0.3615 -0.3478
 3593TIP3    H132270   2.623   5.914   3.131  2.4725  1.8424 -0.4155
 3593TIP3    H232271   2.588   5.835   3.256  0.2883 -0.4484 -2.3576
 3594TIP3   OH232272   2.300   0.897   0.539  0.4332 -0.2198 -0.2651
 3594TIP3    H132273   2.334   0.852   0.616 -1.0090 -1.0075 -0.0575
 3594TIP3    H232274   2.375   0.903   0.480  0.8920 -2.1984  0.0302
 3595TIP3   OH232275   3.050   5.095  11.145 -0.1972  0.5893  0.0555
 3595TIP3    H132276   2.955   5.093  11.153 -0.2675  0.7550 -0.6707
 3595TIP3    H232277   3.073   5.187  11.155  0.0165  0.4105  1.4571
 3596TIP3   OH232278   0.284   4.754   0.461  0.2608  0.3208  0.3982
 3596TIP3    H132279   0.345   4.822   0.489  1.5710 -0.4222 -0.5288
 3596TIP3    H232280   0.292   4.752   0.366 -0.3034 -0.6395  0.3563
 3597TIP3   OH232281   0.327   1.314   2.445  0.0960 -0.9133  0.2845
 3597TIP3    H132282   0.250   1.356   2.407 -0.4082 -1.7604  0.3369
 3597TIP3    H232283   0.365   1.380   2.503 -1.8552 -1.1866  1.9904
 3598TIP3   OH232284   0.603   5.547  15.961  0.3632 -0.3929 -0.1849
 3598TIP3    H132285   0.662   5.481  15.996  2.2772  1.4346  0.2019
 3598TIP3    H232286   0.660   5.616  15.928 -1.5092  2.0730  1.3461
 3599TIP3   OH232287   0.695   3.366  16.218 -0.2827  0.1028 -0.7168
 3599TIP3    H132288   0.763   3.347  16.153  0.1646  1.0466 -0.5367
 3599TIP3    H232289   0.740   3.360  16.302 -0.9482 -1.5116 -0.4287
 3600TIP3   OH232290   6.810   3.880  16.263  0.0866 -0.2948  0.3234
 3600TIP3    H132291   6.815   3.787  16.240 -0.6130 -0.6076  1.3525
 3600TIP3    H232292   6.724   3.890  16.302  0.5210  0.5921  1.0878
 3601TIP3   OH232293   0.365   0.962   5.656 -1.0430 -0.2766  0.2385
 3601TIP3    H132294   0.429   0.898   5.625 -0.7554  0.2349 -0.2336
 3601TIP3    H232295   0.281   0.926   5.629 -0.9039 -0.5967  0.2267
 3602TIP3   OH232296   0.022   1.416   3.845  0.2335  0.1928 -0.4518
 3602TIP3    H132297   0.046   1.499   3.803  0.8013 -0.4970 -1.5332
 3602TIP3    H232298  -0.063   1.394   3.808  0.1304  0.2466 -0.2451
 3603TIP3   OH232299   0.868   1.206   0.075  0.5108 -0.3793  0.3432
 3603TIP3    H132300   0.933   1.139   0.094  1.9736  0.7596 -0.4494
 3603TIP3    H232301   0.784   1.164   0.095  1.4336 -2.0638  0.8926
 3604TIP3   OH232302   1.125   3.967  13.918  0.0701 -0.0712 -0.5253
 3604TIP3    H132303   1.183   3.891  13.917 -0.0114 -0.1864  0.9335
 3604TIP3    H232304   1.097   3.978  13.827  0.9988 -1.0724 -0.9442
 3605TIP3   OH232305   5.211   4.057  10.537 -0.2278  0.1066 -0.2223
 3605TIP3    H132306   5.134   4.021  10.493 -1.6830  1.0701  1.4216
 3605TIP3    H232307   5.239   4.129  10.481 -2.5222  1.8153  0.6846
 3606TIP3   OH232308   1.861   4.285  15.219  0.1200  0.4575 -0.3424
 3606TIP3    H132309   1.803   4.360  15.222  1.0993  1.3284 -2.0759
 3606TIP3    H232310   1.837   4.238  15.139 -1.3557 -1.9019  1.3203
 3607TIP3   OH232311   0.707   3.222  12.585 -0.2227 -0.4911  0.4393
 3607TIP3    H132312   0.772   3.207  12.516 -0.4934  3.1053 -0.8304
 3607TIP3    H232313   0.635   3.163  12.563 -0.5893  0.9384 -2.9456
 3608TIP3   OH232314   4.677   0.822  15.860  0.0430 -0.0171  0.0152
 3608TIP3    H132315   4.621   0.848  15.932 -0.3785  0.1599 -0.3729
 3608TIP3    H232316   4.708   0.735  15.884  0.4665  0.3174  0.7314
 3609TIP3   OH232317   5.041   5.125  13.572 -0.7150 -0.2104  0.4805
 3609TIP3    H132318   4.960   5.173  13.554  0.8478  1.5863 -2.4051
 3609TIP3    H232319   5.050   5.130  13.667 -1.7301  3.5297  0.5493
 3610TIP3   OH232320   2.093   1.377   0.395  0.0202  0.5681  0.4116
 3610TIP3    H132321   2.121   1.287   0.378 -0.0852  0.7569 -0.9337
 3610TIP3    H232322   1.997   1.373   0.391 -0.0045  0.6501  0.8842
 3611TIP3   OH232323   6.659   3.060  12.453 -0.1950 -0.2302 -0.0045
 3611TIP3    H132324   6.727   3.081  12.517 -0.5294  0.6268  0.0807
 3611TIP3    H232325   6.702   3.069  12.368 -0.2266  0.4213  0.0467
 3612TIP3   OH232326   2.918   3.341   0.032  0.0535 -0.6759  0.2068
 3612TIP3    H132327   2.967   3.360   0.111 -0.8936 -1.8530  1.0990
 3612TIP3    H232328   2.847   3.283   0.060 -0.0254 -1.5091 -1.5757
 3613TIP3   OH232329   4.734   3.434   3.156  0.1680 -0.3823 -0.6126
 3613TIP3    H132330   4.778   3.472   3.232  1.4737 -0.7836 -1.1398
 3613TIP3    H232331   4.667   3.498   3.132 -0.6301 -0.4918  1.1874
 3614TIP3   OH232332   6.351   4.354   2.162 -0.1089  0.2972  0.7547
 3614TIP3    H132333   6.284   4.360   2.094  0.3051 -0.5504  0.2538
 3614TIP3    H232334   6.319   4.286   2.221  0.7833 -0.8627 -0.0578
 3615TIP3   OH232335   5.157   1.120  16.365 -0.5381  0.1531  0.1195
 3615TIP3    H132336   5.171   1.214  16.376 -3.5490  0.4730  2.1741
 3615TIP3    H232337   5.243   1.087  16.337  1.4717  3.0412  2.2072
 3616TIP3   OH232338   4.221   4.167  12.803 -0.0768 -0.4680 -0.1885
 3616TIP3    H132339   4.146   4.128  12.759  0.5299 -1.4628 -0.3790
 3616TIP3    H232340   4.183   4.216  12.876 -0.9581 -0.3238 -0.7312
 3617TIP3   OH232341   5.495   0.692   3.376  0.0199  0.0504 -0.1950
 3617TIP3    H132342   5.505   0.620   3.438 -0.8355 -0.3553 -0.5073
 3617TIP3    H232343   5.489   0.649   3.291  3.0545  0.6683 -0.8548
 3618TIP3   OH232344   1.619   3.725  12.719 -0.3205 -0.2752 -0.1061
 3618TIP3    H132345   1.676   3.663  12.673 -0.2160 -0.9692  0.9156
 3618TIP3    H232346   1.561   3.760  12.651  1.0519  0.1466 -1.0918
 3619TIP3   OH232347   6.740   1.525   4.822 -0.5545  0.1505 -0.6153
 3619TIP3    H132348   6.747   1.513   4.727 -0.7247 -2.9855 -0.3486
 3619TIP3    H232349   6.654   1.489   4.844 -0.9257  1.7288  0.6534
 3620TIP3   OH232350   5.515   1.769   3.474 -0.1943 -0.6143 -0.4086
 3620TIP3    H132351   5.556   1.683   3.477  1.1818  0.0338  0.9854
 3620TIP3    H232352   5.439   1.762   3.531  1.3454 -0.2957  1.8390
 3621TIP3   OH232353   1.205   5.677  11.869 -0.2644  0.0693  0.1736
 3621TIP3    H132354   1.281   5.734  11.876 -0.3558  0.2049  0.0662
 3621TIP3    H232355   1.242   5.590  11.854 -0.1487  0.2633 -0.6978
 3622TIP3   OH232356   1.035   5.117  12.253 -0.4988  0.7255 -0.0622
 3622TIP3    H132357   1.054   5.194  12.305 -0.3792  0.4787  0.2626
 3622TIP3    H232358   1.079   5.132  12.169  0.0461  0.7289  0.2238
 3623TIP3   OH232359   2.652   5.781   1.582 -0.2892  0.1039 -0.6735
 3623TIP3    H132360   2.651   5.741   1.495  0.6684  0.7610 -0.9993
 3623TIP3    H232361   2.677   5.872   1.566  0.6008  0.0617  0.3587
 3624TIP3   OH232362   0.999   2.612   5.630 -0.3107  0.2428  0.3548
 3624TIP3    H132363   1.063   2.569   5.573 -0.3602  0.9086 -0.2335
 3624TIP3    H232364   1.050   2.680   5.675 -0.5905  0.7761 -0.1168
 3625TIP3   OH232365   3.024   2.703  14.903 -0.4574  0.1062  0.3962
 3625TIP3    H132366   3.050   2.612  14.916 -0.7669 -0.3901 -2.0212
 3625TIP3    H232367   2.930   2.700  14.890 -0.4357  0.7428  0.0379
 3626TIP3   OH232368   5.868   3.574   1.159 -0.3805 -0.4423  0.9795
 3626TIP3    H132369   5.787   3.588   1.209 -1.0715 -0.8857  0.0243
 3626TIP3    H232370   5.915   3.507   1.209 -0.1490  0.4886  2.0378
 3627TIP3   OH232371   6.577   4.147   4.399 -0.0708  0.0983  0.2826
 3627TIP3    H132372   6.644   4.117   4.460 -1.0927 -0.2811  1.2339
 3627TIP3    H232373   6.549   4.068   4.353  1.7487  0.5754 -1.8208
 3628TIP3   OH232374   0.492   0.509   0.599 -0.0852 -0.0669  0.7970
 3628TIP3    H132375   0.528   0.461   0.674 -0.1127  2.4901  2.5742
 3628TIP3    H232376   0.538   0.593   0.601 -1.1217  0.5936 -1.2317
 3629TIP3   OH232377   5.383   3.756  14.534 -0.0191 -0.3287  0.4920
 3629TIP3    H132378   5.456   3.811  14.563 -0.3563 -0.0702  0.8851
 3629TIP3    H232379   5.413   3.715  14.453 -0.0777  1.1233 -0.2953
 3630TIP3   OH232380   4.296   2.738   3.377 -0.4766 -0.8774  0.7871
 3630TIP3    H132381   4.282   2.741   3.472 -0.0610  1.6642  0.8175
 3630TIP3    H232382   4.390   2.753   3.366 -0.2829 -2.5042 -0.0169
 3631TIP3   OH232383   2.080   4.730   1.792 -0.5427 -0.2382  0.6444
 3631TIP3    H132384   1.985   4.744   1.786 -0.8203 -2.1335 -0.0223
 3631TIP3    H232385   2.099   4.737   1.886 -1.4430 -0.4190  0.8527
 3632TIP3   OH232386   4.772   2.437   4.091 -0.0917  0.4409 -0.4568
 3632TIP3    H132387   4.859   2.405   4.067 -0.5736 -1.4077  0.1702
 3632TIP3    H232388   4.717   2.418   4.014 -0.0918  1.0533 -0.6164
 3633TIP3   OH232389   6.661   3.159   4.573 -0.3552 -0.3170 -0.0069
 3633TIP3    H132390   6.756   3.172   4.567 -0.6400  2.3760  0.1802
 3633TIP3    H232391   6.635   3.134   4.485  0.3369  0.8525 -0.5770
 3634TIP3   OH232392   5.923   2.500  12.659 -0.7575 -0.0094  0.0158
 3634TIP3    H132393   5.841   2.522  12.704  0.1109  0.3361  1.4796
 3634TIP3    H232394   5.922   2.405  12.652 -0.7506 -0.0997  1.1083
 3635TIP3   OH232395   1.052   6.232   0.745  0.4977 -0.3945 -0.2330
 3635TIP3    H132396   1.067   6.184   0.827  0.6029  0.0532  0.0111
 3635TIP3    H232397   1.053   6.324   0.771 -0.1816 -0.2748 -0.6225
 3636TIP3   OH232398   4.857   3.321  15.631 -0.4107  0.2989  0.3028
 3636TIP3    H132399   4.922   3.256  15.657 -0.4671  1.0288  2.5453
 3636TIP3    H232400   4.902   3.375  15.566  0.4131 -0.6130  0.0967
 3637TIP3   OH232401   2.019   5.647  11.906  0.3891  0.1562  0.2079
 3637TIP3    H132402   1.931   5.612  11.917  0.9632 -1.2357  0.6138
 3637TIP3    H232403   2.008   5.723  11.848 -0.8528 -1.1271 -1.3391
 3638TIP3   OH232404   5.985   3.105   1.389 -0.2723  0.0795 -0.6443
 3638TIP3    H132405   6.043   3.111   1.314  0.1096 -3.0128 -0.7003
 3638TIP3    H232406   6.039   3.132   1.463  0.2471  0.2932 -1.0961
 3639TIP3   OH232407   2.361   4.146  11.385  0.1622 -0.5773  0.5897
 3639TIP3    H132408   2.371   4.051  11.396  1.6122 -0.6891 -1.1764
 3639TIP3    H232409   2.274   4.156  11.346 -0.0941 -1.1555  0.9950
 3640TIP3   OH232410   1.406   3.958  12.187 -0.2152  0.5208  0.2500
 3640TIP3    H132411   1.425   4.009  12.109  0.8711  0.5761  0.5370
 3640TIP3    H232412   1.346   4.013  12.238 -2.8657 -0.4730 -1.5621
 3641TIP3   OH232413   4.168   3.376   5.795 -0.4480 -0.1251  0.2343
 3641TIP3    H132414   4.142   3.393   5.886 -0.7522  0.6813  0.0095
 3641TIP3    H232415   4.190   3.463   5.760 -1.9946 -0.1635 -0.9582
 3642TIP3   OH232416   5.474   2.155   4.580  0.1157  0.3136 -0.2223
 3642TIP3    H132417   5.410   2.086   4.563  0.1405 -0.2067  1.5291
 3642TIP3    H232418   5.422   2.228   4.613  0.3367  0.1334  0.5485
 3643TIP3   OH232419   4.153   1.199  13.560  0.0105  0.2110 -0.6904
 3643TIP3    H132420   4.151   1.146  13.481  0.6767 -0.3437 -0.3382
 3643TIP3    H232421   4.093   1.155  13.620  1.4621 -0.8510  0.0308
 3644TIP3   OH232422   2.118   2.773   0.489  0.2929 -0.8096 -0.3756
 3644TIP3    H132423   2.211   2.796   0.485 -0.2535  1.8771  0.3299
 3644TIP3    H232424   2.082   2.804   0.406  0.1612 -2.7401 -1.0708
 3645TIP3   OH232425   4.269   4.902   5.510 -0.1618 -0.6971  0.5531
 3645TIP3    H132426   4.181   4.934   5.528  0.9936  1.4721  3.1176
 3645TIP3    H232427   4.293   4.943   5.427 -1.3440 -0.8894  0.0943
 3646TIP3   OH232428   5.026   5.058   4.245  0.7533  0.0680 -0.3394
 3646TIP3    H132429   5.083   5.101   4.309  1.3066 -0.1949 -0.6469
 3646TIP3    H232430   4.965   5.127   4.217  0.2328  0.0782  0.7692
 3647TIP3   OH232431   2.132   4.875  15.059 -0.5507  0.9450 -0.1703
 3647TIP3    H132432   2.084   4.814  15.115  0.7564  0.1007  0.0786
 3647TIP3    H232433   2.064   4.921  15.010 -1.6954  1.2518  1.6287
 3648TIP3   OH232434   1.670   4.875   1.048  0.3329 -0.2886 -0.3591
 3648TIP3    H132435   1.702   4.940   1.111 -1.8427  2.0500 -1.5062
 3648TIP3    H232436   1.575   4.877   1.057  0.0989 -1.8660 -1.8734
 3649TIP3   OH232437   4.007   0.292   4.236 -0.3353  0.0253 -0.1367
 3649TIP3    H132438   4.088   0.303   4.186  0.1538 -0.4412  0.5280
 3649TIP3    H232439   3.937   0.294   4.171  0.2061  0.5029 -0.7093
 3650TIP3   OH232440   2.249   2.870   1.053  1.0854  0.0616 -0.2468
 3650TIP3    H132441   2.189   2.898   1.123  0.5574 -0.2247 -0.5845
 3650TIP3    H232442   2.310   2.944   1.044  0.1820  0.7843 -0.5831
 3651TIP3   OH232443   6.121   1.420   0.217 -0.0114  0.0380 -0.2954
 3651TIP3    H132444   6.109   1.358   0.145  0.7489 -0.2399 -0.1937
 3651TIP3    H232445   6.120   1.506   0.175  0.9874 -0.1435 -0.7377
 3652TIP3   OH232446   5.374   5.242  13.972 -0.1325 -0.0378  0.3195
 3652TIP3    H132447   5.461   5.202  13.967 -0.4087 -0.5606 -0.2688
 3652TIP3    H232448   5.392   5.333  13.998  0.5479 -0.2953  0.7982
 3653TIP3   OH232449   0.785   4.406   3.858 -0.5670 -0.4266  0.0976
 3653TIP3    H132450   0.816   4.431   3.771 -2.0180 -2.1679 -0.9949
 3653TIP3    H232451   0.690   4.422   3.855 -0.8316 -1.7539  0.8760
 3654TIP3   OH232452   3.262   4.582   5.121  0.4321  0.1130  0.6825
 3654TIP3    H132453   3.192   4.644   5.139  0.5937  1.0989 -1.7633
 3654TIP3    H232454   3.218   4.498   5.107 -0.0312  0.2637  1.1968
 3655TIP3   OH232455   2.552   3.416  12.747  0.5730 -0.3337  0.1866
 3655TIP3    H132456   2.475   3.409  12.802  0.9406 -1.5777  0.5710
 3655TIP3    H232457   2.577   3.508  12.751 -0.1052 -0.1865  1.1243
 3656TIP3   OH232458   5.636   5.867  12.182  0.0477  0.7513  0.3003
 3656TIP3    H132459   5.713   5.863  12.239  0.3307 -0.1522 -0.1164
 3656TIP3    H232460   5.614   5.775  12.166 -0.4114  0.9931 -0.5272
 3657TIP3   OH232461   4.954   5.611   4.961  0.2642 -0.5144 -0.4854
 3657TIP3    H132462   4.905   5.644   4.886 -3.0552 -1.7471  0.9664
 3657TIP3    H232463   4.943   5.677   5.029 -0.8188 -1.5338  0.3617
 3658TIP3   OH232464   6.024   1.879   5.298  0.2775  0.4874 -0.8788
 3658TIP3    H132465   6.057   1.909   5.213 -1.5102  2.6314 -0.9406
 3658TIP3    H232466   5.933   1.854   5.281  0.2553 -0.2271  0.1886
 3659TIP3   OH232467   4.914   2.041  15.023 -0.2315  0.0037 -0.0201
 3659TIP3    H132468   4.939   2.068  15.111 -2.7671  0.1605  0.7170
 3659TIP3    H232469   4.878   1.953  15.033 -0.9355  0.1827 -0.8331
 3660TIP3   OH232470   6.380   6.498   0.079  0.2895  1.0112  0.1118
 3660TIP3    H132471   6.408   6.480   0.168 -0.0442 -1.0390 -0.1597
 3660TIP3    H232472   6.344   6.415   0.048 -1.5720  2.2304 -1.2028
 3661TIP3   OH232473   4.069   5.081  13.193 -0.1181 -0.4076  0.3974
 3661TIP3    H132474   4.146   5.072  13.136 -0.3386 -0.0583  0.0453
 3661TIP3    H232475   4.025   5.160  13.163 -2.0080 -1.9020 -1.0987
 3662TIP3   OH232476   6.810   2.849   6.189 -0.2599 -0.1298  0.0033
 3662TIP3    H132477   6.831   2.779   6.250  1.2251  1.4144  1.3789
 3662TIP3    H232478   6.826   2.812   6.103  0.3947 -1.5136  0.6884
 3663TIP3   OH232479   6.377   2.050  16.696 -0.5323  0.7441  0.5392
 3663TIP3    H132480   6.364   2.135  16.654  1.8670  0.7441 -0.3560
 3663TIP3    H232481   6.451   2.063  16.755  2.4613 -1.4532 -2.3675
 3664TIP3   OH232482   2.091   0.531   5.519 -0.3033 -0.0287  0.4334
 3664TIP3    H132483   2.033   0.603   5.541 -1.5158  0.4772 -3.5716
 3664TIP3    H232484   2.172   0.572   5.488 -0.1432 -0.4955  0.2115
 3665TIP3   OH232485   1.789   0.944  13.762  0.7053  0.0428 -0.0165
 3665TIP3    H132486   1.818   1.018  13.708  0.9995  0.3634  0.5575
 3665TIP3    H232487   1.867   0.920  13.813  0.0180  0.8500  1.4895
 3666TIP3   OH232488   2.956   3.220  15.779  0.3625 -0.0908 -0.5626
 3666TIP3    H132489   3.020   3.269  15.831 -0.5774  0.0210  0.5382
 3666TIP3    H232490   2.983   3.234  15.688  0.8750  1.3962 -0.2145
 3667TIP3   OH232491   4.258   2.235  13.582  0.4001 -0.4640 -0.4091
 3667TIP3    H132492   4.314   2.204  13.511  1.9041  3.9720 -1.5052
 3667TIP3    H232493   4.315   2.234  13.659  0.5891 -0.0307 -0.5421
 3668TIP3   OH232494   0.529   1.861   5.754 -0.4849  0.1845  0.3452
 3668TIP3    H132495   0.455   1.918   5.775 -0.5387  0.3819 -0.3617
 3668TIP3    H232496   0.561   1.893   5.670 -0.1799 -0.4944  0.1951
 3669TIP3   OH232497   0.003   6.283   1.457  0.2045  0.2071  0.4666
 3669TIP3    H132498   0.093   6.315   1.461 -0.0691  1.2123 -0.6551
 3669TIP3    H232499   0.008   6.192   1.485  1.8166 -0.2336 -1.0953
 3670TIP3   OH232500   4.447   1.996   5.164 -0.0951 -0.3857  0.1874
 3670TIP3    H132501   4.368   2.048   5.173  1.2974  1.8223  0.6179
 3670TIP3    H232502   4.462   1.991   5.070  1.4657  3.0218  0.0943
 3671TIP3   OH232503   5.275   1.044   3.733 -0.4213 -0.1567 -0.0460
 3671TIP3    H132504   5.292   1.111   3.666  1.3971  0.7761  1.2566
 3671TIP3    H232505   5.348   0.982   3.724 -2.9623 -3.1712 -2.4220
 3672TIP3   OH232506   5.196   3.533  12.215 -0.0176 -0.2199  0.7485
 3672TIP3    H132507   5.269   3.525  12.153 -0.7781 -1.9964 -0.0038
 3672TIP3    H232508   5.146   3.608  12.185  1.2146  0.7183  0.9803
 3673TIP3   OH232509   3.993   6.693   0.018  0.5511 -0.2760  0.0711
 3673TIP3    H132510   3.945   6.611   0.016  0.4924 -0.2337 -1.9656
 3673TIP3    H232511   4.064   6.681  -0.044 -1.1674  2.1567 -2.6248
 3674TIP3   OH232512   2.414   1.307  11.651 -0.1010  0.1262  0.5208
 3674TIP3    H132513   2.425   1.212  11.657  1.3133  0.2252 -0.1440
 3674TIP3    H232514   2.320   1.320  11.638 -0.2689 -1.1897  0.3184
 3675TIP3   OH232515   3.936   5.683  12.781  0.1889 -0.1366 -0.0759
 3675TIP3    H132516   3.971   5.741  12.715  1.5006  0.6705  1.2679
 3675TIP3    H232517   3.841   5.693  12.773  0.3588  1.2529 -0.6938
 3676TIP3   OH232518   1.218   2.979   5.629  0.2784  0.4124  0.3250
 3676TIP3    H132519   1.145   2.998   5.688  0.0499 -0.4520  0.3227
 3676TIP3    H232520   1.295   2.986   5.685  0.1451  0.6254  0.4882
 3677TIP3   OH232521   4.303   2.251   6.285 -0.1172 -0.0511 -0.2339
 3677TIP3    H132522   4.349   2.190   6.229 -0.3318 -1.7526  1.3631
 3677TIP3    H232523   4.211   2.245   6.258 -0.0592 -0.0140 -0.4406
 3678TIP3   OH232524   2.780   4.123   5.788 -0.2585  0.0693 -0.0556
 3678TIP3    H132525   2.837   4.149   5.860 -0.3567  0.4293 -0.1079
 3678TIP3    H232526   2.763   4.030   5.804 -0.5698  0.2332  0.5808
 3679TIP3   OH232527   0.137   5.091  15.930  0.1301  0.5331 -0.1850
 3679TIP3    H132528   0.083   5.159  15.890 -1.4627 -1.0336 -0.8438
 3679TIP3    H232529   0.149   5.026  15.861  2.9741  0.8088 -0.0763
 3680TIP3   OH232530   4.707   2.343  15.061  0.5843 -0.1162  0.4059
 3680TIP3    H132531   4.616   2.365  15.040 -0.1004 -1.7358  1.5355
 3680TIP3    H232532   4.750   2.428  15.073 -0.3611  0.7232 -1.7061
 3681TIP3   OH232533   2.507   4.201  14.666 -0.1183 -0.6588  0.1025
 3681TIP3    H132534   2.553   4.130  14.621  1.8344  0.5611  0.0752
 3681TIP3    H232535   2.576   4.253  14.707 -1.1521  2.9116 -2.2213
 3682TIP3   OH232536   1.862   3.985  16.027  0.1024  0.5038  0.4695
 3682TIP3    H132537   1.887   3.893  16.038  1.3438  0.7935  0.2866
 3682TIP3    H232538   1.939   4.026  15.988 -0.3506  1.6670  0.7449
 3683TIP3   OH232539   1.145   6.418  14.195 -0.2799  0.5489 -0.2917
 3683TIP3    H132540   1.094   6.355  14.145  0.4299 -0.8502  0.6554
 3683TIP3    H232541   1.083   6.453  14.260 -0.3872 -0.0770 -0.0526
 3684TIP3   OH232542   1.255   0.651  15.771  0.3784  0.0891  0.1857
 3684TIP3    H132543   1.307   0.731  15.781 -0.7879  0.7675  0.9941
 3684TIP3    H232544   1.165   0.679  15.781  0.0128 -1.5224  1.8720
 3685TIP3   OH232545   4.456   5.259  12.847 -0.8221 -0.0198  0.1604
 3685TIP3    H132546   4.506   5.338  12.827  1.5805 -1.0019  1.8216
 3685TIP3    H232547   4.460   5.208  12.766 -2.6993  1.6027 -1.0527
 3686TIP3   OH232548   6.594   2.594   1.729 -0.2087  0.2997  0.7872
 3686TIP3    H132549   6.613   2.524   1.792 -1.6823  0.8639  1.9232
 3686TIP3    H232550   6.674   2.647   1.726 -0.4130  0.8028  2.9326
 3687TIP3   OH232551   0.508   3.051  12.453 -0.0700  0.4960  0.3747
 3687TIP3    H132552   0.420   3.015  12.466 -0.9129  2.2577 -0.1429
 3687TIP3    H232553   0.515   3.064  12.359  0.8076  0.2535  0.3989
 3688TIP3   OH232554   3.504   6.345  15.700  0.0911  0.1431  0.0520
 3688TIP3    H132555   3.536   6.425  15.742 -1.1162 -0.6897  2.8388
 3688TIP3    H232556   3.537   6.349  15.610  3.6064  1.7222  1.2394
 3689TIP3   OH232557   2.476   4.287  15.303 -0.3704  0.3090  0.4728
 3689TIP3    H132558   2.409   4.229  15.339 -1.9292  2.2668  0.9185
 3689TIP3    H232559   2.531   4.309  15.379 -0.8661  0.7923  0.7030
 3690TIP3   OH232560   4.752   5.817   3.702  0.1630  0.4784 -0.0495
 3690TIP3    H132561   4.730   5.907   3.723  0.4868  0.3033  1.0996
 3690TIP3    H232562   4.823   5.795   3.762  0.0060 -0.5805 -0.2322
 3691TIP3   OH232563   2.298   2.995  15.875 -0.3017  0.7314 -0.1423
 3691TIP3    H132564   2.355   2.919  15.887  0.2680  1.4662  2.5163
 3691TIP3    H232565   2.272   2.992  15.783  1.7356 -1.2428 -0.7347
 3692TIP3   OH232566   4.318   1.307   3.868  0.1644  0.3644 -0.1370
 3692TIP3    H132567   4.345   1.274   3.783  0.0873 -0.2935  0.0813
 3692TIP3    H232568   4.311   1.228   3.923 -0.4031  0.7085  0.2992
 3693TIP3   OH232569   0.889   0.068  11.741 -0.1140  0.0555 -0.1106
 3693TIP3    H132570   0.899   0.088  11.648 -1.0923 -1.2629 -0.5295
 3693TIP3    H232571   0.977   0.081  11.778  0.4022  0.1151 -1.3106
 3694TIP3   OH232572   3.314   4.165   4.875  0.3807 -0.1281 -0.4314
 3694TIP3    H132573   3.342   4.246   4.832 -1.1291 -0.3120 -1.8727
 3694TIP3    H232574   3.283   4.109   4.803 -0.5055 -1.1844  0.7236
 3695TIP3   OH232575   2.170   4.259  13.498 -0.0252  0.1286 -0.0477
 3695TIP3    H132576   2.255   4.301  13.508 -0.1594  0.2092  0.8121
 3695TIP3    H232577   2.182   4.171  13.535 -0.2328  0.0303 -0.2111
 3696TIP3   OH232578   4.482   5.270  13.931 -0.1949  0.6882 -0.0763
 3696TIP3    H132579   4.460   5.357  13.964 -0.3080  0.9562 -0.8313
 3696TIP3    H232580   4.434   5.264  13.848  0.1260  0.0588 -0.2180
 3697TIP3   OH232581   3.400   1.608  11.145  0.3873 -0.1645 -0.4206
 3697TIP3    H132582   3.369   1.584  11.232 -0.8678 -1.3365 -1.1441
 3697TIP3    H232583   3.486   1.646  11.160  1.0414 -2.0643  1.1697
 3698TIP3   OH232584   4.044   5.913   3.072 -0.3098  0.1317  0.5184
 3698TIP3    H132585   4.059   5.836   3.018  1.7606  0.4664  0.5031
 3698TIP3    H232586   4.008   5.979   3.013  1.5073  0.3524 -0.4072
 3699TIP3   OH232587   0.878   2.858   4.206  0.3171 -0.1877  0.4343
 3699TIP3    H132588   0.931   2.938   4.202 -0.9323  0.7807  2.1264
 3699TIP3    H232589   0.889   2.827   4.296 -0.2997 -1.1798  0.1772
 3700TIP3   OH232590   5.520   4.525  13.009  0.8079 -0.2495 -0.4694
 3700TIP3    H132591   5.498   4.571  13.090  0.7318 -1.2117  0.0706
 3700TIP3    H232592   5.453   4.553  12.947  1.0025  0.6777 -0.2812
 3701TIP3   OH232593   3.530   6.680  11.861  0.0562  0.0968 -1.0197
 3701TIP3    H132594   3.587   6.624  11.808  1.2908  1.0916 -0.7849
 3701TIP3    H232595   3.446   6.677  11.816  0.2949 -1.3470 -1.4293
 3702TIP3   OH232596   6.614   2.092   4.834  0.2415  0.2489  0.6887
 3702TIP3    H132597   6.585   2.070   4.922 -0.7558  1.3992  0.6578
 3702TIP3    H232598   6.710   2.092   4.840  0.2268 -1.1164  1.3924
 3703TIP3   OH232599   1.121   0.305  15.284  0.3607  0.2220 -0.5375
 3703TIP3    H132600   1.114   0.378  15.222 -2.1160 -2.1267 -3.3136
 3703TIP3    H232601   1.036   0.303  15.328 -0.4883 -2.1865 -2.1143
 3704TIP3   OH232602   4.914   1.598   6.034 -0.8149  0.0929 -0.2247
 3704TIP3    H132603   4.940   1.534   5.967 -0.6486 -0.2397  0.1535
 3704TIP3    H232604   4.969   1.674   6.017  0.3674 -0.5671  0.5085
 3705TIP3   OH232605   6.738   1.098   3.990 -0.2702  0.2461  0.3536
 3705TIP3    H132606   6.688   1.019   4.012  0.9820 -0.7766 -0.3151
 3705TIP3    H232607   6.748   1.144   4.073 -1.0633 -0.2779  0.7510
 3706TIP3   OH232608   4.386   3.041  16.964  0.0136 -0.2716  0.1575
 3706TIP3    H132609   4.440   3.102  16.914  0.5205 -1.1073 -0.3646
 3706TIP3    H232610   4.349   3.092  17.035  1.3164  0.3885  0.3855
 3707TIP3   OH232611   0.270   6.498   0.899 -0.3936  0.6864 -0.3963
 3707TIP3    H132612   0.228   6.422   0.937  0.3155  0.9581  0.9777
 3707TIP3    H232613   0.266   6.483   0.804 -0.5891 -0.8743 -0.1605
 3708TIP3   OH232614   2.321   2.664   3.698 -0.0075 -0.5407  0.1220
 3708TIP3    H132615   2.372   2.659   3.779  0.4713  0.2818 -0.1120
 3708TIP3    H232616   2.241   2.614   3.716  0.4806 -1.0833  0.8040
 3709TIP3   OH232617   6.118   2.363   2.357 -0.1462  0.4758 -0.2558
 3709TIP3    H132618   6.116   2.442   2.303  2.1472  0.3726 -0.5791
 3709TIP3    H232619   6.111   2.291   2.295  1.3450  0.3825 -0.3480
 3710TIP3   OH232620   4.832   3.792   1.964  0.5428  0.1951 -0.2631
 3710TIP3    H132621   4.773   3.840   1.905  1.0930  0.8019 -0.3265
 3710TIP3    H232622   4.899   3.754   1.907 -0.0669 -0.9549 -0.2541
 3711TIP3   OH232623   5.672   2.584   3.896  0.3348  0.3484 -0.1381
 3711TIP3    H132624   5.631   2.521   3.954 -0.5191  2.2650  1.4512
 3711TIP3    H232625   5.709   2.531   3.825 -2.0854 -1.7193  0.0327
 3712TIP3   OH232626   6.786   5.972   0.617  0.1712  0.3487 -0.3062
 3712TIP3    H132627   6.748   5.943   0.534  0.3959 -2.9842  0.5958
 3712TIP3    H232628   6.712   6.003   0.669 -0.4807 -0.7104 -0.5828
 3713TIP3   OH232629   2.486   2.453  15.798 -0.7374  0.6891  0.4292
 3713TIP3    H132630   2.542   2.433  15.873 -0.4621 -0.8574 -0.1376
 3713TIP3    H232631   2.545   2.491  15.733 -0.6150  0.3681  0.3505
 3714TIP3   OH232632   0.725   4.130  15.230  0.0706  0.4422  0.0765
 3714TIP3    H132633   0.725   4.208  15.174  1.3072 -0.5031 -1.3062
 3714TIP3    H232634   0.774   4.157  15.307  1.6569  0.6871 -0.9679
 3715TIP3   OH232635   0.614   4.004  14.126  0.0166  0.0995 -0.4946
 3715TIP3    H132636   0.699   3.966  14.104  0.0236  0.3577 -0.9465
 3715TIP3    H232637   0.551   3.952  14.077 -0.3684 -1.7166  1.7770
 3716TIP3   OH232638   1.761   5.983  12.210  0.6641  0.3842 -0.2674
 3716TIP3    H132639   1.835   5.925  12.190  0.5600  0.0689  0.2337
 3716TIP3    H232640   1.769   6.001  12.304  0.4907  0.8963 -0.3492
 3717TIP3   OH232641   3.796   2.709   2.737 -0.0886  0.1793 -0.0879
 3717TIP3    H132642   3.723   2.695   2.797 -1.4087 -0.6290 -1.8239
 3717TIP3    H232643   3.874   2.686   2.788 -0.9489  1.5820  1.9736
 3718TIP3   OH232644   2.403   6.579  15.872  0.6726  0.3310 -0.0028
 3718TIP3    H132645   2.417   6.656  15.927  1.0881  0.7850 -0.7230
 3718TIP3    H232646   2.340   6.609  15.805 -2.6958 -1.1695  2.1903
 3719TIP3   OH232647   6.369   0.510   5.704  0.1031 -0.2391  0.3321
 3719TIP3    H132648   6.452   0.516   5.751  0.4413 -2.9289  0.2222
 3719TIP3    H232649   6.395   0.493   5.613 -0.5864  0.2997  0.0252
 3720TIP3   OH232650   4.066   1.608  11.725  0.0064 -0.4259  0.3884
 3720TIP3    H132651   4.160   1.593  11.729  0.4881  2.3993  1.3554
 3720TIP3    H232652   4.028   1.534  11.773  2.0225  0.4761  3.6624
 3721TIP3   OH232653   1.720   4.785  15.296 -0.0727 -0.1292 -0.0536
 3721TIP3    H132654   1.628   4.780  15.321 -0.0916  1.7749  0.3932
 3721TIP3    H232655   1.768   4.769  15.378  0.1206 -3.2957 -0.6569
 3722TIP3   OH232656   3.575   6.151   5.344  0.1771  0.5160 -0.1359
 3722TIP3    H132657   3.515   6.197   5.402  1.8895  2.0905  0.4895
 3722TIP3    H232658   3.593   6.068   5.388  0.8236  1.3479  1.2218
 3723TIP3   OH232659   1.922   2.685   2.759  0.0017 -0.0093 -0.5809
 3723TIP3    H132660   1.966   2.750   2.814 -0.2405 -1.1380  1.0145
 3723TIP3    H232661   1.886   2.621   2.821 -0.1950 -1.4069 -2.0679
 3724TIP3   OH232662   5.948   6.299  15.246 -0.0785  0.3159 -0.4791
 3724TIP3    H132663   5.909   6.377  15.286 -3.2832 -2.2167  1.8133
 3724TIP3    H232664   6.037   6.297  15.281 -0.7099  1.7055  1.4179
 3725TIP3   OH232665   6.500   6.792  11.885  0.5161  0.5149 -0.3135
 3725TIP3    H132666   6.592   6.804  11.907  0.3519  1.0366  0.1210
 3725TIP3    H232667   6.490   6.698  11.872  0.9591  0.3760  0.3194
 3726TIP3   OH232668   3.952   3.269  11.406 -0.0918  0.4550 -0.1932
 3726TIP3    H132669   3.993   3.329  11.344  0.2324  1.3125  0.8313
 3726TIP3    H232670   4.005   3.276  11.485  0.0508 -1.3182 -0.0961
 3727TIP3   OH232671   3.143   0.223   4.819 -0.4639  0.3275 -0.6051
 3727TIP3    H132672   3.085   0.238   4.893 -0.2215  0.5936 -0.4690
 3727TIP3    H232673   3.086   0.186   4.751 -0.9189  1.1888 -0.7029
 3728TIP3   OH232674   4.373   3.846   3.377 -0.1898  0.3172  0.1102
 3728TIP3    H132675   4.291   3.893   3.389 -0.4662 -0.2853  0.6122
 3728TIP3    H232676   4.352   3.755   3.398  0.2961 -0.0715 -1.0142
 3729TIP3   OH232677   0.274   1.800   3.564 -0.0090 -0.5368 -0.0620
 3729TIP3    H132678   0.329   1.876   3.585 -1.9775  0.8135  0.4376
 3729TIP3    H232679   0.206   1.834   3.506 -0.7788 -1.9935 -0.0717
 3730TIP3   OH232680   5.554   4.597  11.419 -0.1829  0.0231  0.5005
 3730TIP3    H132681   5.619   4.588  11.489  0.1064 -1.0537  0.1118
 3730TIP3    H232682   5.576   4.680  11.377 -0.2188  0.5677  1.5362
 3731TIP3   OH232683   3.848   3.198   1.756  0.5273  0.9811 -0.5885
 3731TIP3    H132684   3.917   3.259   1.729  3.0410 -1.1041  0.6959
 3731TIP3    H232685   3.843   3.135   1.684 -0.2467  1.2743 -0.7939
 3732TIP3   OH232686   1.105   5.580  10.502  0.1261 -0.3527  0.1520
 3732TIP3    H132687   1.136   5.655  10.451  0.7841 -1.7363 -1.5865
 3732TIP3    H232688   1.012   5.575  10.482  0.2736 -0.5621 -0.5106
 3733TIP3   OH232689   3.389   0.181   4.694 -0.3037  0.5023  0.5180
 3733TIP3    H132690   3.317   0.210   4.750 -0.5160 -1.2026  1.1747
 3733TIP3    H232691   3.400   0.252   4.630 -2.6597  0.7538  0.3146
 3734TIP3   OH232692   4.342   2.390  11.297 -0.3359 -0.4830  0.0184
 3734TIP3    H132693   4.325   2.451  11.369  0.5320 -1.9619  1.5313
 3734TIP3    H232694   4.311   2.437  11.219 -1.7056  1.0078  1.3682
 3735TIP3   OH232695   1.622   2.908  16.203 -0.2645  0.5976 -0.2717
 3735TIP3    H132696   1.632   2.974  16.272 -0.4381  2.2478 -1.7576
 3735TIP3    H232697   1.711   2.880  16.182 -0.2135  0.0618  0.6151
 3736TIP3   OH232698   5.337   3.617   2.687  0.7864  0.1847 -0.4261
 3736TIP3    H132699   5.334   3.621   2.592  0.0800  0.1755 -0.4120
 3736TIP3    H232700   5.372   3.702   2.714 -0.6706  0.9009 -0.6442
 3737TIP3   OH232701   1.330   5.155  13.507  0.6412 -0.2787  0.0207
 3737TIP3    H132702   1.402   5.199  13.553  2.9701 -0.8746 -2.7908
 3737TIP3    H232703   1.361   5.065  13.495 -0.2172 -0.3608 -1.9352
 3738TIP3   OH232704   1.288   0.954  15.910  0.1277  1.0411  0.3224
 3738TIP3    H132705   1.332   0.986  15.831 -0.1102  0.1271 -0.2009
 3738TIP3    H232706   1.358   0.946  15.975  0.3790  1.5164  0.1158
 3739TIP3   OH232707   2.795   0.977   4.330  0.6118  0.3106  0.9318
 3739TIP3    H132708   2.863   1.018   4.385  0.2354  2.2283  0.0399
 3739TIP3    H232709   2.716   0.982   4.383  0.7070  0.0473  1.1056
 3740TIP3   OH232710   3.044   4.020  14.563  0.0949 -0.1372 -0.1747
 3740TIP3    H132711   2.992   4.034  14.642  0.9459  1.8050  0.0880
 3740TIP3    H232712   2.981   4.031  14.492 -0.2331  0.4034  0.1896
 3741TIP3   OH232713   0.500   4.414   3.326  0.2546  0.3686  0.1316
 3741TIP3    H132714   0.404   4.416   3.324  0.1782 -1.5931 -1.6817
 3741TIP3    H232715   0.522   4.434   3.417 -2.0662 -2.5060  1.5310
 3742TIP3   OH232716   4.645   0.256  12.438 -0.4639 -0.5018 -0.1705
 3742TIP3    H132717   4.627   0.350  12.432 -1.3004 -0.7177 -1.5138
 3742TIP3    H232718   4.739   0.250  12.450  0.1077  0.4759 -3.2247
 3743TIP3   OH232719   1.696   2.728   2.122 -0.1082 -0.1974 -0.5732
 3743TIP3    H132720   1.659   2.673   2.191 -1.9236  1.7736  0.1379
 3743TIP3    H232721   1.755   2.670   2.074  0.3295 -1.9627  1.8954
 3744TIP3   OH232722   6.431   0.128  14.861 -0.2285 -0.1116  0.8737
 3744TIP3    H132723   6.512   0.093  14.898  0.3546 -0.0370 -0.2862
 3744TIP3    H232724   6.370   0.054  14.864  0.2693 -0.5394  0.6086
 3745TIP3   OH232725   3.736   3.061  11.392  0.4661 -0.2073  0.3720
 3745TIP3    H132726   3.670   3.121  11.426 -0.1611 -0.8480  0.3100
 3745TIP3    H232727   3.817   3.113  11.388 -0.3172  0.9622 -0.7662
 3746TIP3   OH232728   6.264   4.818  10.589  0.6543  0.6121 -0.1476
 3746TIP3    H132729   6.343   4.823  10.643  1.6396 -0.8413 -1.3865
 3746TIP3    H232730   6.277   4.741  10.534 -0.3141  1.9901 -2.4502
 3747TIP3   OH232731   6.158   1.744  13.516  0.2979 -0.2499 -0.1830
 3747TIP3    H132732   6.232   1.799  13.492 -0.6258  0.8800 -0.5448
 3747TIP3    H232733   6.110   1.794  13.582 -1.5684  0.2583 -1.8256
 3748TIP3   OH232734   5.895   6.166   4.495 -0.2003  0.2677  0.1011
 3748TIP3    H132735   5.903   6.112   4.574  0.2938 -1.2538 -0.9414
 3748TIP3    H232736   5.976   6.217   4.493 -0.8242  1.3862  1.2844
 3749TIP3   OH232737   2.780   1.365  11.664 -0.7346 -0.4043 -0.0291
 3749TIP3    H132738   2.798   1.281  11.705 -1.6132 -0.6566 -0.1551
 3749TIP3    H232739   2.825   1.360  11.580  0.7483 -0.0320  0.7073
 3750TIP3   OH232740   6.072   3.283   3.000  0.1792  0.0976  0.1766
 3750TIP3    H132741   6.044   3.196   2.971  0.3051  0.2134 -0.3010
 3750TIP3    H232742   6.050   3.340   2.927 -1.7338  0.8067  1.2360
 3751TIP3   OH232743   1.338   6.478  12.708  0.4658  0.4582 -0.0083
 3751TIP3    H132744   1.343   6.390  12.745  0.4844  0.5931  0.3106
 3751TIP3    H232745   1.376   6.535  12.775 -1.9020  1.0488  0.9604
 3752TIP3   OH232746   6.695   1.054  16.175 -0.0131  0.0975  0.3881
 3752TIP3    H132747   6.646   0.994  16.230  1.2543 -0.5444  0.8714
 3752TIP3    H232748   6.645   1.059  16.094  0.3460 -2.5013 -0.1116
 3753TIP3   OH232749   6.265   1.055  13.058  0.0269  0.5492  0.3520
 3753TIP3    H132750   6.206   1.025  13.128 -0.6624  0.5527 -0.2145
 3753TIP3    H232751   6.287   1.145  13.083 -1.4666  1.0990 -0.2171
 3754TIP3   OH232752   3.025   4.412  16.632  0.4654 -0.6358  0.1217
 3754TIP3    H132753   2.955   4.474  16.648 -0.0751 -0.8986 -1.1205
 3754TIP3    H232754   3.103   4.453  16.670 -0.1130  0.2208  0.4102
 3755TIP3   OH232755   1.286   3.849  14.185 -0.5240 -0.4568  0.3143
 3755TIP3    H132756   1.258   3.934  14.150  2.1732  0.3954 -0.0730
 3755TIP3    H232757   1.284   3.861  14.280  0.7576  0.4582  0.2633
 3756TIP3   OH232758   6.067   4.074   0.030  1.0695 -0.1021  0.3333
 3756TIP3    H132759   6.159   4.075   0.053  1.8805 -0.1794 -2.4892
 3756TIP3    H232760   6.058   4.141  -0.038 -0.7307 -0.7122 -0.0990
 3757TIP3   OH232761   2.710   1.705   1.158 -0.1561  0.3005  0.1710
 3757TIP3    H132762   2.774   1.675   1.223  0.3227  0.4357 -0.2313
 3757TIP3    H232763   2.705   1.800   1.172  0.8243  0.5097 -0.7420
 3758TIP3   OH232764   4.024   3.167  12.522  0.4728 -0.1864  0.1818
 3758TIP3    H132765   4.032   3.260  12.501 -0.0295  0.0021  0.7803
 3758TIP3    H232766   3.930   3.149  12.515  0.4817 -0.4755  0.7729
 3759TIP3   OH232767   1.711   4.078   5.705 -0.3710 -0.2379  0.0808
 3759TIP3    H132768   1.659   4.158   5.706 -0.4477 -0.2758  1.8176
 3759TIP3    H232769   1.801   4.107   5.715 -0.2788 -0.3232 -0.4436
 3760TIP3   OH232770   5.442   6.398   0.850  0.1423 -0.6822  0.3576
 3760TIP3    H132771   5.501   6.385   0.775 -1.3345  1.4068 -1.2642
 3760TIP3    H232772   5.357   6.366   0.819 -1.2746  3.1380 -0.1990
 3761TIP3   OH232773   1.427   3.795   4.587  0.0103 -0.5563  0.3335
 3761TIP3    H132774   1.518   3.764   4.588  0.9487  1.8930 -0.4371
 3761TIP3    H232775   1.424   3.860   4.658 -0.4946  0.9424 -1.0234
 3762TIP3   OH232776   2.281   1.215  13.846  0.1772 -0.3591  0.5473
 3762TIP3    H132777   2.205   1.272  13.830  1.4529  1.0785 -0.7077
 3762TIP3    H232778   2.256   1.132  13.806 -2.0284 -1.0491  3.0786
 3763TIP3   OH232779   5.582   5.362  15.291  0.2524 -0.0354  0.1691
 3763TIP3    H132780   5.646   5.370  15.362  0.3105  0.1219  0.0997
 3763TIP3    H232781   5.610   5.286  15.241 -1.4781 -2.0655  2.0633
 3764TIP3   OH232782   4.276   4.332   3.206 -0.5888  0.4268  0.3123
 3764TIP3    H132783   4.212   4.345   3.276  1.5773  1.1573  2.2913
 3764TIP3    H232784   4.316   4.247   3.225  0.9491  1.2233  0.8479
 3765TIP3   OH232785   4.646   3.771   4.710  0.4833  0.5499  0.0663
 3765TIP3    H132786   4.713   3.712   4.743 -0.4567 -1.0986 -0.8266
 3765TIP3    H232787   4.651   3.848   4.767  1.6115 -0.4548  1.3890
 3766TIP3   OH232788   3.331   6.553   1.899 -0.2080  0.0501 -0.0955
 3766TIP3    H132789   3.344   6.533   1.806 -1.3394 -1.7086  0.0713
 3766TIP3    H232790   3.249   6.603   1.901 -0.6368 -0.6359 -0.0018
 3767TIP3   OH232791   0.305   2.546  12.094 -0.3041 -0.5706 -0.2075
 3767TIP3    H132792   0.383   2.545  12.037 -0.2830 -1.6722 -0.1867
 3767TIP3    H232793   0.325   2.482  12.162 -0.6139  0.2545  0.6719
 3768TIP3   OH232794   6.305   4.964  10.845  0.5696 -0.2434  1.4280
 3768TIP3    H132795   6.381   4.908  10.831  0.8207  0.7159 -2.0653
 3768TIP3    H232796   6.237   4.927  10.789 -0.7154  0.3982  2.5042
 3769TIP3   OH232797   2.393   6.868   3.976 -0.1815 -0.2644 -0.2727
 3769TIP3    H132798   2.349   6.794   3.934 -0.9907  0.6025 -0.9973
 3769TIP3    H232799   2.481   6.869   3.938 -0.3197 -0.5722 -0.6055
 3770TIP3   OH232800   6.615   4.717   2.692 -0.1241  0.1922 -0.0873
 3770TIP3    H132801   6.604   4.735   2.785  2.1236  3.1757 -0.2374
 3770TIP3    H232802   6.547   4.653   2.672  0.0360 -1.5014  3.7981
 3771TIP3   OH232803   0.734   6.692   6.383  0.1463  0.5241 -0.0244
 3771TIP3    H132804   0.750   6.604   6.416 -1.4951  0.0715 -0.3768
 3771TIP3    H232805   0.669   6.729   6.442  1.4722  1.8870  0.6771
 3772TIP3   OH232806   5.228   2.093   4.065 -0.2506  0.0936  0.6971
 3772TIP3    H132807   5.229   2.126   4.155 -0.5647 -1.9294  1.5023
 3772TIP3    H232808   5.179   2.011   4.071 -1.2770  0.4809 -1.5443
 3773TIP3   OH232809   0.053   3.405   1.995  0.1573 -0.0959 -0.3327
 3773TIP3    H132810   0.013   3.320   1.973  3.0074 -1.5210 -0.3833
 3773TIP3    H232811   0.128   3.412   1.936  1.1705  1.5111  1.0582
 3774TIP3   OH232812   5.424   5.492   1.906  0.2366 -0.2078 -0.1043
 3774TIP3    H132813   5.474   5.412   1.889 -1.2450 -1.3863  0.8784
 3774TIP3    H232814   5.337   5.474   1.870  0.6792  2.1925 -2.7469
 3775TIP3   OH232815   2.184   1.957   1.936  0.2389  0.6814  0.4200
 3775TIP3    H132816   2.147   1.880   1.893  0.7488  0.3631  0.5443
 3775TIP3    H232817   2.116   1.984   1.998 -0.0350  0.4700  0.2187
 3776TIP3   OH232818   6.187   0.443  13.180 -0.0088  0.1453  0.3521
 3776TIP3    H132819   6.263   0.388  13.195 -0.2434 -0.3337 -0.1827
 3776TIP3    H232820   6.137   0.397  13.113  0.8167  1.9860 -1.6469
 3777TIP3   OH232821   1.999   2.836  16.794  0.3185 -0.3058 -0.0818
 3777TIP3    H132822   2.044   2.822  16.877 -2.0848  1.0234  1.6102
 3777TIP3    H232823   1.911   2.801  16.809 -0.3090  0.3907 -1.9141
 3778TIP3   OH232824   3.688   5.212   0.606  0.0811 -0.3493  0.2659
 3778TIP3    H132825   3.747   5.137   0.609  0.9311  0.3070  0.8520
 3778TIP3    H232826   3.744   5.285   0.580 -0.4911  0.2728  0.7418
 3779TIP3   OH232827   2.765   2.702  12.300 -0.1947 -0.1185  0.0976
 3779TIP3    H132828   2.856   2.685  12.327  0.4900  2.0188 -0.7051
 3779TIP3    H232829   2.714   2.639  12.351  1.5833 -0.2796  1.8189
 3780TIP3   OH232830   2.226   3.054  16.774 -0.1965 -0.3636 -0.0834
 3780TIP3    H132831   2.245   3.108  16.698  0.5463 -1.4865 -0.7236
 3780TIP3    H232832   2.131   3.060  16.786 -0.0130  2.0188  0.6090
 3781TIP3   OH232833   6.273   3.024   4.678 -0.9853 -1.1394 -0.0699
 3781TIP3    H132834   6.254   3.025   4.584  2.4494 -0.3615 -0.8999
 3781TIP3    H232835   6.267   3.116   4.705  1.5672 -0.7784 -0.4811
 3782TIP3   OH232836   5.301   6.226   5.265 -0.3161  0.0615 -0.2866
 3782TIP3    H132837   5.222   6.173   5.278  1.7624 -2.9242  1.5651
 3782TIP3    H232838   5.296   6.293   5.332 -1.6963  0.5137 -0.8143
 3783TIP3   OH232839   5.727   1.125  14.845 -0.1032 -0.3565  0.4376
 3783TIP3    H132840   5.673   1.065  14.793 -0.8994 -0.1479  1.0162
 3783TIP3    H232841   5.812   1.124  14.800 -0.9207  0.2642 -1.2166
 3784TIP3   OH232842   6.683   0.633   1.468  0.2279 -0.0678  0.4353
 3784TIP3    H132843   6.723   0.586   1.541  1.6543 -0.0482 -0.2964
 3784TIP3    H232844   6.756   0.683   1.429 -0.4893 -0.0717 -0.9834
 3785TIP3   OH232845   1.745   4.401  13.565  0.1072 -0.7250  0.0003
 3785TIP3    H132846   1.824   4.428  13.519 -1.3503  0.7715 -1.8273
 3785TIP3    H232847   1.678   4.398  13.496 -1.9527  0.5329  1.8339
 3786TIP3   OH232848   1.280   5.015  11.033  0.6029 -0.1812  0.3259
 3786TIP3    H132849   1.362   4.978  11.001  0.1130 -0.5027 -0.6026
 3786TIP3    H232850   1.222   5.014  10.957 -0.3858 -0.3296  1.0593
 3787TIP3   OH232851   3.223   0.415   0.882  0.4058 -0.1552 -0.5099
 3787TIP3    H132852   3.145   0.363   0.869  1.3862 -1.6740 -0.5134
 3787TIP3    H232853   3.194   0.506   0.869 -1.1091 -0.7533 -1.5842
 3788TIP3   OH232854   0.164   4.715   0.697  0.2639  0.6706 -0.0881
 3788TIP3    H132855   0.225   4.653   0.737  0.4172  1.1509  0.4408
 3788TIP3    H232856   0.194   4.725   0.607  1.2209  1.2207  0.2852
 3789TIP3   OH232857   2.717   5.899   2.029 -0.1597  0.1795  0.1722
 3789TIP3    H132858   2.719   5.808   2.059 -2.5207  0.5140  1.6060
 3789TIP3    H232859   2.802   5.935   2.054  1.3912 -1.9260 -1.6768
 3790TIP3   OH232860   4.045   6.288   4.522  0.0058  0.1806  0.5669
 3790TIP3    H132861   4.014   6.198   4.513  1.1366 -0.1061 -0.7096
 3790TIP3    H232862   4.140   6.281   4.519  0.0993  1.5127 -0.8379
 3791TIP3   OH232863   3.783   3.210   1.031  0.4885 -0.1340 -0.5075
 3791TIP3    H132864   3.872   3.245   1.026  0.0904  0.9399 -0.3032
 3791TIP3    H232865   3.782   3.139   0.966  1.4396 -0.0530 -0.6278
 3792TIP3   OH232866   3.255   3.860  15.212  0.2168 -0.6840 -0.1674
 3792TIP3    H132867   3.171   3.816  15.198 -0.1431 -1.1386  2.6854
 3792TIP3    H232868   3.247   3.897  15.300  1.4446  3.0811 -1.4558
 3793TIP3   OH232869   4.544   0.564   2.929 -0.1295 -0.1332  0.2109
 3793TIP3    H132870   4.579   0.488   2.882 -0.7877 -0.5260  0.3398
 3793TIP3    H232871   4.525   0.532   3.017  0.7051  0.4944  0.6330
 3794TIP3   OH232872   6.728   6.318   3.577 -0.0662  0.0396  0.0250
 3794TIP3    H132873   6.740   6.399   3.627 -0.7261  1.7560 -2.4260
 3794TIP3    H232874   6.815   6.278   3.574  0.3795  0.9145  0.8506
 3795TIP3   OH232875   5.810   1.534  11.843  0.3366 -0.3208 -0.7614
 3795TIP3    H132876   5.887   1.561  11.793  0.4603 -0.7975 -0.8349
 3795TIP3    H232877   5.843   1.468  11.904 -0.1731 -1.2298 -1.4392
 3796TIP3   OH232878   0.250   6.769  10.743  0.2173 -0.1672 -0.1933
 3796TIP3    H132879   0.279   6.726  10.663 -1.7322  1.5567 -1.9417
 3796TIP3    H232880   0.307   6.846  10.752  1.0084 -0.8294  0.6080
 3797TIP3   OH232881   4.076   0.431  16.491 -0.3169 -0.1591  0.6452
 3797TIP3    H132882   4.043   0.499  16.549 -1.1801 -0.3873  0.4359
 3797TIP3    H232883   4.153   0.396  16.536  0.4453  1.2869  0.5147
 3798TIP3   OH232884   4.354   6.591  16.944 -0.2611  0.0503  0.0034
 3798TIP3    H132885   4.404   6.671  16.960 -1.4888  1.1088 -1.2026
 3798TIP3    H232886   4.285   6.617  16.882 -1.2590 -1.7295  0.2819
 3799TIP3   OH232887   5.397   1.903  13.645  0.6560 -0.0773 -0.1231
 3799TIP3    H132888   5.467   1.945  13.695  0.8064 -0.1259 -0.2935
 3799TIP3    H232889   5.440   1.869  13.567  0.2062  1.0632 -0.8958
 3800TIP3   OH232890   2.535   0.220   4.290  0.0374  0.1292  0.4484
 3800TIP3    H132891   2.558   0.226   4.197  0.1534 -0.8948  0.3973
 3800TIP3    H232892   2.620   0.222   4.335  0.0070  0.1775  0.5030
 3801TIP3   OH232893   4.315   2.873   5.884 -0.1162  0.2953 -0.0535
 3801TIP3    H132894   4.324   2.937   5.954  1.1057  1.3978 -1.1745
 3801TIP3    H232895   4.313   2.789   5.929 -0.0763  1.0081  1.3399
 3802TIP3   OH232896   4.360   4.256  15.561 -0.4432 -0.2000  0.0237
 3802TIP3    H132897   4.266   4.271  15.566 -0.3966  0.3555 -0.6902
 3802TIP3    H232898   4.395   4.337  15.523  0.3553 -0.2888  0.5501
 3803TIP3   OH232899   0.141   1.486  13.097 -0.7350 -0.0406  0.5160
 3803TIP3    H132900   0.088   1.554  13.139 -1.3473 -1.2271  1.8072
 3803TIP3    H232901   0.076   1.423  13.065 -0.3589  1.2802 -3.2930
 3804TIP3   OH232902   4.250   2.049  14.438 -0.1215  0.2802 -0.0455
 3804TIP3    H132903   4.298   1.994  14.376  1.4897  0.6485  0.8195
 3804TIP3    H232904   4.188   1.989  14.479 -0.5094 -0.1888 -1.2797
 3805TIP3   OH232905   4.556   4.915   4.612 -0.6276 -0.0003 -0.3128
 3805TIP3    H132906   4.550   4.978   4.541 -1.5734  0.2379 -0.0410
 3805TIP3    H232907   4.637   4.937   4.658 -0.7572  0.7637 -0.4473
 3806TIP3   OH232908   1.026   2.111   1.196  0.2519  0.3538 -0.1293
 3806TIP3    H132909   1.027   2.083   1.104 -0.4942 -1.9636  0.4968
 3806TIP3    H232910   1.093   2.057   1.238  1.2726  2.0808  0.5585
 3807TIP3   OH232911   6.195   1.415  15.657 -0.2795  0.6591  0.5836
 3807TIP3    H132912   6.132   1.475  15.696 -0.2487  0.4932  0.8990
 3807TIP3    H232913   6.280   1.446  15.687 -0.3910 -1.1318  3.0998
 3808TIP3   OH232914   5.735   5.410  12.248 -0.2752 -0.3542  0.1788
 3808TIP3    H132915   5.824   5.415  12.281 -0.9786  0.9746  2.0697
 3808TIP3    H232916   5.702   5.326  12.281 -0.7846  0.7035  2.6321
 3809TIP3   OH232917   6.242   3.626   3.055  0.2163 -0.3042 -0.3817
 3809TIP3    H132918   6.163   3.651   3.103  0.9658 -1.6350  1.6540
 3809TIP3    H232919   6.268   3.542   3.092  1.7932 -0.6239 -2.0336
 3810TIP3   OH232920   6.377   3.511   4.850  0.2238  0.1580 -0.3967
 3810TIP3    H132921   6.455   3.482   4.803  0.5002 -0.9697  0.7091
 3810TIP3    H232922   6.411   3.563   4.923  0.0609 -1.3121  0.7822
 3811TIP3   OH232923   5.878   1.054   4.769  0.2335 -0.6801  0.2235
 3811TIP3    H132924   5.860   0.964   4.799  0.2549 -0.8306 -0.2148
 3811TIP3    H232925   5.870   1.050   4.674 -0.7899  0.0087  0.2632
 3812TIP3   OH232926   5.757   3.912   1.327 -0.2271 -0.0298 -0.3030
 3812TIP3    H132927   5.706   3.993   1.335  0.9601  0.7426 -0.2406
 3812TIP3    H232928   5.696   3.850   1.287 -1.4276  0.6338  0.4158
 3813TIP3   OH232929   6.822   1.173   3.247  0.0591 -0.0481  0.0005
 3813TIP3    H132930   6.837   1.215   3.162  2.0226 -0.3609  0.1513
 3813TIP3    H232931   6.900   1.119   3.261 -0.2030  0.0260  2.0222
 3814TIP3   OH232932   0.317   4.078   4.433  0.4816  0.0792  0.5606
 3814TIP3    H132933   0.397   4.090   4.485  0.9661  0.5029 -0.2620
 3814TIP3    H232934   0.247   4.109   4.490  1.1302  1.7135  0.5259
 3815TIP3   OH232935   4.836   5.626   2.307 -0.1240  0.4678  0.0728
 3815TIP3    H132936   4.760   5.666   2.351 -1.1746 -0.0664 -1.1885
 3815TIP3    H232937   4.843   5.672   2.224  1.0922  0.6547  0.2702
 3816TIP3   OH232938   1.385   1.680   0.023 -0.2964 -0.0313  0.0441
 3816TIP3    H132939   1.341   1.610   0.073 -0.7418  1.4755  1.8688
 3816TIP3    H232940   1.314   1.741   0.000  0.5333  1.5960  1.5903
 3817TIP3   OH232941   1.136   0.629  16.032  0.1378  0.2021  0.1731
 3817TIP3    H132942   1.162   0.597  15.946  0.3137  1.1362 -0.1412
 3817TIP3    H232943   1.182   0.574  16.094 -1.5685 -1.8296 -0.2637
 3818TIP3   OH232944   2.060   0.797  14.542 -0.3675  0.1395 -0.0658
 3818TIP3    H132945   1.998   0.866  14.522  0.7693  0.9799 -0.8180
 3818TIP3    H232946   2.015   0.741  14.605 -1.3523  1.4931  0.4683
 3819TIP3   OH232947   6.080   5.784   3.970  0.7608  0.7847 -0.0531
 3819TIP3    H132948   6.067   5.753   3.881  1.8162 -1.6572  0.5614
 3819TIP3    H232949   6.050   5.712   4.026  2.6376  1.1018  1.5044
 3820TIP3   OH232950   4.781   4.518  16.648  0.4147  0.2178  0.0023
 3820TIP3    H132951   4.700   4.564  16.667  0.8029  0.9197 -0.0090
 3820TIP3    H232952   4.785   4.513  16.552 -0.2860 -1.0552  0.0171
 3821TIP3   OH232953   3.367   4.699  11.249 -0.0928  0.2212  0.2562
 3821TIP3    H132954   3.404   4.662  11.169 -1.6817 -0.2765 -0.2972
 3821TIP3    H232955   3.393   4.792  11.247 -0.9436  0.4647 -1.3876
 3822TIP3   OH232956   2.577   0.776  14.174 -0.3410 -0.1343  0.2361
 3822TIP3    H132957   2.640   0.795  14.104 -1.3789 -0.5305 -0.8493
 3822TIP3    H232958   2.492   0.798  14.135 -0.7801  2.1687  2.2792
 3823TIP3   OH232959   3.456   2.798  13.806 -0.0715  0.2408 -0.3866
 3823TIP3    H132960   3.480   2.887  13.782 -0.8143  0.4817 -0.2757
 3823TIP3    H232961   3.388   2.774  13.742 -1.2597  0.4728  0.7584
 3824TIP3   OH232962   2.712   6.852   4.468 -0.3355 -0.9608  0.0481
 3824TIP3    H132963   2.723   6.886   4.380  0.6746 -2.7714 -0.5793
 3824TIP3    H232964   2.654   6.915   4.511  1.9167  1.9147 -0.7695
 3825TIP3   OH232965   0.797   3.499   6.341  0.2682  0.1030  0.0282
 3825TIP3    H132966   0.877   3.546   6.363  0.6610 -1.3256  1.9407
 3825TIP3    H232967   0.726   3.555   6.372  0.4785  1.3890 -1.7041
 3826TIP3   OH232968   5.742   2.303  16.845  0.7343  0.9006  0.3141
 3826TIP3    H132969   5.712   2.313  16.936 -0.5753  1.0537 -0.1134
 3826TIP3    H232970   5.662   2.308  16.793  1.5471  1.5360 -0.9125
 3827TIP3   OH232971   3.728   1.663  13.452 -0.0693  0.4501  0.5127
 3827TIP3    H132972   3.775   1.642  13.372  0.5961 -3.2646  1.6944
 3827TIP3    H232973   3.644   1.618  13.443 -0.5147  1.0860  1.3738
 3828TIP3   OH232974   5.746   4.779   5.826 -0.2691  0.5154  0.3540
 3828TIP3    H132975   5.746   4.812   5.735 -1.1147 -1.1591 -0.2885
 3828TIP3    H232976   5.831   4.806   5.860  1.0447 -0.7368 -1.6831
 3829TIP3   OH232977   5.571   3.986  14.524  0.0509 -0.1363 -0.0803
 3829TIP3    H132978   5.583   4.050  14.595 -2.1047  0.0814  0.1709
 3829TIP3    H232979   5.526   4.036  14.456  1.3300 -0.5739 -1.2704
 3830TIP3   OH232980   5.419   4.657   4.377  0.0418 -0.2756  0.0319
 3830TIP3    H132981   5.457   4.710   4.307  2.3835 -0.4432  1.0932
 3830TIP3    H232982   5.463   4.572   4.371 -0.9130 -0.8542  0.7202
 3831TIP3   OH232983   3.505   5.429   5.579 -0.1808 -0.0339 -0.0690
 3831TIP3    H132984   3.467   5.506   5.537  2.4736  0.9057 -0.9418
 3831TIP3    H232985   3.452   5.356   5.547 -1.3050  1.1826 -1.1030
 3832TIP3   OH232986   6.242   1.691   3.204  0.0316  0.0979 -0.1161
 3832TIP3    H132987   6.198   1.616   3.165 -0.8551  0.3944  0.2630
 3832TIP3    H232988   6.271   1.744   3.130 -0.3495 -0.0598 -0.3810
 3833TIP3   OH232989   3.838   6.497  14.093 -0.0099 -0.2741 -0.1502
 3833TIP3    H132990   3.767   6.463  14.148  0.3140  0.9833  1.1042
 3833TIP3    H232991   3.918   6.464  14.134  0.2374  0.7288  0.2089
 3834TIP3   OH232992   1.352   6.703   5.925  0.8642 -0.1962 -0.0720
 3834TIP3    H132993   1.288   6.719   5.856  1.2900  0.8102 -0.2509
 3834TIP3    H232994   1.373   6.790   5.959  1.1299 -0.6272  0.9018
 3835TIP3   OH232995   3.017   3.965   1.449  0.3017  0.3726 -0.0243
 3835TIP3    H132996   3.087   3.925   1.500  0.8008  0.5532 -0.5531
 3835TIP3    H232997   2.956   3.893   1.431  1.0504 -0.1083 -0.7264
 3836TIP3   OH232998   4.753   3.146  16.278  0.3626  0.3722 -0.6731
 3836TIP3    H132999   4.729   3.169  16.188  2.1647 -0.3617 -1.3939
 3836TIP3    H233000   4.721   3.219  16.331 -0.5989  0.8926 -1.9116
 3837TIP3   OH233001   2.054   1.250  14.797  0.0014 -0.1571 -0.0430
 3837TIP3    H133002   2.119   1.192  14.757 -0.8414 -0.3783 -1.1555
 3837TIP3    H233003   2.043   1.216  14.886  0.3526 -1.0017 -0.3121
 3838TIP3   OH233004   1.130   1.237  11.929  0.1429 -0.1548 -0.7515
 3838TIP3    H133005   1.214   1.259  11.970 -0.2528  1.9892 -0.9662
 3838TIP3    H233006   1.068   1.233  12.002 -0.0145  0.7282 -0.8305
 3839TIP3   OH233007   0.796   0.468  10.420 -0.1534  0.4767 -0.2662
 3839TIP3    H133008   0.842   0.394  10.459  1.3645  0.6840 -1.5881
 3839TIP3    H233009   0.790   0.533  10.491 -0.1406 -0.3080  0.4651
 3840TIP3   OH233010   5.211   3.021   0.506 -0.1128  0.1631 -0.4064
 3840TIP3    H133011   5.268   2.983   0.573 -0.3898  0.1576 -0.1716
 3840TIP3    H233012   5.211   3.115   0.526 -1.0083  0.0415  0.2381
 3841TIP3   OH233013   5.086   1.709   5.778  0.8610 -0.4693 -0.1064
 3841TIP3    H133014   5.157   1.645   5.775  1.6736  0.3954  0.2088
 3841TIP3    H233015   5.095   1.751   5.863  0.7330  0.4995 -0.5566
 3842TIP3   OH233016   2.529   5.791  13.360  0.4566  0.2963 -0.3841
 3842TIP3    H133017   2.484   5.813  13.279  0.5079 -0.6294 -0.6740
 3842TIP3    H233018   2.538   5.875  13.406  3.3802  1.4795 -2.7499
 3843TIP3   OH233019   3.968   4.775  14.025 -0.1380 -0.5375 -0.2251
 3843TIP3    H133020   3.955   4.688  13.986 -1.8503  0.2839 -1.6665
 3843TIP3    H233021   3.902   4.780  14.094 -0.2659 -0.2885 -0.3622
 3844TIP3   OH233022   2.915   4.597  14.858 -0.4881 -0.0533 -0.5533
 3844TIP3    H133023   2.831   4.631  14.828 -2.0323 -1.9883  1.2313
 3844TIP3    H233024   2.932   4.522  14.802 -0.9516 -0.8033  0.2887
 3845TIP3   OH233025   5.016   5.881  12.882 -0.2031  0.1039 -0.1125
 3845TIP3    H133026   5.048   5.893  12.792 -0.9211  0.2316 -0.3641
 3845TIP3    H233027   5.057   5.950  12.932 -0.4749  0.5764 -0.5307
 3846TIP3   OH233028   5.045   4.102   1.131  0.0812 -0.0279 -0.2062
 3846TIP3    H133029   5.089   4.173   1.083  0.8589 -0.9344 -0.8574
 3846TIP3    H233030   5.009   4.045   1.063  0.0971 -0.6544  0.3014
 3847TIP3   OH233031   0.220   2.579  16.332  0.5591  0.4787  0.1158
 3847TIP3    H133032   0.190   2.625  16.410 -2.1593 -0.7134 -0.1455
 3847TIP3    H233033   0.162   2.609  16.262  2.2913  0.7438 -1.2844
 3848TIP3   OH233034   0.806   1.414  16.938  0.1336 -0.1022  0.1822
 3848TIP3    H133035   0.829   1.344  16.998 -0.7349  1.3672  2.3517
 3848TIP3    H233036   0.736   1.377  16.883  0.1903 -1.1531  0.8029
 3849TIP3   OH233037   3.179   6.158   4.589 -0.3687  0.2618 -0.2963
 3849TIP3    H133038   3.164   6.212   4.512 -2.3563  1.0056  0.5498
 3849TIP3    H233039   3.262   6.190   4.625 -0.2891  1.0718 -1.1634
 3850TIP3   OH233040   1.685   4.210   5.289  0.4647  0.1557 -0.3599
 3850TIP3    H133041   1.780   4.204   5.296  0.5590  1.6448 -0.1156
 3850TIP3    H233042   1.656   4.119   5.276  1.8328 -0.4345  0.5137
 3851TIP3   OH233043   3.472   1.079   4.461  0.2271 -0.1796  0.4412
 3851TIP3    H133044   3.504   1.048   4.546  0.5562  0.7913  0.6813
 3851TIP3    H233045   3.428   1.003   4.422  1.0832 -0.9625  0.9794
 3852TIP3   OH233046   3.972   4.250   3.701 -0.0430 -0.0264  0.4945
 3852TIP3    H133047   4.056   4.210   3.680  1.0713  2.8300 -1.1038
 3852TIP3    H233048   3.947   4.295   3.620 -2.7995 -0.1707  1.1572
 3853TIP3   OH233049   1.802   4.804   3.728 -0.2614 -0.6999 -0.4674
 3853TIP3    H133050   1.712   4.825   3.751 -1.0730 -0.6043 -3.3674
 3853TIP3    H233051   1.847   4.793   3.812 -3.3394 -2.4847  1.0845
 3854TIP3   OH233052   4.816   5.061   6.135  0.2259 -0.2654 -0.4697
 3854TIP3    H133053   4.904   5.066   6.171 -0.6614 -1.3208  2.1086
 3854TIP3    H233054   4.797   4.967   6.130 -0.4697 -0.0819 -1.7968
 3855TIP3   OH233055   2.307   6.452   1.698  0.2363 -0.1309 -0.5195
 3855TIP3    H133056   2.306   6.367   1.742 -0.1209 -0.1219 -0.5056
 3855TIP3    H233057   2.396   6.461   1.664  0.8606  0.3500  1.1378
 3856TIP3   OH233058   4.234   6.289  15.949 -0.1217  0.2742 -0.5168
 3856TIP3    H133059   4.298   6.302  15.878  1.5658  0.1191  0.9166
 3856TIP3    H233060   4.192   6.375  15.958  0.6454  0.6921 -0.7892
 3857TIP3   OH233061   4.469   3.725   0.766  0.4274 -0.5230 -0.3915
 3857TIP3    H133062   4.375   3.731   0.747  0.2805  1.4570  0.7254
 3857TIP3    H233063   4.498   3.648   0.718 -1.0724  0.7729 -3.6826
 3858TIP3   OH233064   1.471   5.452  10.402 -0.0000 -0.1574  0.0426
 3858TIP3    H133065   1.546   5.408  10.362  1.0005  0.3489  1.3056
 3858TIP3    H233066   1.507   5.495  10.480 -1.7324 -0.4559  1.0565
 3859TIP3   OH233067   4.776   4.422  15.026 -0.3182  0.3517  0.5211
 3859TIP3    H133068   4.688   4.420  14.988 -0.4389  0.8112  0.7754
 3859TIP3    H233069   4.780   4.346  15.083 -0.6075  0.4261  0.6379
 3860TIP3   OH233070   4.667   1.298  14.676 -0.2166  0.6680 -0.1180
 3860TIP3    H133071   4.611   1.292  14.599  0.3421  0.8991 -0.5466
 3860TIP3    H233072   4.606   1.290  14.750 -0.6976 -0.1296 -0.5735
 3861TIP3   OH233073   2.908   2.194  12.596  0.2032  0.3295  0.3238
 3861TIP3    H133074   2.999   2.198  12.627  0.0362  2.9687  0.6500
 3861TIP3    H233075   2.856   2.186  12.676  0.1007 -2.3059  0.0901
 3862TIP3   OH233076   5.951   3.947   4.918 -0.3302 -0.2244 -0.2751
 3862TIP3    H133077   5.967   3.864   4.873  1.7502  0.2779 -0.5576
 3862TIP3    H233078   5.881   3.928   4.979  0.1938 -2.2321 -0.2414
 3863TIP3   OH233079   1.253   3.608  13.147  0.2553 -0.4504  0.4513
 3863TIP3    H133080   1.201   3.539  13.105 -0.4525  0.6444 -0.5167
 3863TIP3    H233081   1.238   3.595  13.241  0.0471 -1.5370  0.2792
 3864TIP3   OH233082   1.497   1.812   0.745  0.7789 -0.0170 -0.0757
 3864TIP3    H133083   1.520   1.886   0.689  1.0842  1.2842  1.6740
 3864TIP3    H233084   1.403   1.800   0.730  0.6243  1.0403 -0.0472
 3865TIP3   OH233085   5.529   5.542  16.445 -0.1619  0.6016  0.4130
 3865TIP3    H133086   5.554   5.525  16.354 -0.7313 -2.5063  0.7367
 3865TIP3    H233087   5.600   5.503  16.497 -0.3568  1.4197  1.3124
 3866TIP3   OH233088   2.711   3.906   3.823 -0.4572  0.0962  0.7408
 3866TIP3    H133089   2.666   3.883   3.741  1.6469  1.1668 -0.8306
 3866TIP3    H233090   2.664   3.983   3.855  1.5808  2.9131 -2.3184
 3867TIP3   OH233091   3.910   0.728  16.398  0.2272  0.0113 -0.0855
 3867TIP3    H133092   3.931   0.768  16.483  2.0801 -0.4620 -0.2825
 3867TIP3    H233093   3.995   0.707  16.359 -0.4561  2.3107 -3.1381
 3868TIP3   OH233094   0.520   0.546  12.709  0.0636 -0.1136  0.3212
 3868TIP3    H133095   0.464   0.618  12.679  1.4310  0.3136 -1.3390
 3868TIP3    H233096   0.560   0.579  12.789 -1.4685 -0.1533  1.1372
 3869TIP3   OH233097   2.778   2.839   0.896 -0.3238 -0.3825  0.2696
 3869TIP3    H133098   2.686   2.848   0.871 -0.3051 -0.7147  0.0711
 3869TIP3    H233099   2.808   2.928   0.913 -0.2719 -0.1198 -1.0962
 3870TIP3   OH233100   2.084   3.428  12.632  0.1884  0.2317  0.0083
 3870TIP3    H133101   2.129   3.436  12.548  3.0922 -0.2088  1.3974
 3870TIP3    H233102   2.037   3.345  12.626 -0.5958  0.7495 -1.5398
 3871TIP3   OH233103   0.816   3.452  14.141  0.0748 -0.9165  0.3367
 3871TIP3    H133104   0.855   3.477  14.226  0.4891 -1.1193  0.2076
 3871TIP3    H233105   0.891   3.436  14.084 -0.1899  0.4209 -0.4337
 3872TIP3   OH233106   6.415   1.916  15.004  0.2035  0.2307 -0.4341
 3872TIP3    H133107   6.488   1.858  15.026 -0.8403 -0.6809  0.7549
 3872TIP3    H233108   6.389   1.953  15.088  0.3786  1.9071 -1.0764
 3873TIP3   OH233109   3.476   4.333   4.028  0.0155  0.4385  0.0072
 3873TIP3    H133110   3.496   4.273   3.956 -1.7546 -1.6515  1.1434
 3873TIP3    H233111   3.557   4.338   4.079  1.0001  1.2202 -1.5716
 3874TIP3   OH233112   4.911   2.798   0.491 -0.1080 -0.9099  0.4144
 3874TIP3    H133113   4.907   2.820   0.584  0.5107  1.0008  0.0343
 3874TIP3    H233114   4.994   2.751   0.481  0.7860  0.5911  0.5371
 3875TIP3   OH233115   6.588   3.156  14.827  0.0332 -0.0072 -0.7714
 3875TIP3    H133116   6.527   3.190  14.891  1.1973  2.3878 -0.8317
 3875TIP3    H233117   6.641   3.092  14.875 -0.8730 -0.2699 -0.0991
 3876TIP3   OH233118   6.795   2.335  15.137  0.4523 -0.2780  0.6939
 3876TIP3    H133119   6.857   2.308  15.205  0.3888  0.5752  1.1056
 3876TIP3    H233120   6.849   2.378  15.070  0.7069 -2.3452 -0.5144
 3877TIP3   OH233121   1.475   0.543  12.228 -0.2811 -0.2864  0.3764
 3877TIP3    H133122   1.410   0.613  12.233  0.5423  0.5083  0.3109
 3877TIP3    H233123   1.544   0.579  12.172  0.9029 -0.5346  1.6200
 3878TIP3   OH233124   3.897   4.155  15.372 -0.0258 -0.1610 -0.0908
 3878TIP3    H133125   3.970   4.196  15.324  0.3190 -1.7315 -0.9753
 3878TIP3    H233126   3.931   4.069  15.397 -1.1090 -0.3577  0.7299
 3879TIP3   OH233127   5.348   3.478  15.790  0.6871 -0.3223 -0.2329
 3879TIP3    H133128   5.412   3.431  15.844  1.4047  1.1219  0.2192
 3879TIP3    H233129   5.263   3.443  15.817  0.8466  1.5564  3.1704
 3880TIP3   OH233130   2.702   3.087  14.668  0.4551  0.1078  0.3931
 3880TIP3    H133131   2.697   3.157  14.733  0.8681  0.1710  0.3592
 3880TIP3    H233132   2.762   3.024  14.706  0.8104  0.2129  0.0070
 3881TIP3   OH233133   2.975   2.218   0.473  0.0071  0.0299 -0.1941
 3881TIP3    H133134   3.018   2.232   0.557 -0.9279  2.6525 -0.0725
 3881TIP3    H233135   2.895   2.170   0.495  0.8038 -1.2133  0.0893
 3882TIP3   OH233136   5.483   1.625   1.992  0.5476 -0.2485 -0.4142
 3882TIP3    H133137   5.412   1.649   1.933  0.6963  3.0356  0.5065
 3882TIP3    H233138   5.443   1.565   2.054 -0.3942 -1.3691 -2.0369
 3883TIP3   OH233139   6.728   4.411   0.114  0.7931 -0.4075  0.2307
 3883TIP3    H133140   6.815   4.378   0.089  1.6686  1.1010  1.1059
 3883TIP3    H233141   6.723   4.497   0.071 -0.4890 -0.6820 -0.2020
 3884TIP3   OH233142   0.591   5.925   2.473 -0.1122  0.2062 -0.6820
 3884TIP3    H133143   0.625   5.843   2.435 -0.2703 -0.0192 -0.3385
 3884TIP3    H233144   0.515   5.898   2.523  1.4593  0.1199  1.8225
 3885TIP3   OH233145   0.690   1.945  11.671  0.4328  0.2501 -0.6195
 3885TIP3    H133146   0.697   1.866  11.618 -1.1219 -1.6929  1.8783
 3885TIP3    H233147   0.780   1.969  11.691  0.9870  0.2145 -2.8734
 3886TIP3   OH233148   3.516   1.531  16.043  0.5072 -0.3812 -0.1696
 3886TIP3    H133149   3.535   1.622  16.020 -0.2285 -0.2003 -0.0586
 3886TIP3    H233150   3.427   1.516  16.012  0.5084 -0.9708  0.1006
 3887TIP3   OH233151   2.624   6.854  13.381  0.5718  0.9726 -0.0224
 3887TIP3    H133152   2.663   6.814  13.460  0.6175  0.8038 -0.1296
 3887TIP3    H233153   2.678   6.821  13.309  1.1424  1.9002 -0.0326
 3888TIP3   OH233154   6.512   0.960  16.351  0.3147 -0.3745  0.8179
 3888TIP3    H133155   6.507   1.041  16.402  0.9855  1.2869 -1.5178
 3888TIP3    H233156   6.421   0.933  16.338 -0.0190  0.7970  0.5597
 3889TIP3   OH233157   4.756   1.122  15.847 -0.0678 -0.1007 -0.7014
 3889TIP3    H133158   4.753   1.136  15.752 -1.1677 -1.0029 -0.8205
 3889TIP3    H233159   4.767   1.027  15.857  1.5283  0.1297  0.0831
 3890TIP3   OH233160   1.165   5.149  12.018  0.0281 -0.2507 -0.2069
 3890TIP3    H133161   1.152   5.202  11.940  1.7280  2.4967  1.2233
 3890TIP3    H233162   1.260   5.146  12.030 -0.1157 -1.8978  0.9600
 3891TIP3   OH233163   6.605   4.514   1.477  0.2583  0.0386 -0.0828
 3891TIP3    H133164   6.619   4.601   1.439 -1.2848  0.1552 -0.4316
 3891TIP3    H233165   6.531   4.478   1.428  2.2928 -2.4679 -1.6412
 3892TIP3   OH233166   4.023   3.872   5.591 -0.2492  0.2294 -0.0639
 3892TIP3    H133167   3.977   3.823   5.660 -1.5371 -0.3406 -1.2796
 3892TIP3    H233168   3.959   3.935   5.560  0.6321  1.1128 -0.1366
 3893TIP3   OH233169   2.984   2.134  13.904 -0.3314 -0.0077 -0.6931
 3893TIP3    H133170   2.955   2.172  13.987  1.1435  1.5148 -0.8310
 3893TIP3    H233171   3.078   2.120  13.916  0.0938  1.1330 -2.4229
 3894TIP3   OH233172   1.190   6.058  14.189  0.5258 -0.3471 -0.3796
 3894TIP3    H133173   1.113   6.080  14.241 -0.2229 -0.6328 -1.3374
 3894TIP3    H233174   1.178   6.106  14.107  1.2891 -0.5268 -0.6055
 3895TIP3   OH233175   0.694   5.288  11.515  0.4895  0.2055 -0.5359
 3895TIP3    H133176   0.741   5.213  11.479 -1.6243 -0.0114 -3.1812
 3895TIP3    H233177   0.705   5.280  11.610  3.4163 -1.2741 -0.8883
 3896TIP3   OH233178   6.230   0.392   0.433 -0.4215  0.7640 -0.8965
 3896TIP3    H133179   6.213   0.474   0.478 -1.4556  1.2486 -2.1012
 3896TIP3    H233180   6.192   0.404   0.346  0.6504 -0.4800 -1.5830
 3897TIP3   OH233181   5.945   1.893   1.767  0.6783 -0.0221  0.4794
 3897TIP3    H133182   5.999   1.815   1.784  0.2918 -0.4023  0.0028
 3897TIP3    H233183   5.855   1.860   1.769  0.5059  0.4442  0.4183
 3898TIP3   OH233184   2.593   6.510  15.046 -0.4714  0.2808 -0.1296
 3898TIP3    H133185   2.687   6.521  15.032 -0.5054  1.1004  0.2274
 3898TIP3    H233186   2.579   6.543  15.135 -0.8959 -1.0248  0.3106
 3899TIP3   OH233187   1.303   0.866   0.270 -0.1667 -0.6395  0.3376
 3899TIP3    H133188   1.308   0.770   0.274  0.0782 -0.6044  1.3132
 3899TIP3    H233189   1.394   0.895   0.283 -0.0750 -0.2807 -0.9668
 3900TIP3   OH233190   0.516   0.927  12.707 -0.1290  0.3107  0.4737
 3900TIP3    H133191   0.448   0.877  12.662  0.8081 -1.7502  1.2016
 3900TIP3    H233192   0.595   0.912  12.654  0.3394  0.3233  1.1542
 3901TIP3   OH233193   1.856   4.877   2.388 -0.4093  0.3425  0.1608
 3901TIP3    H133194   1.890   4.810   2.330 -1.8404 -1.3884  1.2222
 3901TIP3    H233195   1.763   4.857   2.396 -0.4331  1.0644  2.3100
 3902TIP3   OH233196   2.172   4.386   1.876 -0.2831  0.3010 -0.3828
 3902TIP3    H133197   2.128   4.310   1.915  1.3396 -1.3810 -1.6268
 3902TIP3    H233198   2.135   4.461   1.921 -1.1018 -1.3008  1.7753
 3903TIP3   OH233199   6.609   3.858  12.783 -0.4331 -0.0237  0.1114
 3903TIP3    H133200   6.525   3.835  12.823 -0.1185  0.4255  1.0630
 3903TIP3    H233201   6.588   3.931  12.725 -0.6576  0.3143  0.6051
 3904TIP3   OH233202   4.354   6.614   3.003  0.3131  0.2387 -0.0404
 3904TIP3    H133203   4.349   6.709   3.013 -1.3267  0.1753  0.0926
 3904TIP3    H233204   4.323   6.579   3.086  1.1786 -0.4268  0.0142
 3905TIP3   OH233205   5.069   4.262  13.965 -0.0157  0.3174  0.4172
 3905TIP3    H133206   5.077   4.283  14.058 -1.1873 -1.0996  0.8700
 3905TIP3    H233207   5.003   4.322  13.932  0.9991  1.3928  0.2775
 3906TIP3   OH233208   4.412   4.576   0.930 -0.0802  0.0860 -0.0759
 3906TIP3    H133209   4.489   4.541   0.885 -0.0507  0.2890 -0.1818
 3906TIP3    H233210   4.383   4.648   0.875 -1.1418 -0.8226 -0.7522
 3907TIP3   OH233211   4.275   2.989   2.578  0.0178 -0.4277 -0.1898
 3907TIP3    H133212   4.231   2.959   2.658  0.6827 -1.1224 -0.0802
 3907TIP3    H233213   4.368   2.983   2.597  0.1943  0.9306 -0.4708
 3908TIP3   OH233214   1.386   2.079  14.399  0.1087  0.0157 -0.1230
 3908TIP3    H133215   1.354   1.992  14.375  1.3350  0.0133 -2.0481
 3908TIP3    H233216   1.310   2.136  14.393 -0.5973 -0.8298  0.6428
 3909TIP3   OH233217   5.514   4.016   1.346  0.5332 -0.6804  0.5360
 3909TIP3    H133218   5.489   3.964   1.422 -0.3135  0.7468  1.2804
 3909TIP3    H233219   5.451   3.991   1.278  0.2822 -0.8111  0.8147
 3910TIP3   OH233220   1.613   3.772   4.172 -0.2458 -0.9494  0.2746
 3910TIP3    H133221   1.689   3.759   4.228  0.6813 -0.6179 -0.8713
 3910TIP3    H233222   1.542   3.796   4.233  0.7317 -0.5628  1.2959
 3911TIP3   OH233223   1.953   6.869  16.721  0.5771  0.3339  0.5051
 3911TIP3    H133224   1.992   6.854  16.807  0.9377 -0.2916  0.2374
 3911TIP3    H233225   1.949   6.783  16.681  0.0388  0.5625  0.0453
 3912TIP3   OH233226   5.190   4.878   4.127  0.2411  0.5762 -0.7751
 3912TIP3    H133227   5.126   4.937   4.167  0.2962  0.5084 -0.5853
 3912TIP3    H233228   5.235   4.932   4.062 -0.6045  0.3924 -1.5348
 3913TIP3   OH233229   5.543   4.582  13.505  0.1217  0.2484 -0.0646
 3913TIP3    H133230   5.517   4.512  13.564 -2.0458 -0.2566 -1.5002
 3913TIP3    H233231   5.634   4.561  13.482  0.0802 -1.0924  0.8768
 3914TIP3   OH233232   5.865   0.256   1.914  0.1250  0.0437 -0.4968
 3914TIP3    H133233   5.842   0.232   2.003  2.5781  0.3943  0.3168
 3914TIP3    H233234   5.904   0.343   1.922 -0.1004  0.3083 -2.0014
 3915TIP3   OH233235   3.206   0.560  12.553 -0.0242 -0.8934 -0.0319
 3915TIP3    H133236   3.240   0.473  12.577 -0.6935 -0.7350  1.6235
 3915TIP3    H233237   3.240   0.575  12.465  1.5337 -2.1010  0.3140
 3916TIP3   OH233238   1.629   2.605   2.900  0.0722 -0.1731 -0.1806
 3916TIP3    H133239   1.608   2.590   2.992  1.2301  0.7603  0.2619
 3916TIP3    H233240   1.547   2.588   2.854 -0.7381  0.1056  1.1031
 3917TIP3   OH233241   3.916   4.126  13.363 -0.5628  0.2142 -0.1843
 3917TIP3    H133242   3.923   4.200  13.302  2.0355 -0.3141 -0.6194
 3917TIP3    H233243   3.932   4.164  13.449 -2.2083  0.6069 -0.0122
 3918TIP3   OH233244   1.949   1.215  15.101  0.2154 -0.5353 -0.0975
 3918TIP3    H133245   1.997   1.134  15.120 -0.3709 -0.6399  1.0563
 3918TIP3    H233246   2.017   1.279  15.080  0.7801 -1.0040  0.2575
 3919TIP3   OH233247   4.299   4.803  13.284 -0.2790 -0.5191  0.5560
 3919TIP3    H133248   4.263   4.719  13.314 -2.3853  0.7471  1.8113
 3919TIP3    H233249   4.376   4.817  13.338 -1.0097 -0.7853  1.7001
 3920TIP3   OH233250   3.248   5.360   6.573 -0.2154  0.2185  0.0676
 3920TIP3    H133251   3.158   5.363   6.606 -0.2317  0.3252  0.0132
 3920TIP3    H233252   3.299   5.410   6.637 -0.1019 -0.3006  0.3923
 3921TIP3   OH233253   3.691   4.931  14.115  0.2088  0.1225 -0.2680
 3921TIP3    H133254   3.681   4.885  14.031 -0.6494 -0.2915  0.0513
 3921TIP3    H233255   3.681   4.864  14.181 -0.1699  0.6225  0.1923
 3922TIP3   OH233256   3.594   0.537   2.232  0.0325  0.4632 -0.2679
 3922TIP3    H133257   3.617   0.548   2.140  0.9786 -1.6790 -0.3307
 3922TIP3    H233258   3.678   0.535   2.278 -0.3908  0.5449  0.5412
 3923TIP3   OH233259   6.112   2.832  14.660  0.5842  0.6696 -0.6719
 3923TIP3    H133260   6.197   2.793  14.641 -0.1691 -1.1921 -0.4897
 3923TIP3    H233261   6.094   2.808  14.751 -0.0817  1.1195 -0.6781
 3924TIP3   OH233262   4.196   2.322  14.909 -0.4191  0.7280  0.4924
 3924TIP3    H133263   4.163   2.271  14.835  1.3114  1.2012 -0.6691
 3924TIP3    H233264   4.143   2.294  14.984 -1.4322 -0.6197 -0.6869
 3925TIP3   OH233265   5.748   2.070   0.122 -0.0341  0.1467 -0.5893
 3925TIP3    H133266   5.693   2.035   0.051 -1.1757  2.9846 -1.2459
 3925TIP3    H233267   5.695   2.059   0.201  0.8028 -2.0507 -0.2652
 3926TIP3   OH233268   4.587   4.775  15.658  0.4400 -0.3713 -0.1171
 3926TIP3    H133269   4.542   4.765  15.742  0.4519  0.0957 -0.0543
 3926TIP3    H233270   4.525   4.825  15.604  0.5936 -0.3373 -0.2615
 3927TIP3   OH233271   3.640   0.765  16.840 -0.3304  0.0852 -0.3432
 3927TIP3    H133272   3.574   0.717  16.889 -1.1656  1.0184 -0.5110
 3927TIP3    H233273   3.630   0.734  16.750 -0.3383  0.0001 -0.3119
 3928TIP3   OH233274   3.352   5.670  14.281  0.8882  0.2618  0.3234
 3928TIP3    H133275   3.421   5.663  14.216  0.5058 -1.1702  0.0511
 3928TIP3    H233276   3.282   5.614  14.249  0.1616  0.5744  1.3091
 3929TIP3   OH233277   3.983   1.014   0.743  0.3396 -0.2403 -0.6500
 3929TIP3    H133278   3.925   0.972   0.806 -0.5837  0.8591 -0.7427
 3929TIP3    H233279   4.071   0.994   0.775 -0.0973 -0.6153  0.3617
 3930TIP3   OH233280   5.633   6.215  13.687  0.0082  0.3289 -0.3192
 3930TIP3    H133281   5.679   6.204  13.770 -1.1041  0.7768  0.3754
 3930TIP3    H233282   5.660   6.302  13.656 -0.7124  0.7957  0.3245
 3931TIP3   OH233283   5.739   2.202  15.633 -0.0517  0.0125 -0.0423
 3931TIP3    H133284   5.726   2.139  15.704 -1.7659  2.0504  1.5993
 3931TIP3    H233285   5.677   2.176  15.566  0.5218 -1.0614 -0.1766
 3932TIP3   OH233286   0.599   1.664   1.057  0.4840 -0.2738 -0.1918
 3932TIP3    H133287   0.613   1.686   1.149  2.4308 -0.6933 -0.3559
 3932TIP3    H233288   0.555   1.741   1.021  2.2679  1.1279  0.4688
 3933TIP3   OH233289   3.778   5.323   6.787 -0.0705 -0.1019  0.2102
 3933TIP3    H133290   3.862   5.356   6.821 -1.3886  0.6633  2.9774
 3933TIP3    H233291   3.775   5.232   6.815 -1.0512  0.4624  2.0773
 3934TIP3   OH233292   1.140   1.172   5.886 -0.1360  0.3781  0.2768
 3934TIP3    H133293   1.057   1.169   5.840  0.2735  1.6304 -0.5968
 3934TIP3    H233294   1.135   1.100   5.950 -1.0080 -0.9274 -1.1978
 3935TIP3   OH233295   6.876   5.858  15.482 -0.0867  0.4455  0.8125
 3935TIP3    H133296   6.944   5.880  15.418 -0.7919 -0.7211 -0.4087
 3935TIP3    H233297   6.803   5.916  15.460 -0.8310 -0.8854 -0.3987
 3936TIP3   OH233298   1.400   5.442  16.777  0.4353 -0.6210  0.0389
 3936TIP3    H133299   1.429   5.511  16.836  2.0693 -0.1918 -1.2233
 3936TIP3    H233300   1.347   5.486  16.711  0.4818 -0.7701 -0.0987
 3937TIP3   OH233301   1.225   0.804  12.642 -0.3184  0.2433  0.5477
 3937TIP3    H133302   1.266   0.876  12.688  0.1750  0.3080  0.0182
 3937TIP3    H233303   1.153   0.844  12.593  1.0341  0.7286 -1.1856
 3938TIP3   OH233304   1.285   6.321  16.068  0.0547 -0.0620 -0.3224
 3938TIP3    H133305   1.353   6.302  16.003 -0.3770  0.5388 -0.9602
 3938TIP3    H233306   1.332   6.319  16.151  0.5630 -1.1431 -0.6045
 3939TIP3   OH233307   6.833   5.965   3.749  0.5524  0.3599  0.3867
 3939TIP3    H133308   6.858   6.016   3.826 -1.6114 -0.8289  1.9789
 3939TIP3    H233309   6.846   5.874   3.775 -0.6657 -0.0790 -0.4707
 3940TIP3   OH233310   1.413   1.647  12.797 -0.0634  0.1208 -0.1856
 3940TIP3    H133311   1.351   1.701  12.846 -0.6164 -0.2506 -0.4569
 3940TIP3    H233312   1.422   1.568  12.850  0.3047  0.2423 -0.0679
 3941TIP3   OH233313   3.479   4.612   6.131 -0.6694 -0.1418  0.3021
 3941TIP3    H133314   3.451   4.698   6.161  2.3196  0.5388  1.5059
 3941TIP3    H233315   3.529   4.576   6.204  0.2119 -1.8389 -1.0532
 3942TIP3   OH233316   1.247   4.228  15.762 -0.0397  0.8197 -0.5079
 3942TIP3    H133317   1.169   4.174  15.746  1.3952 -2.4214  2.2573
 3942TIP3    H233318   1.295   4.226  15.679 -0.5054 -1.5201 -0.7923
 3943TIP3   OH233319   4.181   6.724  16.679  0.1898 -0.1178 -0.6852
 3943TIP3    H133320   4.257   6.761  16.634  0.2482 -0.1075 -0.5783
 3943TIP3    H233321   4.139   6.668  16.614 -0.3634  0.7658 -1.0975
 3944TIP3   OH233322   0.971   0.108  11.492 -0.0864  0.1063 -0.3575
 3944TIP3    H133323   1.066   0.093  11.489  0.0169  0.7108 -0.2646
 3944TIP3    H233324   0.941   0.090  11.403 -0.0090 -0.8538 -0.2003
 3945TIP3   OH233325   0.978   6.511  14.795 -0.3871  0.0241 -0.5604
 3945TIP3    H133326   0.955   6.597  14.758  1.1043  0.1749 -1.1879
 3945TIP3    H233327   1.011   6.530  14.882  0.1851  0.1295 -0.7950
 3946TIP3   OH233328   2.909   1.245   3.202  0.1884 -0.3345  0.4137
 3946TIP3    H133329   2.958   1.327   3.203 -0.1041 -0.0936 -1.5170
 3946TIP3    H233330   2.827   1.266   3.157 -0.1553 -1.5422  0.4406
 3947TIP3   OH233331   2.057   2.236  15.138  0.4109  0.3191  0.2312
 3947TIP3    H133332   2.004   2.255  15.061  1.1707 -1.2797 -0.7349
 3947TIP3    H233333   2.003   2.177  15.190  1.1966 -1.3208 -0.7595
 3948TIP3   OH233334   2.109   0.310   4.219  0.1248 -0.1519  0.0131
 3948TIP3    H133335   2.097   0.231   4.167 -1.2086  0.2701 -0.3523
 3948TIP3    H233336   2.080   0.381   4.162  2.5104  0.8024 -0.1630
 3949TIP3   OH233337   0.198   5.837   1.513 -0.3331 -0.2332 -0.7710
 3949TIP3    H133338   0.287   5.803   1.527  0.0054  0.6580 -0.6778
 3949TIP3    H233339   0.142   5.777   1.562  0.3585 -0.0264  0.3161
 3950TIP3   OH233340   4.470   5.145   4.986 -0.4092 -0.2089 -0.1831
 3950TIP3    H133341   4.537   5.117   5.048 -1.8619 -1.2026  1.0094
 3950TIP3    H233342   4.388   5.111   5.022 -1.7070  1.7570 -1.0859
 3951TIP3   OH233343   5.819   6.142  16.845 -0.0396 -0.0510  0.5674
 3951TIP3    H133344   5.845   6.103  16.928 -0.3639  0.3964  0.8836
 3951TIP3    H233345   5.895   6.192  16.817 -0.5620  1.3497  1.5501
 3952TIP3   OH233346   5.882   5.200  11.648  0.6984 -0.2621  1.2777
 3952TIP3    H133347   5.815   5.136  11.674  0.2472 -0.5673 -0.5256
 3952TIP3    H233348   5.912   5.170  11.562  1.2850  1.3294  0.8995
 3953TIP3   OH233349   2.778   4.821  16.923 -0.5638  0.2996  0.1939
 3953TIP3    H133350   2.858   4.811  16.974  0.4088 -1.0081 -1.5015
 3953TIP3    H233351   2.735   4.897  16.961  1.6248  1.2254  0.9587
 3954TIP3   OH233352   0.534   1.800  16.753 -0.5449 -0.3749 -0.3904
 3954TIP3    H133353   0.495   1.875  16.798 -2.5480 -0.8533 -1.2375
 3954TIP3    H233354   0.508   1.724  16.804 -0.8293 -0.7175 -1.0357
 3955TIP3   OH233355   6.505   5.105  11.067 -0.0408  0.1847  0.2890
 3955TIP3    H133356   6.539   5.055  10.993 -2.0041  1.7961 -1.8812
 3955TIP3    H233357   6.574   5.102  11.133  1.8217 -1.3353 -1.6080
 3956TIP3   OH233358   4.890   4.233   6.529 -0.6305 -0.3686  0.3239
 3956TIP3    H133359   4.928   4.190   6.452 -1.4749 -2.5694  1.0319
 3956TIP3    H233360   4.882   4.162   6.594  0.6237  1.5301  2.7026
 3957TIP3   OH233361   5.883   6.752   0.589 -0.1581  0.1333  0.0003
 3957TIP3    H133362   5.960   6.758   0.532 -1.3435  0.4891 -1.6442
 3957TIP3    H233363   5.851   6.842   0.595 -1.7109 -0.2918 -1.2299
 3958TIP3   OH233364   0.271   5.662  11.783  0.3695  0.4581 -0.5998
 3958TIP3    H133365   0.219   5.664  11.863  1.1118 -0.3056 -0.0794
 3958TIP3    H233366   0.281   5.754  11.757  0.6248  0.7585  0.5228
 3959TIP3   OH233367   6.693   2.442   4.821 -0.2551 -0.1371  0.2671
 3959TIP3    H133368   6.634   2.517   4.815 -0.6867 -0.5943 -3.7160
 3959TIP3    H233369   6.641   2.367   4.792  0.9495 -1.5233  1.4975
 3960TIP3   OH233370   6.470   6.288  11.961 -0.5086 -0.6106  0.4612
 3960TIP3    H133371   6.532   6.288  12.034  1.9503  4.5115 -1.1991
 3960TIP3    H233372   6.384   6.288  12.003  0.7661  1.1733  3.4053
 3961TIP3   OH233373   3.579   5.551   2.166 -0.1420 -0.2989  0.1206
 3961TIP3    H133374   3.552   5.514   2.082  0.8555 -0.4029 -0.1673
 3961TIP3    H233375   3.578   5.645   2.152 -1.2300 -0.2589  0.3969
 3962TIP3   OH233376   4.229   4.120   3.504  0.6328  0.1875  0.3813
 3962TIP3    H133377   4.204   4.206   3.473  1.4231 -0.0216 -0.9023
 3962TIP3    H233378   4.317   4.132   3.541  0.0183  0.2761  1.8822
 3963TIP3   OH233379   5.719   6.812  16.996 -0.7301  0.7145  0.2622
 3963TIP3    H133380   5.721   6.888  17.053 -1.1755  0.8106  0.1594
 3963TIP3    H233381   5.626   6.787  16.993 -1.0497  1.9087 -1.9669
 3964TIP3   OH233382   3.395   4.643  16.478  0.1423  0.0303 -0.3122
 3964TIP3    H133383   3.423   4.564  16.431  1.5160  0.1605  0.2420
 3964TIP3    H233384   3.318   4.673  16.430  0.3250 -0.9593 -1.2699
 3965TIP3   OH233385   4.033   1.833   3.694 -0.1155  0.2092  0.9834
 3965TIP3    H133386   4.105   1.871   3.643 -0.1773 -0.7287  0.1765
 3965TIP3    H233387   4.075   1.772   3.755 -0.3329 -2.3032 -1.2175
 3966TIP3   OH233388   1.333   1.252  13.872 -0.1481 -0.0336  0.1495
 3966TIP3    H133389   1.289   1.291  13.797  2.2778  0.1841 -1.2705
 3966TIP3    H233390   1.409   1.309  13.887  0.6277 -1.3218  1.3442
 3967TIP3   OH233391   0.245   2.965  12.803  0.4095 -0.3467 -0.4472
 3967TIP3    H133392   0.234   2.916  12.721 -0.3669  0.8254 -1.0937
 3967TIP3    H233393   0.222   3.055  12.779 -0.3912 -0.0739  1.1975
 3968TIP3   OH233394   1.737   5.952   2.369  0.3448  0.5391 -0.3999
 3968TIP3    H133395   1.690   5.912   2.295 -0.8098 -0.0744  0.6378
 3968TIP3    H233396   1.713   5.900   2.445  2.5839  0.3337  0.2383
 3969TIP3   OH233397   6.423   6.095  15.900  0.1234 -0.0488  0.3564
 3969TIP3    H133398   6.471   6.127  15.976  1.0446  0.2798 -0.3347
 3969TIP3    H233399   6.395   6.174  15.854 -0.2190 -0.2436  0.2251
 3970TIP3   OH233400   0.748   2.855  13.758 -0.1465 -0.1446 -0.1452
 3970TIP3    H133401   0.770   2.875  13.667  0.8117  0.9017  0.2862
 3970TIP3    H233402   0.823   2.804  13.789 -0.2279 -0.0523  0.2016
 3971TIP3   OH233403   4.340   4.432  14.464 -0.6300  0.1583  0.2968
 3971TIP3    H133404   4.297   4.505  14.509 -0.3825  1.2040 -1.0796
 3971TIP3    H233405   4.419   4.416  14.514 -1.5392 -0.3562  1.6195
 3972TIP3   OH233406   2.016   1.031  16.055 -0.1941 -0.6794 -1.0411
 3972TIP3    H133407   1.935   1.005  16.010 -0.8131 -0.5010 -0.0755
 3972TIP3    H233408   1.988   1.046  16.146  0.7824  0.1189 -0.8631
 3973TIP3   OH233409   3.800   3.028  13.546 -0.1323  0.9461 -0.1590
 3973TIP3    H133410   3.758   2.943  13.537 -0.4092  0.9694  0.7861
 3973TIP3    H233411   3.894   3.009  13.550 -0.2242  0.6394  0.5492
 3974TIP3   OH233412   3.887   5.611   4.169 -0.4469  0.5840 -0.4312
 3974TIP3    H133413   3.981   5.592   4.173 -0.7094 -1.1920 -1.4942
 3974TIP3    H233414   3.864   5.603   4.077 -1.4958  1.8559 -0.3016
 3975TIP3   OH233415   5.281   3.355   1.180  0.0967  0.2967  0.1905
 3975TIP3    H133416   5.370   3.326   1.200 -0.4031 -1.3415  0.2473
 3975TIP3    H233417   5.276   3.353   1.084  0.2407  0.7597  0.1750
 3976TIP3   OH233418   1.284   6.421   3.791  0.0560 -0.3837  0.1701
 3976TIP3    H133419   1.326   6.481   3.852  1.5792 -1.2566  0.0282
 3976TIP3    H233420   1.291   6.464   3.706 -1.2078  0.3908  0.4231
 3977TIP3   OH233421   5.068   5.068  10.580  0.0985  0.6402  0.3603
 3977TIP3    H133422   5.065   4.984  10.535  1.7241  1.0557 -0.6203
 3977TIP3    H233423   4.976   5.090  10.596 -0.4858 -0.0805 -1.7193
 3978TIP3   OH233424   6.367   6.723   5.048  0.0119  0.0812 -0.2821
 3978TIP3    H133425   6.407   6.710   4.962 -0.7780  0.2120 -0.6791
 3978TIP3    H233426   6.384   6.815   5.069  3.9024 -0.8435  1.6536
 3979TIP3   OH233427   3.271   1.190   1.375 -0.8051  0.0479  0.4195
 3979TIP3    H133428   3.261   1.215   1.467  1.7162  2.3276  0.1723
 3979TIP3    H233429   3.342   1.125   1.375 -2.1356 -1.4729  0.2200
 3980TIP3   OH233430   5.901   3.218   3.795  0.0743  0.0038  0.0057
 3980TIP3    H133431   5.878   3.129   3.769  0.7845 -0.3917  0.6817
 3980TIP3    H233432   5.855   3.231   3.878 -1.3420  0.8782 -0.8703
 3981TIP3   OH233433   4.593   5.027  15.225 -0.7621  0.7255 -0.0910
 3981TIP3    H133434   4.686   5.014  15.244 -1.0077  0.0217  0.7103
 3981TIP3    H233435   4.573   4.961  15.158 -0.9781 -0.0183  0.6964
 3982TIP3   OH233436   4.987   6.835   0.954  0.3176  0.7024  0.5121
 3982TIP3    H133437   4.989   6.751   0.909  1.1513  0.1501  1.5455
 3982TIP3    H233438   4.895   6.850   0.974 -0.3774  1.7863 -2.8061
 3983TIP3   OH233439   6.408   4.742   5.173  0.4844  0.0756  0.3048
 3983TIP3    H133440   6.316   4.763   5.160 -0.2662 -2.5673  0.5774
 3983TIP3    H233441   6.429   4.778   5.259 -0.8965 -0.8281  1.0722
 3984TIP3   OH233442   5.406   3.857   3.733  0.0961 -0.0584 -0.2649
 3984TIP3    H133443   5.468   3.909   3.682 -1.8354  1.4483 -1.2161
 3984TIP3    H233444   5.370   3.919   3.797 -0.9244 -0.6872 -0.2110
 3985TIP3   OH233445   5.643   3.942   4.127  0.3546 -0.1677  0.4519
 3985TIP3    H133446   5.700   3.968   4.054  0.2897 -0.6592  0.2258
 3985TIP3    H233447   5.570   3.895   4.086 -0.2353  0.4792  0.7360
 3986TIP3   OH233448   6.783   4.688  11.080 -0.5575 -0.5012 -0.3073
 3986TIP3    H133449   6.704   4.740  11.066 -0.7263 -0.7712 -0.3624
 3986TIP3    H233450   6.760   4.630  11.153  0.2838  0.8509  1.0987
 3987TIP3   OH233451   4.005   1.523  16.663 -0.0707  0.3909 -0.2904
 3987TIP3    H133452   4.080   1.549  16.717  0.3878 -2.6166  0.7149
 3987TIP3    H233453   4.044   1.490  16.582 -0.3807 -0.0666 -0.2554
 3988TIP3   OH233454   3.161   6.216  14.474  0.0391 -0.4951  0.0836
 3988TIP3    H133455   3.120   6.194  14.391 -0.6983  0.0685  0.2876
 3988TIP3    H233456   3.161   6.135  14.525 -0.4444 -0.5952 -0.0781
 3989TIP3   OH233457   5.154   2.709   0.523  0.2042  0.1553 -0.3373
 3989TIP3    H133458   5.175   2.646   0.454 -0.2182  0.7436 -1.0171
 3989TIP3    H233459   5.222   2.776   0.515 -0.4161  0.7457 -0.8665
 3990TIP3   OH233460   1.969   6.243   6.331 -0.2753  0.5215  0.1003
 3990TIP3    H133461   1.901   6.178   6.311 -0.6266  1.2839 -1.2826
 3990TIP3    H233462   1.928   6.301   6.394  0.6488 -1.5774  2.8308
 3991TIP3   OH233463   3.125   1.499   3.213  0.1408  0.3964  0.0467
 3991TIP3    H133464   3.127   1.573   3.274  0.6512 -0.9883  1.7889
 3991TIP3    H233465   3.217   1.475   3.201 -0.0902 -0.8935  0.7195
 3992TIP3   OH233466   1.406   1.839  16.067 -0.1016 -0.3600  0.0244
 3992TIP3    H133467   1.473   1.874  16.009  0.3734 -1.2313  0.0268
 3992TIP3    H233468   1.445   1.760  16.104 -0.5698 -0.0585  1.2006
 3993TIP3   OH233469   5.116   1.156   4.412  0.0985 -0.5373  0.1615
 3993TIP3    H133470   5.128   1.135   4.505  2.2883 -1.9888 -0.3834
 3993TIP3    H233471   5.195   1.124   4.369 -0.2546  1.2932 -2.0598
 3994TIP3   OH233472   5.231   1.692   1.919 -0.3823  0.0365 -0.7394
 3994TIP3    H133473   5.221   1.726   1.830 -0.4643  3.2496  0.3647
 3994TIP3    H233474   5.147   1.649   1.937 -0.8628  0.5105 -1.7644
 3995TIP3   OH233475   1.067   0.803   1.504 -0.2074 -0.7814  0.3732
 3995TIP3    H133476   1.072   0.707   1.511 -0.1465 -0.9076 -1.0778
 3995TIP3    H233477   1.084   0.821   1.412 -0.5560  0.6156  0.5596
 3996TIP3   OH233478   1.221   1.052  15.355  0.2229 -0.5106 -0.3770
 3996TIP3    H133479   1.307   1.073  15.319  1.0229 -3.2642 -0.3455
 3996TIP3    H233480   1.161   1.062  15.281 -0.1414  4.3433  0.2580
 3997TIP3   OH233481   5.131   5.533   3.469  0.7372  0.1263 -0.4635
 3997TIP3    H133482   5.186   5.603   3.433  1.2258 -0.7438 -1.4486
 3997TIP3    H233483   5.127   5.468   3.400 -0.1358 -0.6049  0.2540
 3998TIP3   OH233484   4.067   1.603   1.517 -0.3550  0.4068 -0.9775
 3998TIP3    H133485   4.127   1.643   1.455  0.3107  3.2335  1.2558
 3998TIP3    H233486   4.012   1.675   1.547 -0.2507 -0.6274  2.0869
 3999TIP3   OH233487   5.554   0.450   5.181  0.2815 -0.4472 -0.3301
 3999TIP3    H133488   5.618   0.379   5.185  1.6755  0.8087  1.6045
 3999TIP3    H233489   5.542   0.476   5.273  0.2625  2.1783 -0.9953
 4000TIP3   OH233490   1.010   5.185  16.753 -0.3004  0.6292 -0.0614
 4000TIP3    H133491   1.075   5.233  16.804 -0.9556  0.3183  1.0915
 4000TIP3    H233492   0.963   5.253  16.705 -0.4422  1.0462  0.6465
 4001TIP3   OH233493   4.485   0.699  10.885 -0.2612  0.3463  0.4143
 4001TIP3    H133494   4.539   0.635  10.839 -2.9033 -3.0594  1.6594
 4001TIP3    H233495   4.548   0.752  10.934  2.2011  0.1601 -2.2655
 4002TIP3   OH233496   2.208   5.483  11.028 -0.4602 -0.3613  0.5707
 4002TIP3    H133497   2.227   5.424  10.955  1.0113  0.6186  0.1196
 4002TIP3    H233498   2.162   5.557  10.988 -3.1859 -1.5310  1.2746
 4003TIP3   OH233499   3.729   3.178  13.274  0.8364 -0.2463  0.4688
 4003TIP3    H133500   3.789   3.142  13.209 -1.2086 -0.7388 -1.2118
 4003TIP3    H233501   3.749   3.129  13.354  1.7689 -1.3289 -0.3893
 4004TIP3   OH233502   5.682   0.100   0.173 -0.2884 -0.1840  0.1638
 4004TIP3    H133503   5.685   0.195   0.170 -0.8128 -0.1604  0.3248
 4004TIP3    H233504   5.604   0.080   0.224  1.0811 -0.6939  2.1939
 4005TIP3   OH233505   0.903   2.565  16.602  0.3717 -0.3672  0.4451
 4005TIP3    H133506   0.914   2.494  16.666 -1.2018 -0.3640  0.7565
 4005TIP3    H233507   0.908   2.521  16.517  1.0510 -0.5892  0.5905
 4006TIP3   OH233508   3.218   2.052  11.622 -0.1384  0.2168  0.1675
 4006TIP3    H133509   3.253   2.138  11.599  0.3077 -0.0744 -0.2608
 4006TIP3    H233510   3.123   2.063  11.620 -0.0812  0.8121  0.5653
 4007TIP3   OH233511   5.547   1.679   5.896 -0.1794  0.2054 -0.6657
 4007TIP3    H133512   5.556   1.749   5.832  2.8984  1.0781  0.5380
 4007TIP3    H233513   5.560   1.722   5.981  2.9075 -1.8768  0.0721
 4008TIP3   OH233514   4.513   5.546  15.714 -0.4077  0.6825 -0.4155
 4008TIP3    H133515   4.434   5.599  15.702  0.2541  1.7656 -0.1291
 4008TIP3    H233516   4.547   5.532  15.625 -1.1058 -0.0978 -0.5695
 4009TIP3   OH233517   3.101   1.294  16.057  0.3169  0.3896 -0.0120
 4009TIP3    H133518   3.018   1.295  16.011  0.5090  2.2026 -0.3907
 4009TIP3    H233519   3.167   1.311  15.990  0.9208 -0.2730  0.3996
 4010TIP3   OH233520   5.238   0.620  15.585 -0.4082 -0.1262 -0.4579
 4010TIP3    H133521   5.323   0.655  15.608 -0.7934  0.6944 -0.2403
 4010TIP3    H233522   5.250   0.579  15.499  0.0187  0.7010 -0.8021
 4011TIP3   OH233523   3.596   1.489   4.283  0.4256  0.1682  0.1900
 4011TIP3    H133524   3.621   1.397   4.284 -1.6694 -0.5091 -1.6475
 4011TIP3    H233525   3.577   1.508   4.191 -0.9802  1.9193  0.7773
 4012TIP3   OH233526   1.306   5.636  16.556 -0.4148  0.2118 -0.3932
 4012TIP3    H133527   1.322   5.700  16.625  0.5829  0.2990 -0.6944
 4012TIP3    H233528   1.342   5.677  16.477 -0.1411 -0.5407 -0.6665
 4013TIP3   OH233529   5.303   1.428   4.176 -0.5813  0.5713 -0.0932
 4013TIP3    H133530   5.229   1.432   4.237 -0.0762  0.7766  0.5243
 4013TIP3    H233531   5.307   1.336   4.149 -0.9999  0.5404 -0.0600
 4014TIP3   OH233532   2.321   0.428  11.675  0.1960 -0.3437 -0.0670
 4014TIP3    H133533   2.269   0.504  11.648 -1.2675 -1.1626  0.3266
 4014TIP3    H233534   2.396   0.428  11.616 -0.2750  0.8624 -0.6982
 4015TIP3   OH233535   3.872   2.394   2.772  0.3550  0.1491 -0.2112
 4015TIP3    H133536   3.928   2.435   2.707  1.3559 -0.1222  0.4631
 4015TIP3    H233537   3.783   2.416   2.744  0.7691  0.1720 -1.5699
 4016TIP3   OH233538   1.791   5.042  13.532 -0.0950  0.6099  0.4846
 4016TIP3    H133539   1.851   4.973  13.507 -2.5162 -1.2815 -0.5536
 4016TIP3    H233540   1.775   5.027  13.626  0.4288  0.6447  0.5821
 4017TIP3   OH233541   6.321   2.811  13.833  0.8522  0.6593  0.9277
 4017TIP3    H133542   6.280   2.724  13.838  2.3267 -0.0121  2.7190
 4017TIP3    H233543   6.386   2.802  13.764  2.3689 -0.3688  2.4019
 4018TIP3   OH233544   5.743   1.887   2.497 -0.3692 -0.7771  0.0972
 4018TIP3    H133545   5.781   1.971   2.473  0.1562 -1.0587 -0.0756
 4018TIP3    H233546   5.661   1.909   2.541 -1.1992 -0.2372 -1.6370
 4019TIP3   OH233547   1.312   6.203  12.485 -0.4219 -0.3394  0.1560
 4019TIP3    H133548   1.271   6.251  12.412 -0.0967 -1.7691 -1.0244
 4019TIP3    H233549   1.266   6.233  12.563 -0.9995  1.0141 -0.6799
 4020TIP3   OH233550   1.376   0.332  15.386  1.0776 -0.0637  0.1065
 4020TIP3    H133551   1.373   0.385  15.466 -0.2479  0.2366 -0.1120
 4020TIP3    H233552   1.285   0.325  15.359  1.6303  1.2295 -2.3061
 4021TIP3   OH233553   6.701   5.833   1.833  0.6294  0.3174 -0.5259
 4021TIP3    H133554   6.639   5.849   1.761  1.1824  1.7320 -0.7191
 4021TIP3    H233555   6.747   5.753   1.806  0.9807  0.9411 -1.8732
 4022TIP3   OH233556   5.077   5.151  11.975  0.2710  0.3218  0.3189
 4022TIP3    H133557   5.060   5.245  11.984 -0.3482  0.1545  0.9111
 4022TIP3    H233558   5.097   5.139  11.882 -2.4895  0.5934 -0.3890
 4023TIP3   OH233559   1.104   6.866  12.309 -0.2567  0.1503 -0.0334
 4023TIP3    H133560   1.195   6.841  12.321 -1.3335 -4.1956  0.6273
 4023TIP3    H233561   1.085   6.846  12.218 -0.7903  0.0727  0.0893
 4024TIP3   OH233562   2.305   3.139   3.848  0.1570  0.8435  0.3353
 4024TIP3    H133563   2.369   3.188   3.796  1.0205  1.7192  2.1160
 4024TIP3    H233564   2.281   3.199   3.919 -0.1444 -0.6568  1.5639
 4025TIP3   OH233565   2.651   4.671   4.378 -0.5476  0.1879  0.5100
 4025TIP3    H133566   2.653   4.767   4.378  0.3190  0.2021 -0.9805
 4025TIP3    H233567   2.587   4.649   4.310 -1.2475 -0.3120  1.3079
 4026TIP3   OH233568   0.079   3.150   3.442 -0.8496 -0.1197  0.3509
 4026TIP3    H133569   0.149   3.174   3.381 -1.9311 -1.3253 -1.4815
 4026TIP3    H233570   0.035   3.232   3.463 -0.3036  0.3535 -0.3464
 4027TIP3   OH233571   2.027   1.791   3.491 -0.4552  0.5873  0.3664
 4027TIP3    H133572   2.087   1.761   3.559 -0.2840  0.0394 -0.0284
 4027TIP3    H233573   1.994   1.711   3.450  0.5596  0.9258 -1.1901
 4028TIP3   OH233574   5.769   6.510   2.235  0.1465  0.4758  0.1728
 4028TIP3    H133575   5.807   6.595   2.216  0.8191  0.7053  2.2122
 4028TIP3    H233576   5.845   6.454   2.254 -0.3658  0.1297  1.3125
 4029TIP3   OH233577   5.579   5.037  13.817  0.1620 -0.7765  0.0270
 4029TIP3    H133578   5.595   4.956  13.769  0.5153 -0.8612  0.2852
 4029TIP3    H233579   5.581   5.106  13.750  0.8906 -0.8675 -0.0475
 4030TIP3   OH233580   4.575   2.748   2.461 -0.9249  0.4910 -0.1869
 4030TIP3    H133581   4.635   2.810   2.420 -2.0557 -0.0704 -2.9399
 4030TIP3    H233582   4.488   2.773   2.429 -1.5298 -1.8910 -0.6238
 4031TIP3   OH233583   2.787   1.138   1.054 -0.3890 -0.3564  0.0797
 4031TIP3    H133584   2.826   1.073   0.996  0.0087 -0.0483 -0.0040
 4031TIP3    H233585   2.861   1.181   1.096 -0.6605 -0.2402  0.4468
 4032TIP3   OH233586   3.381   3.064   2.494 -0.2075 -0.4877 -0.3785
 4032TIP3    H133587   3.364   3.145   2.445 -2.4025 -0.7471 -0.1503
 4032TIP3    H233588   3.420   3.005   2.430 -2.6011 -0.6613 -1.7784
 4033TIP3   OH233589   0.526   0.460  16.995 -0.6772 -0.0799  0.3417
 4033TIP3    H133590   0.619   0.465  17.018 -0.5674  1.7253 -0.3359
 4033TIP3    H233591   0.523   0.395  16.924 -0.2655 -1.6605  1.6911
 4034TIP3   OH233592   5.249   6.627   4.906 -0.3743 -0.1194 -0.3303
 4034TIP3    H133593   5.214   6.551   4.861  0.9647 -1.8799  1.4141
 4034TIP3    H233594   5.337   6.600   4.933  0.1468  2.0603  0.3743
 4035TIP3   OH233595   2.417   3.796   6.004  0.0639 -0.0869  0.1202
 4035TIP3    H133596   2.356   3.850   6.053  1.0813  0.4404  0.8335
 4035TIP3    H233597   2.431   3.719   6.058 -1.9203 -1.4743 -1.2043
 4036TIP3   OH233598   0.267   1.813   1.678 -1.1779 -0.6429  0.2154
 4036TIP3    H133599   0.197   1.844   1.621 -0.1422  0.0516 -0.7217
 4036TIP3    H233600   0.295   1.731   1.637  1.7628  1.4005 -2.3427
 4037TIP3   OH233601   3.158   1.895  12.852 -0.5361  0.6726 -0.3018
 4037TIP3    H133602   3.078   1.896  12.905 -1.3984 -1.8303 -1.3744
 4037TIP3    H233603   3.182   1.802  12.847  3.2639  1.3634  1.0719
 4038TIP3   OH233604   0.115   2.555  11.630  0.2019  0.2557  0.3307
 4038TIP3    H133605   0.076   2.609  11.561  0.9111  1.7668  1.0484
 4038TIP3    H233606   0.178   2.499  11.585  1.1539  1.6965 -0.2112
 4039TIP3   OH233607   2.894   3.228   5.477  1.2718 -0.7792 -0.0438
 4039TIP3    H133608   2.900   3.211   5.571  1.7870 -1.2123 -0.1521
 4039TIP3    H233609   2.929   3.316   5.466  0.1001 -0.2426  0.3130
 4040TIP3   OH233610   1.127   0.348  16.373 -0.0899 -0.0183 -0.0990
 4040TIP3    H133611   1.032   0.351  16.361  0.0874  0.9201 -1.4626
 4040TIP3    H233612   1.161   0.333  16.285  1.0733  1.0734  0.1405
 4041TIP3   OH233613   1.453   5.018  14.682  0.4615 -0.0686  0.2126
 4041TIP3    H133614   1.538   5.060  14.668  0.1729  1.8102  3.2693
 4041TIP3    H233615   1.474   4.925  14.691  1.8010 -0.0014 -1.5675
 4042TIP3   OH233616   0.928   0.835  16.945 -0.0976 -0.0043 -0.2998
 4042TIP3    H133617   0.955   0.901  17.009  0.2689  0.4527 -0.9132
 4042TIP3    H233618   0.871   0.776  16.994 -0.1378  0.5602  0.3483
 4043TIP3   OH233619   0.509   3.090  13.692  0.0952 -0.1816 -0.5661
 4043TIP3    H133620   0.498   3.099  13.598 -0.8617  0.7634 -0.3830
 4043TIP3    H233621   0.573   3.156  13.716 -0.0563 -0.0666 -0.4789
 4044TIP3   OH233622   6.861   0.472   1.040 -0.0144 -0.0460 -0.8298
 4044TIP3    H133623   6.920   0.527   1.093 -0.8352 -0.1664  0.2511
 4044TIP3    H233624   6.886   0.490   0.950  0.7766  0.9239 -0.4401
 4045TIP3   OH233625   3.204   2.613  12.479 -0.1580  0.5694 -0.3129
 4045TIP3    H133626   3.235   2.683  12.536  1.1102 -0.3784  0.2009
 4045TIP3    H233627   3.122   2.647  12.443  0.5707  2.4478 -0.3462
 4046TIP3   OH233628   5.243   1.859  15.398 -0.0780  0.4883 -0.2964
 4046TIP3    H133629   5.221   1.950  15.377 -0.0107  0.6627  0.3701
 4046TIP3    H233630   5.169   1.827  15.449  1.2233  1.1404  2.1287
 4047TIP3   OH233631   3.844   4.203  10.606  0.5361  0.0740  0.1009
 4047TIP3    H133632   3.806   4.189  10.693  1.5453 -0.5645  0.4452
 4047TIP3    H233633   3.873   4.116  10.578  2.4717  0.6425  0.1957
 4048TIP3   OH233634   2.706   1.981   1.193  0.0132  0.5745 -0.2725
 4048TIP3    H133635   2.761   2.000   1.117 -1.8353  0.3801 -1.7252
 4048TIP3    H233636   2.620   2.016   1.170 -0.7617 -0.0489  1.4860
 4049TIP3   OH233637   3.639   1.864  15.607  0.4507 -0.1781  0.2060
 4049TIP3    H133638   3.661   1.770  15.609  1.7662  0.0460 -1.3475
 4049TIP3    H233639   3.720   1.908  15.633  0.3477  0.5503 -0.6301
 4050TIP3   OH233640   1.032   3.209   1.607 -0.2271 -0.2165  0.0049
 4050TIP3    H133641   1.083   3.133   1.637  0.1874  0.0620  0.0173
 4050TIP3    H233642   1.021   3.262   1.686  0.1349  0.1020 -0.1515
 4051TIP3   OH233643   5.947   4.688  12.089 -0.1274  0.2058  0.0107
 4051TIP3    H133644   5.862   4.649  12.110 -0.4056  0.7947 -0.0165
 4051TIP3    H233645   5.954   4.764  12.146  0.8828 -0.4633  0.8143
 4052TIP3   OH233646   3.587   2.953   5.740 -0.3017  0.0750 -0.0364
 4052TIP3    H133647   3.565   2.926   5.829 -1.1793  0.8608 -0.0027
 4052TIP3    H233648   3.505   2.989   5.705 -0.8717 -2.9417 -2.2298
 4053TIP3   OH233649   4.365   4.756   0.698  0.4200 -0.7071 -0.3727
 4053TIP3    H133650   4.286   4.809   0.706 -0.2786 -2.0164  2.3657
 4053TIP3    H233651   4.353   4.708   0.616 -1.2617 -0.3359 -0.3856
 4054TIP3   OH233652   4.640   4.575  10.839 -0.3679 -0.4625  0.3441
 4054TIP3    H133653   4.735   4.575  10.844 -0.4045 -0.1810  1.2734
 4054TIP3    H233654   4.618   4.652  10.787 -0.1116  0.1152  1.0687
 4055TIP3   OH233655   2.808   6.781   4.731 -0.2732 -0.5131 -0.6301
 4055TIP3    H133656   2.767   6.806   4.649 -0.1201  1.2816 -0.2005
 4055TIP3    H233657   2.874   6.716   4.707 -0.0461  0.1900 -1.9454
 4056TIP3   OH233658   3.884   2.274   6.346 -0.3523 -0.3077 -0.6187
 4056TIP3    H133659   3.958   2.242   6.295 -1.0256 -2.4243 -0.3634
 4056TIP3    H233660   3.812   2.280   6.282 -0.5133 -0.3951 -0.4467
 4057TIP3   OH233661   2.001   1.778   4.754 -0.0594  0.6148  0.4753
 4057TIP3    H133662   2.009   1.683   4.748 -2.1832  0.4496 -0.5817
 4057TIP3    H233663   2.020   1.810   4.666  0.7572  1.2161  0.8509
 4058TIP3   OH233664   1.468   5.464  13.433  0.1457 -0.3305  0.1871
 4058TIP3    H133665   1.536   5.530  13.418  0.4632 -1.0789 -2.0830
 4058TIP3    H233666   1.516   5.381  13.433 -0.5839 -0.7517  0.2462
 4059TIP3   OH233667   4.384   0.780   4.168 -0.0334 -0.1769 -0.3746
 4059TIP3    H133668   4.431   0.713   4.119 -0.6893 -0.4598 -0.6357
 4059TIP3    H233669   4.292   0.766   4.144 -0.4729 -0.7976  1.4847
 4060TIP3   OH233670   2.442   2.440  13.387  0.1810  0.0731  0.1024
 4060TIP3    H133671   2.382   2.489  13.442 -0.2818  1.7957 -1.7908
 4060TIP3    H233672   2.396   2.359  13.366 -0.6204  0.4653  0.3298
 4061TIP3   OH233673   3.190   3.414   2.465  0.1216 -0.0782 -0.7544
 4061TIP3    H133674   3.285   3.413   2.454  0.5905  1.1816  2.2595
 4061TIP3    H233675   3.161   3.484   2.406  1.1516 -0.0354 -1.2428
 4062TIP3   OH233676   4.435   3.571   6.027 -0.7180  0.5822  0.3967
 4062TIP3    H133677   4.352   3.619   6.025  0.1848  2.2147 -1.0740
 4062TIP3    H233678   4.487   3.615   6.094 -0.7446  0.1091  0.7265
 4063TIP3   OH233679   3.814   1.921   0.084 -0.0158  0.0702  0.7125
 4063TIP3    H133680   3.767   1.960   0.157 -0.1431  0.5812  0.3678
 4063TIP3    H233681   3.765   1.842   0.063  0.5982 -0.6148  1.8163
 4064TIP3   OH233682   4.482   1.094  12.780 -0.4415  0.5257 -0.3621
 4064TIP3    H133683   4.452   1.141  12.702  1.7618 -0.1952 -1.7380
 4064TIP3    H233684   4.574   1.120  12.790 -0.5670  0.3170  1.8222
 4065TIP3   OH233685   0.302   3.684  15.531  0.2999 -0.2859  0.3361
 4065TIP3    H133686   0.210   3.707  15.546 -0.2614 -2.1489  0.0140
 4065TIP3    H233687   0.339   3.760  15.486 -1.6395 -0.3299 -1.4513
 4066TIP3   OH233688   1.767   3.064  11.182  0.1809  0.0122 -0.3510
 4066TIP3    H133689   1.759   3.119  11.260 -0.9772 -0.6700  0.0502
 4066TIP3    H233690   1.677   3.033  11.166  0.8735 -2.3814 -0.0728
 4067TIP3   OH233691   5.925   0.381   0.280 -0.2240 -0.5811 -0.3220
 4067TIP3    H133692   6.019   0.373   0.262  0.2545 -2.3469  2.3946
 4067TIP3    H233693   5.901   0.296   0.318 -2.6933  0.2068  0.0511
 4068TIP3   OH233694   0.282   5.792   5.403 -0.3008  0.0096 -0.5866
 4068TIP3    H133695   0.281   5.730   5.476  2.1966 -0.4830 -0.8801
 4068TIP3    H233696   0.262   5.876   5.443  3.8081  0.3034  1.3837
 4069TIP3   OH233697   1.623   6.836  12.410  0.0512  0.3817 -0.2814
 4069TIP3    H133698   1.616   6.802  12.499 -0.4727 -2.0809 -1.1783
 4069TIP3    H233699   1.671   6.768  12.362 -0.9712  0.9241 -2.1813
 4070TIP3   OH233700   5.689   3.173  14.059 -0.1874  0.1872  1.1974
 4070TIP3    H133701   5.597   3.171  14.086 -1.1425 -0.3656 -1.7503
 4070TIP3    H233702   5.732   3.106  14.112 -1.3646  0.6599  2.8309
 4071TIP3   OH233703   6.514   5.180  15.190  0.3853 -0.1410  0.4470
 4071TIP3    H133704   6.443   5.148  15.135  0.2973  0.9500 -0.0986
 4071TIP3    H233705   6.594   5.146  15.149  0.3677  1.2324 -0.7856
 4072TIP3   OH233706   3.311   3.423  14.857 -0.3824  0.3651  0.4646
 4072TIP3    H133707   3.347   3.464  14.936  1.1282 -0.5621  0.3095
 4072TIP3    H233708   3.224   3.393  14.883 -0.5830  1.5644  1.2575
 4073TIP3   OH233709   2.422   4.173  13.052  0.7479  0.3148 -0.1074
 4073TIP3    H133710   2.458   4.256  13.020  1.1101  0.4753  0.7044
 4073TIP3    H233711   2.465   4.159  13.136 -1.9014  1.1035  1.4851
 4074TIP3   OH233712   1.976   5.535  15.369 -0.5971 -0.3377 -0.0114
 4074TIP3    H133713   1.985   5.443  15.395  0.5693 -0.2856 -0.2002
 4074TIP3    H233714   1.881   5.550  15.367 -0.7846 -1.2282  1.0937
 4075TIP3   OH233715   5.493   0.851  13.883  0.0411 -0.3858  0.6820
 4075TIP3    H133716   5.489   0.947  13.879 -0.1322 -0.3980  0.5724
 4075TIP3    H233717   5.572   0.828  13.835 -1.0070 -0.4228 -1.1245
 4076TIP3   OH233718   6.147   1.437   3.100 -0.1740 -0.5236  0.3889
 4076TIP3    H133719   6.225   1.455   3.047 -0.1498 -0.3214  0.4936
 4076TIP3    H233720   6.078   1.420   3.036  0.3683 -2.6279  0.2629
 4077TIP3   OH233721   4.444   1.485   4.030 -0.3610 -0.5170  0.2021
 4077TIP3    H133722   4.378   1.436   3.981 -1.1424  0.7243 -0.0596
 4077TIP3    H233723   4.393   1.539   4.091  0.4480  0.0053  0.4352
 4078TIP3   OH233724   6.701   2.028  15.581 -0.1710  0.2961 -0.1236
 4078TIP3    H133725   6.653   2.089  15.637 -1.3960 -0.5583 -0.2049
 4078TIP3    H233726   6.648   2.021  15.502  0.9436  0.5856 -0.9189
 4079TIP3   OH233727   4.285   2.221  13.025 -0.1227  0.2607  0.9262
 4079TIP3    H133728   4.266   2.239  12.933 -1.7865 -0.9193  1.0028
 4079TIP3    H233729   4.364   2.272  13.043 -0.4374  1.4680 -0.8142
 4080TIP3   OH233730   2.745   5.555  10.472 -0.6878 -0.1986 -0.6692
 4080TIP3    H133731   2.756   5.470  10.429 -0.7298 -0.9622  0.7642
 4080TIP3    H233732   2.814   5.610  10.434 -0.3754 -0.9953 -1.2948
 4081TIP3   OH233733   3.848   6.070  13.932 -0.2395 -0.2241  0.3434
 4081TIP3    H133734   3.803   6.115  14.003 -0.7821 -1.9187  1.1243
 4081TIP3    H233735   3.938   6.102  13.936 -0.2686 -0.2800  1.8020
 4082TIP3   OH233736   4.523   6.253   2.122  0.0857  0.3214  0.0925
 4082TIP3    H133737   4.597   6.270   2.181  1.2952  1.0496 -1.5625
 4082TIP3    H233738   4.536   6.313   2.049 -3.5918  2.4474  0.8855
 4083TIP3   OH233739   3.924   1.583  11.401 -0.0861  0.0226 -0.3829
 4083TIP3    H133740   3.970   1.517  11.453 -0.8754  0.3121  0.7069
 4083TIP3    H233741   3.937   1.555  11.310  0.3538 -1.1283  0.0156
 4084TIP3   OH233742   4.278   2.406   6.530  0.1731  0.8829 -0.6346
 4084TIP3    H133743   4.249   2.346   6.461  2.8934  1.4576 -2.4436
 4084TIP3    H233744   4.302   2.348   6.603  0.3384 -0.0281 -1.3871
 4085TIP3   OH233745   1.521   0.619  13.086 -0.6307 -0.2146 -1.3504
 4085TIP3    H133746   1.567   0.536  13.078  0.4478  0.2071 -0.0427
 4085TIP3    H233747   1.455   0.604  13.153  1.0141  0.4910  0.5567
 4086TIP3   OH233748   3.184   0.417  15.993 -0.2033  0.0598 -0.4514
 4086TIP3    H133749   3.255   0.377  16.042 -0.3716 -0.5147 -0.6696
 4086TIP3    H233750   3.136   0.469  16.058  0.0177 -0.0902 -0.1656
 4087TIP3   OH233751   6.732   6.735   5.177  0.7427  0.0644  0.5983
 4087TIP3    H133752   6.684   6.770   5.252 -2.1036 -0.8438 -0.6672
 4087TIP3    H233753   6.755   6.811   5.125 -0.4741  0.4524  0.6133
 4088TIP3   OH233754   3.624   2.229   1.401  0.1285  0.0084 -0.1202
 4088TIP3    H133755   3.567   2.288   1.451 -1.8048 -0.6386 -1.4269
 4088TIP3    H233756   3.575   2.147   1.396  1.7099 -0.9715 -0.3573
 4089TIP3   OH233757   4.622   1.635   4.720  0.2843 -0.5632 -0.1586
 4089TIP3    H133758   4.627   1.708   4.658 -0.3621  0.7461  1.2679
 4089TIP3    H233759   4.702   1.642   4.772  0.0992 -0.7167  0.1479
 4090TIP3   OH233760   6.354   2.272  14.037 -0.2850 -0.3964  0.3414
 4090TIP3    H133761   6.314   2.239  14.118  0.0911  0.4541  0.8768
 4090TIP3    H233762   6.339   2.366  14.039 -0.0803 -0.3361 -0.4801
 4091TIP3   OH233763   0.708   4.216  12.216  0.2783  0.1051  0.3407
 4091TIP3    H133764   0.617   4.197  12.196  0.8084 -0.1142 -2.3252
 4091TIP3    H233765   0.738   4.142  12.269 -0.7142 -0.5304  0.0250
 4092TIP3   OH233766   5.079   2.460  16.503  0.2772  0.5176 -0.0356
 4092TIP3    H133767   5.107   2.537  16.552 -0.2987  0.3939  0.4930
 4092TIP3    H233768   5.157   2.435  16.452  0.7654  0.8738  0.5226
 4093TIP3   OH233769   1.235   0.462   3.573  0.7312  0.1694 -0.2281
 4093TIP3    H133770   1.318   0.508   3.584  0.9375 -0.3451  0.4362
 4093TIP3    H233771   1.180   0.496   3.644  1.2641 -1.4137  0.9898
 4094TIP3   OH233772   6.613   0.471   0.719  0.3120  0.2212 -0.3462
 4094TIP3    H133773   6.620   0.375   0.716  1.7583  0.2914  0.1306
 4094TIP3    H233774   6.543   0.488   0.782 -0.2963 -0.5152 -0.8003
 4095TIP3   OH233775   6.459   3.591  15.993  0.0541  0.3139 -0.5244
 4095TIP3    H133776   6.374   3.583  15.951  0.0571 -1.6050 -0.2577
 4095TIP3    H233777   6.518   3.541  15.937  0.6298  0.0866  0.2723
 4096TIP3   OH233778   5.960   4.453  14.000 -0.1594 -0.7009  0.2760
 4096TIP3    H133779   5.964   4.422  13.910 -1.0016  1.0151 -0.4059
 4096TIP3    H233780   5.919   4.381  14.049  0.1819 -1.5896 -0.7282
 4097TIP3   OH233781   2.059   5.663  13.222 -0.0022 -0.2774 -0.7154
 4097TIP3    H133782   2.121   5.606  13.266  1.5465  0.3670 -1.9358
 4097TIP3    H233783   2.049   5.625  13.135 -0.1232  0.4624 -1.0374
 4098TIP3   OH233784   2.329   0.981   3.970 -0.3878  0.2718 -0.3663
 4098TIP3    H133785   2.392   0.923   4.013 -3.1552 -1.4209  1.7612
 4098TIP3    H233786   2.313   1.051   4.034  0.5609  1.6989 -1.6212
 4099TIP3   OH233787   4.269   0.675   0.676 -0.3909 -0.0999 -0.0864
 4099TIP3    H133788   4.362   0.668   0.698 -0.9124 -0.5078  2.2073
 4099TIP3    H233789   4.232   0.591   0.701 -1.9696  1.2404  2.5512
 4100TIP3   OH233790   5.377   2.393  13.353 -0.4070 -0.2186 -0.1005
 4100TIP3    H133791   5.399   2.471  13.303 -1.9173  3.2708  4.1180
 4100TIP3    H233792   5.458   2.343  13.358  0.2828  0.1922 -4.0329
 4101TIP3   OH233793   3.393   6.266   4.760  0.2197  0.2193  0.5926
 4101TIP3    H133794   3.354   6.352   4.742 -0.0324  0.5166  2.3672
 4101TIP3    H233795   3.483   6.286   4.787  0.6633 -0.2229 -0.4937
 4102TIP3   OH233796   4.408   5.508  14.458 -1.2514 -0.4690 -0.3969
 4102TIP3    H133797   4.370   5.558  14.385 -0.5804  0.3040 -0.2323
 4102TIP3    H233798   4.333   5.485  14.513 -1.9931 -2.4301 -2.1029
 4103TIP3   OH233799   0.670   0.011  16.250 -0.4986 -0.3361 -0.9079
 4103TIP3    H133800   0.669   0.069  16.326 -1.7003 -0.4054 -0.8638
 4103TIP3    H233801   0.763   0.007  16.225  0.0908 -1.1864  1.2045
 4104TIP3   OH233802   2.171   6.242   1.485 -0.0316  0.5025  0.0591
 4104TIP3    H133803   2.137   6.327   1.457  0.7738  0.9411  0.3527
 4104TIP3    H233804   2.238   6.220   1.420  0.4848  0.5977  0.5456
 4105TIP3   OH233805   4.426   3.388   4.288  0.6133 -0.9381 -0.1183
 4105TIP3    H133806   4.463   3.464   4.243 -0.2610  0.8221  1.9778
 4105TIP3    H233807   4.483   3.315   4.262  2.7201  0.7838 -0.6570
 4106TIP3   OH233808   4.750   6.267  13.748 -1.1920  0.9268  0.1635
 4106TIP3    H133809   4.805   6.345  13.752 -1.0788  0.8201  0.9999
 4106TIP3    H233810   4.681   6.283  13.813 -0.1984 -0.3726  1.6248
 4107TIP3   OH233811   6.695   0.199  11.833 -0.0510 -0.2078  0.2270
 4107TIP3    H133812   6.725   0.235  11.750 -1.7586  0.9978  0.0929
 4107TIP3    H233813   6.767   0.216  11.894  1.3213 -1.3347 -1.0143
 4108TIP3   OH233814   0.336   2.413   5.882 -0.4519  0.1148 -0.0599
 4108TIP3    H133815   0.309   2.334   5.835 -0.1677 -0.5021  0.7934
 4108TIP3    H233816   0.265   2.476   5.868 -1.0407 -0.5567 -0.1071
 4109TIP3   OH233817   4.477   2.091   2.091  0.0347 -0.0840  0.3368
 4109TIP3    H133818   4.384   2.074   2.108  0.3156  0.4065  2.7420
 4109TIP3    H233819   4.514   2.005   2.072 -0.8691 -0.3083 -0.5078
 4110TIP3   OH233820   0.435   2.359   5.484 -0.0406 -0.0704  0.5705
 4110TIP3    H133821   0.451   2.449   5.455  0.4496  0.1413  1.4635
 4110TIP3    H233822   0.347   2.361   5.522 -2.1004 -1.0283 -3.4903
 4111TIP3   OH233823   5.794   6.366  11.754  0.0654 -0.4217 -0.0016
 4111TIP3    H133824   5.875   6.404  11.789  0.4453 -0.7152 -0.5347
 4111TIP3    H233825   5.813   6.353  11.661 -0.2793 -1.3141  0.0416
 4112TIP3   OH233826   5.768   4.314   5.235  0.0443 -0.5693  0.0963
 4112TIP3    H133827   5.747   4.344   5.323 -0.9319 -2.5935  0.5934
 4112TIP3    H233828   5.841   4.253   5.247  0.9179  0.2575 -0.7145
 4113TIP3   OH233829   6.388   4.926   4.842  0.2484  0.3076 -0.3281
 4113TIP3    H133830   6.353   4.895   4.925  2.6983 -0.0323  0.6732
 4113TIP3    H233831   6.364   4.858   4.779  1.7601 -1.5191  0.9480
 4114TIP3   OH233832   3.154   0.855   4.941 -0.5134 -0.1483  0.0318
 4114TIP3    H133833   3.124   0.826   4.855  1.2669  2.7037 -1.7517
 4114TIP3    H233834   3.085   0.914   4.971 -0.8754 -0.7074  0.3111
 4115TIP3   OH233835   2.293   2.721   5.010  0.9352  0.2380 -0.8883
 4115TIP3    H133836   2.304   2.635   4.970 -1.4618 -0.3174 -0.5359
 4115TIP3    H233837   2.259   2.702   5.098  2.9786  1.5112  0.2499
 4116TIP3   OH233838   4.367   1.111  14.374 -0.4590  0.0626  0.0096
 4116TIP3    H133839   4.417   1.193  14.379 -0.8219  0.3537 -0.8754
 4116TIP3    H233840   4.424   1.045  14.412 -0.9014  1.0403  2.5861
 4117TIP3   OH233841   5.040   3.969  16.417  0.7463 -0.0344  0.1357
 4117TIP3    H133842   4.989   3.996  16.493  0.3407 -2.9924  1.0460
 4117TIP3    H233843   4.976   3.957  16.347  0.5148 -1.1635  0.5175
 4118TIP3   OH233844   5.875   1.316  12.050  0.1064  0.3387 -0.2237
 4118TIP3    H133845   5.788   1.281  12.070  0.7745 -0.6625  1.0887
 4118TIP3    H233846   5.928   1.238  12.034  1.2933  0.7844  1.3220
 4119TIP3   OH233847   4.714   5.486  12.113 -0.5257  0.0409  0.4517
 4119TIP3    H133848   4.707   5.572  12.155  2.5141  0.8417 -0.3846
 4119TIP3    H233849   4.782   5.441  12.164 -0.0940 -0.7552 -0.7792
 4120TIP3   OH233850   3.737   4.681   5.336  0.0244  0.2922 -0.5482
 4120TIP3    H133851   3.723   4.702   5.244 -1.2849 -0.6820 -0.5843
 4120TIP3    H233852   3.679   4.607   5.354  2.4451 -1.5188  0.3007
 4121TIP3   OH233853   0.197   1.662   6.161 -0.4811  0.1672  0.0261
 4121TIP3    H133854   0.161   1.751   6.170 -1.1882 -0.2462  1.7906
 4121TIP3    H233855   0.291   1.675   6.152 -0.6198  1.1043 -0.2223
 4122TIP3   OH233856   5.793   2.926  15.183 -0.1293 -1.2515 -0.1830
 4122TIP3    H133857   5.817   2.932  15.090 -1.0350 -1.3100 -0.4319
 4122TIP3    H233858   5.846   2.854  15.217  0.7602 -0.7519 -0.4718
 4123TIP3   OH233859   6.621   4.029  16.483  0.2206  0.6099 -0.3480
 4123TIP3    H133860   6.562   4.078  16.540  0.5343  0.0911  0.4519
 4123TIP3    H233861   6.582   3.941  16.477  1.4811 -0.1186  1.1889
 4124TIP3   OH233862   0.765   3.948  11.612 -0.6251  0.6518  0.6061
 4124TIP3    H133863   0.706   3.874  11.599 -1.1524  1.1357  0.1839
 4124TIP3    H233864   0.769   3.991  11.526  0.9888  0.1669  0.4147
 4125TIP3   OH233865   2.191   2.413  14.883 -0.5981  0.7681 -0.3892
 4125TIP3    H133866   2.108   2.369  14.904  0.2704 -0.2322  1.2107
 4125TIP3    H233867   2.178   2.503  14.912 -0.1160 -0.1168  3.1073
 4126TIP3   OH233868   0.162   2.538   3.346  0.4757  0.0681 -0.0458
 4126TIP3    H133869   0.158   2.624   3.387 -1.3186  0.7411 -1.4644
 4126TIP3    H233870   0.085   2.492   3.378  1.3628 -1.0006  0.6188
 4127TIP3   OH233871   4.189   1.349   1.569 -0.7378 -0.5836  0.3662
 4127TIP3    H133872   4.117   1.308   1.617 -1.7369  0.3783 -0.2503
 4127TIP3    H233873   4.152   1.431   1.538 -0.0114 -1.0068 -1.7292
 4128TIP3   OH233874   0.922   1.859   5.617  0.2287  0.0334 -0.1289
 4128TIP3    H133875   0.866   1.881   5.542  0.2300  0.8823  0.1120
 4128TIP3    H233876   0.901   1.767   5.636 -0.4925  0.1027 -0.5476
 4129TIP3   OH233877   5.542   4.851   2.590  0.5256  0.0785 -0.2401
 4129TIP3    H133878   5.617   4.801   2.558  0.0083  0.3161 -1.9101
 4129TIP3    H233879   5.473   4.786   2.601  0.6626  0.0184  0.2946
 4130TIP3   OH233880   1.492   4.070  11.882 -0.8962  0.8787  0.2339
 4130TIP3    H133881   1.434   4.127  11.831  0.3325  2.2521  0.3075
 4130TIP3    H233882   1.567   4.055  11.825  0.8982  3.1222  1.8469
 4131TIP3   OH233883   1.946   6.250   6.681 -0.2866 -0.0110 -0.2291
 4131TIP3    H133884   2.035   6.215   6.679  0.0848  0.8432  0.5262
 4131TIP3    H233885   1.944   6.313   6.609  0.1787  0.9997  0.6245
 4132TIP3   OH233886   1.546   5.699  12.182 -0.2452 -0.4186 -0.1071
 4132TIP3    H133887   1.561   5.752  12.104 -0.8506 -0.4248 -0.2305
 4132TIP3    H233888   1.473   5.742  12.227  1.2280  0.6546  1.4089
 4133TIP3   OH233889   1.619   2.038   5.686 -1.0598 -0.3773  0.2710
 4133TIP3    H133890   1.592   2.074   5.601  0.5064 -0.4704 -0.2904
 4133TIP3    H233891   1.602   2.109   5.748 -0.1953  0.4963 -0.4647
 4134TIP3   OH233892   1.593   4.375  16.561 -0.6184 -0.3355 -0.2191
 4134TIP3    H133893   1.613   4.456  16.514 -1.7140 -1.3668 -2.6070
 4134TIP3    H233894   1.509   4.347  16.525 -1.5133 -1.2452  2.3875
 4135TIP3   OH233895   1.476   4.465   1.932 -0.1891  0.8086  0.6210
 4135TIP3    H133896   1.444   4.542   1.979 -1.6862  1.0359 -0.6814
 4135TIP3    H233897   1.506   4.499   1.847 -2.1750 -0.1518 -0.5373
 4136TIP3   OH233898   4.250   0.924   2.602  0.2476 -0.5386 -0.0465
 4136TIP3    H133899   4.216   0.888   2.684  2.0161 -0.0979  0.9386
 4136TIP3    H233900   4.184   0.988   2.575  0.4593  0.7202  2.1041
 4137TIP3   OH233901   1.817   6.604   1.457 -0.0736 -0.1654 -0.1477
 4137TIP3    H133902   1.893   6.545   1.447 -0.9640 -1.6652  1.3369
 4137TIP3    H233903   1.766   6.590   1.377  1.6228  1.6040 -1.6390
 4138TIP3   OH233904   0.769   1.132   4.312  0.9375 -0.1751  0.4996
 4138TIP3    H133905   0.829   1.201   4.285  1.1495 -0.4229  0.3367
 4138TIP3    H233906   0.824   1.070   4.360  0.5895  0.2139  1.4368
 4139TIP3   OH233907   3.663   4.354   0.294  0.0972  0.3250 -0.2231
 4139TIP3    H133908   3.750   4.380   0.324  0.3866 -1.7416  0.9779
 4139TIP3    H233909   3.630   4.297   0.364 -2.1477  0.8780 -0.7572
 4140TIP3   OH233910   5.376   4.164   5.125  0.0572 -0.0515 -0.1944
 4140TIP3    H133911   5.379   4.072   5.098 -0.4380  0.7307 -3.2598
 4140TIP3    H233912   5.293   4.172   5.173  0.3969 -1.2871  0.6541
 4141TIP3   OH233913   4.900   4.732  13.190 -0.0649 -0.5981 -0.2337
 4141TIP3    H133914   4.938   4.790  13.256  1.6950 -1.7010 -0.2322
 4141TIP3    H233915   4.848   4.670  13.240  0.0046 -0.4847 -0.0204
 4142TIP3   OH233916   2.274   4.755  13.785  0.4683 -0.5238  0.3117
 4142TIP3    H133917   2.329   4.686  13.824  0.2459  0.0055  1.6244
 4142TIP3    H233918   2.283   4.829  13.846 -0.8302 -0.0560 -0.0495
 4143TIP3   OH233919   2.144   0.082   1.036 -0.0726  0.1450 -0.3001
 4143TIP3    H133920   2.190   0.138   1.099  0.1240 -0.5327  0.1714
 4143TIP3    H233921   2.051   0.099   1.052 -0.0202  1.6347 -1.3597
 4144TIP3   OH233922   3.986   2.282   4.344  0.0668 -0.2676 -0.1188
 4144TIP3    H133923   3.925   2.347   4.310 -1.1027 -0.7854  0.8986
 4144TIP3    H233924   4.006   2.226   4.269  0.2664  0.6344 -0.7537
 4145TIP3   OH233925   4.765   6.161   2.844 -0.4477 -0.4223  0.4317
 4145TIP3    H133926   4.784   6.255   2.844 -0.7828 -0.2923  2.5993
 4145TIP3    H233927   4.801   6.130   2.927 -1.5694 -1.9245  0.3999
 4146TIP3   OH233928   5.907   2.413   2.950  0.0165 -0.4275 -0.0732
 4146TIP3    H133929   5.979   2.381   2.896  1.3871 -0.5694  1.7329
 4146TIP3    H233930   5.856   2.335   2.970  0.2406 -0.5842 -0.1088
 4147TIP3   OH233931   5.429   6.464   4.537 -1.0060 -0.6043 -0.3408
 4147TIP3    H133932   5.401   6.387   4.488 -0.3976 -0.8669 -0.2884
 4147TIP3    H233933   5.501   6.433   4.592 -0.9124 -0.0550 -0.1440
 4148TIP3   OH233934   3.288   1.414  11.833  0.5137 -0.3319  0.2789
 4148TIP3    H133935   3.318   1.505  11.839 -0.1463  0.2449 -3.1959
 4148TIP3    H233936   3.224   1.406  11.904 -1.1070  2.6787 -0.6614
 4149TIP3   OH233937   6.601   2.104   1.075  0.1911 -0.7246  0.2295
 4149TIP3    H133938   6.645   2.021   1.095  1.6196  0.0544  0.4229
 4149TIP3    H233939   6.638   2.131   0.991  0.3600  0.1387  0.5769
 4150TIP3   OH233940   0.653   0.297   3.489  0.3659 -0.1615  0.0241
 4150TIP3    H133941   0.611   0.378   3.518  0.7181 -0.1811  0.6001
 4150TIP3    H233942   0.619   0.230   3.549 -1.4627 -0.8387 -1.6516
 4151TIP3   OH233943   2.710   5.599  13.788  0.0274  0.2413 -0.2053
 4151TIP3    H133944   2.679   5.652  13.715 -0.2551  0.8838  0.3688
 4151TIP3    H233945   2.793   5.639  13.813  1.1782 -1.2185 -1.4707
 4152TIP3   OH233946   4.397   0.591   3.583 -0.3921  0.0562 -0.1364
 4152TIP3    H133947   4.331   0.570   3.518  1.0555 -0.0152 -1.6616
 4152TIP3    H233948   4.450   0.659   3.541  1.2529 -0.7861  0.4863
 4153TIP3   OH233949   3.814   4.638  12.307 -0.6125 -0.2481 -0.1292
 4153TIP3    H133950   3.887   4.686  12.267 -0.0566  0.5748  1.7643
 4153TIP3    H233951   3.761   4.609  12.233  0.8265  0.4327 -1.4858
 4154TIP3   OH233952   6.055   5.091  12.448 -0.4042  0.5439  0.8827
 4154TIP3    H133953   6.064   5.180  12.482 -0.5301  0.5843  0.8095
 4154TIP3    H233954   6.033   5.103  12.356  0.6422  0.4350  0.5989
 4155TIP3   OH233955   5.598   5.772  12.507  0.4373  0.6852 -0.4857
 4155TIP3    H133956   5.605   5.841  12.573  1.5453  0.2827 -0.1619
 4155TIP3    H233957   5.689   5.755  12.481  0.2795 -1.3036  0.1260
 4156TIP3   OH233958   2.518   4.780  15.272 -0.8630 -0.1904  0.1480
 4156TIP3    H133959   2.485   4.701  15.315  0.7199 -0.1689  1.5036
 4156TIP3    H233960   2.612   4.780  15.291 -0.7470  1.7646 -0.2232
 4157TIP3   OH233961   5.258   6.327  11.773  0.4301 -0.4734  0.4126
 4157TIP3    H133962   5.260   6.253  11.833  0.4442 -1.5383 -0.8623
 4157TIP3    H233963   5.350   6.347  11.756  0.4537 -1.3392 -0.6068
 4158TIP3   OH233964   0.473   4.131  15.830 -0.1801  0.4517 -0.6888
 4158TIP3    H133965   0.417   4.056  15.851  1.5246 -0.8292 -0.4570
 4158TIP3    H233966   0.420   4.208  15.853 -1.1953 -0.7241  1.1529
 4159TIP3   OH233967   6.245   3.930   4.571 -0.6506 -0.5316 -0.0101
 4159TIP3    H133968   6.227   3.898   4.483 -1.5551  0.3823 -0.1773
 4159TIP3    H233969   6.219   3.857   4.628 -0.6091 -0.9102 -0.4671
 4160TIP3   OH233970   6.761   1.704   1.916  0.5602 -0.3207  0.0234
 4160TIP3    H133971   6.753   1.650   1.994 -0.1538 -0.2325  0.0100
 4160TIP3    H233972   6.760   1.642   1.843  1.6134 -0.4384  0.0843
 4161TIP3   OH233973   2.944   0.121   5.907  0.0964 -0.6790 -0.5014
 4161TIP3    H133974   3.027   0.167   5.920 -0.2472 -0.3756  0.6906
 4161TIP3    H233975   2.939   0.059   5.980 -0.6460 -0.8097 -0.6543
 4162TIP3   OH233976   1.676   2.500  17.017  0.6808 -0.3822  0.3507
 4162TIP3    H133977   1.653   2.429  17.077 -1.6456  1.2699  1.5935
 4162TIP3    H233978   1.769   2.515  17.033  1.0078 -2.4620  0.7542
 4163TIP3   OH233979   3.748   5.940   5.766 -0.6013  0.1577 -0.5391
 4163TIP3    H133980   3.798   5.878   5.714  0.9223  1.6611 -0.9395
 4163TIP3    H233981   3.693   5.885   5.822  1.2911 -1.5804 -0.2658
 4164TIP3   OH233982   2.174   0.876  12.297  0.0537 -0.1232  0.0338
 4164TIP3    H133983   2.115   0.937  12.251 -0.6149 -0.9883 -0.2846
 4164TIP3    H233984   2.128   0.856  12.379  1.4643  1.7988  1.3788
 4165TIP3   OH233985   6.378   1.364   1.416 -0.6068  0.6526 -0.3608
 4165TIP3    H133986   6.406   1.281   1.378 -1.5934  0.2985 -0.3567
 4165TIP3    H233987   6.431   1.430   1.372  1.2251 -0.0616  0.6557
 4166TIP3   OH233988   6.596   5.772  15.692 -0.0324  0.1290  0.5438
 4166TIP3    H133989   6.664   5.746  15.754  1.2005  0.7667 -0.4969
 4166TIP3    H233990   6.612   5.719  15.615  0.3222  1.4424 -0.3122
 4167TIP3   OH233991   0.269   3.185  14.082 -0.1288 -0.0309  0.1016
 4167TIP3    H133992   0.262   3.143  13.997 -0.4057 -0.5322  0.3680
 4167TIP3    H233993   0.354   3.158  14.115 -0.1734 -0.1263  0.1381
 4168TIP3   OH233994   1.826   0.142  10.708  0.2061 -0.1437  0.3211
 4168TIP3    H133995   1.811   0.106  10.621  0.5396 -1.9934  0.9866
 4168TIP3    H233996   1.743   0.184  10.731  0.0258  0.1261 -0.7616
 4169TIP3   OH233997   4.570   0.475  15.749  0.3863  0.3668  0.3822
 4169TIP3    H133998   4.529   0.405  15.699 -0.1364  1.0517 -0.1789
 4169TIP3    H233999   4.631   0.431  15.808  1.0718 -0.4667 -0.9068
 4170TIP3   OH234000   0.830   1.091  16.134 -0.2976  0.1398  0.1810
 4170TIP3    H134001   0.834   1.141  16.215 -0.3501  0.8312 -0.2312
 4170TIP3    H234002   0.919   1.092  16.100 -0.1946 -0.4745  0.4122
 4171TIP3   OH234003   0.617   4.373  14.314  0.0164 -0.8454  0.4373
 4171TIP3    H134004   0.662   4.428  14.377 -0.4257 -1.1035  0.9915
 4171TIP3    H234005   0.648   4.284  14.333  0.8852 -0.7832 -0.5853
 4172TIP3   OH234006   4.970   2.960   6.027 -0.0602  0.1367 -0.0095
 4172TIP3    H134007   4.888   2.984   6.070  1.2207  1.4116  1.8853
 4172TIP3    H234008   4.954   2.873   5.991 -2.2291  0.3535  0.3078
 4173TIP3   OH234009   6.697   6.015   5.643 -0.1877  0.0771 -0.3341
 4173TIP3    H134010   6.710   5.953   5.714  0.8976  1.0000  0.2977
 4173TIP3    H234011   6.626   6.072   5.673  0.8631  1.0187  0.4202
 4174TIP3   OH234012   5.651   3.982  10.856 -0.3304 -0.5086 -0.0995
 4174TIP3    H134013   5.596   4.056  10.882  0.3109 -0.2507  0.5346
 4174TIP3    H234014   5.629   3.967  10.764 -0.2365  0.6714 -0.3266
 4175TIP3   OH234015   2.176   3.093   4.643 -0.0421  0.0099 -0.5664
 4175TIP3    H134016   2.100   3.038   4.661  0.6690 -0.8924 -0.2442
 4175TIP3    H234017   2.250   3.032   4.643  0.7866  0.9953 -0.0494
 4176TIP3   OH234018   5.103   5.315   2.300 -0.0663  0.1612 -0.0028
 4176TIP3    H134019   5.122   5.405   2.273  1.7381  0.1983  1.1969
 4176TIP3    H234020   5.049   5.279   2.229  0.8744  1.5561 -1.4904
 4177TIP3   OH234021   6.481   0.994   2.370 -0.0136  0.1761 -0.5711
 4177TIP3    H134022   6.528   1.055   2.427  0.4589  0.8639 -1.6603
 4177TIP3    H234023   6.391   0.998   2.401  0.3990 -0.2169  0.7499
 4178TIP3   OH234024   5.648   3.550  14.639  0.2235  0.1210  0.1342
 4178TIP3    H134025   5.743   3.547  14.634  0.2531 -3.3154  0.4039
 4178TIP3    H234026   5.630   3.599  14.720  1.6606  1.7940 -0.4991
 4179TIP3   OH234027   6.313   2.771   0.441 -0.2193  0.3575  0.7269
 4179TIP3    H134028   6.244   2.751   0.504 -0.9268  1.8343  0.4556
 4179TIP3    H234029   6.367   2.837   0.485 -0.6853  1.3520 -0.1499
 4180TIP3   OH234030   3.141   2.347   5.711 -0.0086 -0.1240 -0.3723
 4180TIP3    H134031   3.077   2.416   5.691 -1.5607 -1.4516 -0.1733
 4180TIP3    H234032   3.088   2.275   5.746  1.9072 -0.2208  2.6130
 4181TIP3   OH234033   6.658   1.876   5.683  0.1976 -0.0023 -0.4182
 4181TIP3    H134034   6.608   1.815   5.628  0.2335  0.8187 -1.3888
 4181TIP3    H234035   6.678   1.826   5.762 -0.7636 -0.8715 -0.6996
 4182TIP3   OH234036   4.436   3.233   6.262 -0.3627 -0.2915 -0.4128
 4182TIP3    H134037   4.367   3.202   6.321 -1.5080  0.6480 -1.2092
 4182TIP3    H234038   4.455   3.322   6.292  0.2661 -0.4252 -0.4081
 4183TIP3   OH234039   3.167   1.690  14.708 -0.6059  0.2053 -0.0784
 4183TIP3    H134040   3.182   1.693  14.614  0.2792 -0.6320  0.0230
 4183TIP3    H234041   3.144   1.598  14.726  0.4523  0.0736  0.6890
 4184TIP3   OH234042   0.807   1.682  11.650  0.0132 -0.1848 -0.3124
 4184TIP3    H134043   0.770   1.642  11.728  0.3389 -1.3638 -0.7508
 4184TIP3    H234044   0.813   1.611  11.586 -0.5001  0.8061 -1.5167
 4185TIP3   OH234045   2.934   5.158   3.349 -0.0264  0.5719 -0.2129
 4185TIP3    H134046   2.877   5.235   3.358 -0.1706  0.4531 -0.1056
 4185TIP3    H234047   3.013   5.181   3.398 -0.4655  0.2649  0.6421
 4186TIP3   OH234048   2.898   1.617  15.252 -0.3555 -0.1908 -0.0173
 4186TIP3    H134049   2.936   1.678  15.316 -1.6130  1.9816 -1.2187
 4186TIP3    H234050   2.926   1.652  15.167 -1.3163 -1.1727 -0.7564
 4187TIP3   OH234051   0.999   5.888  13.837  0.1855 -0.8785 -0.1662
 4187TIP3    H134052   0.933   5.858  13.775 -0.6125 -1.3210  0.8723
 4187TIP3    H234053   1.007   5.817  13.901  1.4713 -0.7170 -0.1080
 4188TIP3   OH234054   6.426   1.495  14.572  0.4556  0.2059  0.0036
 4188TIP3    H134055   6.382   1.457  14.496  0.0523 -0.3501  0.4998
 4188TIP3    H234056   6.503   1.439  14.586  1.1798  1.0111 -0.6971
 4189TIP3   OH234057   0.402   4.003  11.560  0.4107  0.1774  0.5351
 4189TIP3    H134058   0.472   3.964  11.508 -0.5763  0.7863 -1.3492
 4189TIP3    H234059   0.338   4.034  11.496 -1.1552  0.4962  2.1388
 4190TIP3   OH234060   2.856   4.181  17.026  0.2577 -0.6273  0.1263
 4190TIP3    H134061   2.795   4.198  16.955 -1.0137  1.4086  1.5978
 4190TIP3    H234062   2.812   4.214  17.105  1.4774 -3.0265  1.9539
 4191TIP3   OH234063   4.312   2.868  13.399 -0.5552 -0.2064 -0.6253
 4191TIP3    H134064   4.326   2.927  13.325 -1.5437 -0.0794 -0.7268
 4191TIP3    H234065   4.375   2.897  13.465  0.8521 -0.7957 -1.6600
 4192TIP3   OH234066   0.705   3.401   0.462 -0.3556 -0.1797 -0.0851
 4192TIP3    H134067   0.649   3.343   0.513 -1.4294  2.9126  2.5987
 4192TIP3    H234068   0.792   3.391   0.500  0.2791 -2.2516 -1.8262
 4193TIP3   OH234069   0.987   0.305   6.507  0.1326  0.2397  0.5333
 4193TIP3    H134070   0.954   0.335   6.422  1.3057  0.5248  0.1687
 4193TIP3    H234071   0.959   0.213   6.512 -2.3233  0.9352  1.0782
 4194TIP3   OH234072   2.143   3.288  12.236 -0.0059  0.0170  0.0701
 4194TIP3    H134073   2.104   3.236  12.165 -0.0722 -0.4039  0.4058
 4194TIP3    H234074   2.071   3.302  12.297  0.5956 -1.7738  1.2747
 4195TIP3   OH234075   1.865   4.057   2.890  0.7516  0.4189 -0.0543
 4195TIP3    H134076   1.849   4.079   2.981  3.2490  2.2664  0.0547
 4195TIP3    H234077   1.928   3.985   2.893 -1.2503 -1.4612 -0.4226
 4196TIP3   OH234078   4.860   0.539   3.011  0.2007  0.0894 -0.1826
 4196TIP3    H134079   4.898   0.547   2.923 -1.0447  0.0794 -0.7520
 4196TIP3    H234080   4.771   0.507   2.995  0.1618 -0.4898  1.1352
 4197TIP3   OH234081   2.418   1.383  13.124  0.2090 -0.0029 -0.4874
 4197TIP3    H134082   2.479   1.382  13.198  1.9886 -0.6006 -1.9080
 4197TIP3    H234083   2.460   1.437  13.058 -0.9037 -0.2433 -1.4308
 4198TIP3   OH234084   3.045   1.362   0.030 -0.2764  0.1992 -0.1160
 4198TIP3    H134085   3.058   1.288   0.090 -0.7112 -1.1384 -1.6084
 4198TIP3    H234086   2.954   1.354   0.001 -0.0589  0.7814 -0.9925
 4199TIP3   OH234087   1.406   6.112   2.266  0.3450 -0.0995  0.2144
 4199TIP3    H134088   1.489   6.079   2.301  1.6228  1.6607 -0.9730
 4199TIP3    H234089   1.340   6.080   2.327  2.3179  2.0933  3.8923
 4200TIP3   OH234090   6.005   3.348   5.620  0.2022  0.4430  0.1802
 4200TIP3    H134091   6.066   3.303   5.678 -0.7327 -1.3125 -0.1301
 4200TIP3    H234092   5.961   3.412   5.676  1.5835  1.0419  0.6250
 4201TIP3   OH234093   2.857   1.655   3.244  0.0226 -0.8150  0.3718
 4201TIP3    H134094   2.890   1.723   3.185 -0.4678  0.9552  2.0124
 4201TIP3    H234095   2.893   1.573   3.210 -0.1915  0.1118 -2.3004
 4202TIP3   OH234096   5.357   6.174  13.805  0.3902 -0.9306  0.1334
 4202TIP3    H134097   5.343   6.265  13.830  1.7571 -1.0824  1.5363
 4202TIP3    H234098   5.433   6.176  13.748  1.9518 -1.4181  2.1057
 4203TIP3   OH234099   4.351   4.734   4.623  0.1295  0.3903 -0.3052
 4203TIP3    H134100   4.438   4.770   4.603  0.8770 -0.7920  0.6781
 4203TIP3    H234101   4.351   4.725   4.718 -0.0149 -2.1383 -0.4892
 4204TIP3   OH234102   4.808   6.133   2.322  0.1939 -0.5202  0.2273
 4204TIP3    H134103   4.769   6.046   2.319  0.6122 -0.7085  0.2743
 4204TIP3    H234104   4.868   6.135   2.247 -0.1733 -0.1000 -0.0672
 4205TIP3   OH234105   5.011   0.251  15.763 -0.6054  0.3345  0.2244
 4205TIP3    H134106   5.048   0.200  15.835 -1.2694 -2.3921 -1.1869
 4205TIP3    H234107   5.076   0.318  15.744  3.0920 -3.1857 -1.1121
 4206TIP3   OH234108   4.949   4.848   2.344 -0.6021  0.5221 -0.6832
 4206TIP3    H134109   4.931   4.921   2.403  0.4297 -0.6317  1.1903
 4206TIP3    H234110   4.994   4.887   2.269 -0.6341  1.8700 -0.0259
 4207TIP3   OH234111   6.475   1.374  12.470  0.0431 -0.8168 -0.3494
 4207TIP3    H134112   6.386   1.410  12.468  0.1693 -0.4518  0.3557
 4207TIP3    H234113   6.531   1.450  12.450  0.1324 -1.3456 -2.3297
 4208TIP3   OH234114   4.333   3.955  15.400  0.4017 -0.6830 -0.1402
 4208TIP3    H134115   4.409   4.013  15.401  0.3354 -0.6012  0.0643
 4208TIP3    H234116   4.272   3.993  15.464 -0.9034  0.7343 -2.0829
 4209TIP3   OH234117   5.436   2.227  12.160  0.6831 -0.5287 -0.7491
 4209TIP3    H134118   5.381   2.162  12.118  1.3023 -0.2348 -2.0517
 4209TIP3    H234119   5.516   2.180  12.184  0.1821 -0.7880  0.4996
 4210TIP3   OH234120   6.758   3.604  14.524 -0.3289 -0.2041  0.1125
 4210TIP3    H134121   6.787   3.564  14.442 -1.3449  1.6495 -1.2269
 4210TIP3    H234122   6.810   3.684  14.531 -1.6892  0.6991  0.1804
 4211TIP3   OH234123   5.359   6.018  12.327 -0.2120  0.2564  0.0065
 4211TIP3    H134124   5.347   5.972  12.243  1.4589  0.1369 -0.2089
 4211TIP3    H234125   5.270   6.036  12.357 -0.9643 -2.4547 -0.2803
 4212TIP3   OH234126   6.455   2.015   5.041 -0.2892 -0.1293 -0.2555
 4212TIP3    H134127   6.368   2.002   5.003 -0.1463 -0.4039 -0.4933
 4212TIP3    H234128   6.448   1.980   5.130 -0.9722  1.6064  0.4180
 4213TIP3   OH234129   4.388   2.300   2.540 -0.4047 -0.4638  0.4291
 4213TIP3    H134130   4.473   2.274   2.577  0.0092 -0.0039 -0.1820
 4213TIP3    H234131   4.410   2.347   2.460 -1.2993 -1.6896 -0.5745
 4214TIP3   OH234132   1.805   1.757   0.745  0.6525 -0.1106 -0.0260
 4214TIP3    H134133   1.863   1.771   0.821  0.7502  1.2977 -0.3432
 4214TIP3    H234134   1.735   1.702   0.779  1.6646 -1.0678  0.6121
 4215TIP3   OH234135   5.355   0.105  14.104 -0.3519 -0.1109  0.2032
 4215TIP3    H134136   5.312   0.133  14.023  0.5036  1.0102  0.0969
 4215TIP3    H234137   5.422   0.043  14.075 -0.5253 -0.2592  0.1232
 4216TIP3   OH234138   1.005   5.644  12.692 -0.2497 -0.1810 -0.6159
 4216TIP3    H134139   1.073   5.593  12.736 -0.2299 -0.3351 -0.8227
 4216TIP3    H234140   0.939   5.579  12.666 -0.1710 -0.1187 -0.9797
 4217TIP3   OH234141   4.213   4.407   0.626 -0.3619  0.0943 -0.2724
 4217TIP3    H134142   4.169   4.472   0.571  0.9161  1.3410  0.1117
 4217TIP3    H234143   4.213   4.446   0.713  0.5496 -0.3566 -0.0598
 4218TIP3   OH234144   2.212   3.015  16.141  0.1500 -0.0605  0.5303
 4218TIP3    H134145   2.265   3.080  16.186 -0.8689 -0.1260  1.8923
 4218TIP3    H234146   2.247   3.012  16.052  0.6050  1.9000  0.6100
 4219TIP3   OH234147   2.797   4.294  11.617 -0.2361 -0.1264 -0.5527
 4219TIP3    H134148   2.823   4.353  11.545 -1.0235 -0.9464 -1.5315
 4219TIP3    H234149   2.877   4.244  11.636  0.3448  0.9803  0.0530
 4220TIP3   OH234150   0.191   4.248   6.058 -0.3180 -0.1676 -0.0104
 4220TIP3    H134151   0.259   4.298   6.103 -1.0171  0.4882  0.3470
 4220TIP3    H234152   0.155   4.191   6.125 -1.6586  1.1220  0.4250
 4221TIP3   OH234153   1.227   4.736   3.199  0.4175 -0.0545 -0.4826
 4221TIP3    H134154   1.273   4.816   3.227 -1.4517  0.5328  1.1478
 4221TIP3    H234155   1.196   4.757   3.111 -1.1813  1.6319  0.3960
 4222TIP3   OH234156   3.672   2.769  13.565  0.4401  0.3898 -0.2185
 4222TIP3    H134157   3.583   2.790  13.537  0.8440  0.1308 -1.7903
 4222TIP3    H234158   3.672   2.674  13.574  0.7904  0.2981 -1.1206
 4223TIP3   OH234159   0.660   4.797   2.094  0.0042  0.3428  0.0523
 4223TIP3    H134160   0.683   4.704   2.092  0.7912  0.5433 -0.3025
 4223TIP3    H234161   0.565   4.798   2.079  0.3206 -0.2744 -2.3463
 4224TIP3   OH234162   3.300   5.742   2.934  0.0030  0.2353 -0.1217
 4224TIP3    H134163   3.370   5.731   2.870 -0.9415  1.5726 -1.4378
 4224TIP3    H234164   3.302   5.835   2.958 -2.4078  0.7388 -1.5573
 4225TIP3   OH234165   4.322   4.378  13.797  0.3854 -0.4413  0.1097
 4225TIP3    H134166   4.415   4.371  13.776  0.3585 -0.4423 -0.0113
 4225TIP3    H234167   4.299   4.291  13.831  0.9077  0.1641  2.1137
 4226TIP3   OH234168   0.277   6.451   1.478 -0.0806  0.0573  0.2762
 4226TIP3    H134169   0.258   6.544   1.487 -0.9248 -0.0942  0.0716
 4226TIP3    H234170   0.344   6.434   1.544  0.0434  0.7973  0.3477
 4227TIP3   OH234171   1.981   5.608   0.967 -0.5845  0.3160  0.3825
 4227TIP3    H134172   1.973   5.700   0.991 -1.5195  0.8191 -1.6158
 4227TIP3    H234173   2.075   5.591   0.967 -0.3672  1.4532  0.1697
 4228TIP3   OH234174   0.629   5.062   0.439  0.2377 -0.0040  0.0581
 4228TIP3    H134175   0.688   5.097   0.507  0.8666  2.0474 -1.4524
 4228TIP3    H234176   0.688   5.019   0.377 -0.1337 -0.2073 -0.1546
 4229TIP3   OH234177   0.649   6.242  11.824 -0.5702  0.1275 -0.4423
 4229TIP3    H134178   0.673   6.152  11.806 -2.4984 -0.6587  0.6231
 4229TIP3    H234179   0.729   6.282  11.858  0.2495 -1.2460 -0.6892
 4230TIP3   OH234180   4.128   4.812   2.456  0.1889  0.6062 -0.3867
 4230TIP3    H134181   4.134   4.884   2.519  0.4572  1.6582 -1.5797
 4230TIP3    H234182   4.219   4.786   2.441  0.0411 -1.2138  1.3345
 4231TIP3   OH234183   3.630   5.832   2.147  0.2543  0.1712 -0.9655
 4231TIP3    H134184   3.539   5.852   2.124  0.0848  0.2769 -0.2555
 4231TIP3    H234185   3.670   5.918   2.158  0.2133  0.1288 -0.4550
 4232TIP3   OH234186   4.496   5.525  10.830 -0.0797 -0.1990 -0.3829
 4232TIP3    H134187   4.424   5.583  10.806 -1.3383 -1.8813 -0.8136
 4232TIP3    H234188   4.557   5.531  10.756  0.0758  0.9203 -0.1930
 4233TIP3   OH234189   1.178   4.738  15.236  0.3427 -0.0519  0.8297
 4233TIP3    H134190   1.143   4.728  15.325 -2.4201  0.8622 -0.0449
 4233TIP3    H234191   1.121   4.802  15.195  0.7746 -1.3196 -1.9910
 4234TIP3   OH234192   0.394   3.544  11.122  0.3676  0.2141  0.1340
 4234TIP3    H134193   0.476   3.535  11.170  1.1161 -3.0010 -1.4441
 4234TIP3    H234194   0.411   3.503  11.037 -2.1803  1.6859 -1.2117
 4235TIP3   OH234195   0.465   4.284  12.928  0.2806 -0.1148 -0.3929
 4235TIP3    H134196   0.498   4.231  13.000  0.9090  1.1299  0.2664
 4235TIP3    H234197   0.521   4.261  12.854 -0.5266 -1.5852 -0.5988
 4236TIP3   OH234198   4.669   2.996   4.057  0.2242  0.6141  0.0253
 4236TIP3    H134199   4.655   2.965   3.968  1.2309  1.1044 -0.3196
 4236TIP3    H234200   4.668   3.092   4.050  1.1667  0.6596  0.3822
 4237TIP3   OH234201   3.970   0.326  12.085 -0.0700 -0.3750  0.8675
 4237TIP3    H134202   3.921   0.337  12.167  0.5935  0.3970  1.1755
 4237TIP3    H234203   4.041   0.266  12.107  0.4428  0.2732  1.0191
 4238TIP3   OH234204   0.162   0.598   1.193 -0.4221 -0.1350 -0.7547
 4238TIP3    H134205   0.204   0.682   1.212  0.3997 -0.5781 -0.5894
 4238TIP3    H234206   0.184   0.543   1.267 -0.0666 -0.8186 -1.3540
 4239TIP3   OH234207   2.247   1.073  13.596  0.0611 -0.2671  0.5425
 4239TIP3    H134208   2.338   1.094  13.578  0.2077  1.0632  2.5632
 4239TIP3    H234209   2.197   1.137  13.544  0.2392 -0.8826 -0.4222
 4240TIP3   OH234210   4.022   3.195   0.911  0.0031 -0.4860 -0.3317
 4240TIP3    H134211   4.025   3.283   0.875 -0.9926 -0.2803  0.0532
 4240TIP3    H234212   4.111   3.180   0.944  0.9984 -0.7608 -2.9452
 4241TIP3   OH234213   0.834   2.264   1.648 -0.0506  0.3469  0.2967
 4241TIP3    H134214   0.804   2.200   1.584  0.0193 -1.2015  1.7358
 4241TIP3    H234215   0.913   2.302   1.610  0.1616 -0.7605 -0.3973
 4242TIP3   OH234216   3.415   3.144  13.973 -0.3720 -0.0835 -0.1397
 4242TIP3    H134217   3.493   3.090  13.959 -0.8126 -1.4032  1.9910
 4242TIP3    H234218   3.445   3.214  14.031 -0.5036  0.0594 -0.2457
 4243TIP3   OH234219   0.002   6.420  14.113  0.3129 -0.2385  0.1719
 4243TIP3    H134220   0.022   6.501  14.160 -1.0651  2.2977 -3.2250
 4243TIP3    H234221   0.084   6.396  14.071  0.4686 -0.0280  0.3518
 4244TIP3   OH234222   1.951   0.692   2.033 -0.3214 -0.1643  0.7924
 4244TIP3    H134223   1.966   0.756   1.963 -1.7943  1.7833  2.1290
 4244TIP3    H234224   1.892   0.627   1.994  0.9886 -0.5964 -0.5204
 4245TIP3   OH234225   6.866   6.188  16.933  0.3630  0.9769 -1.1668
 4245TIP3    H134226   6.932   6.135  16.888  1.3409  1.0147  0.1619
 4245TIP3    H234227   6.786   6.135  16.928  0.7853  0.3705 -1.7354
 4246TIP3   OH234228   3.202   1.169  14.195  0.6099  0.0396  0.1617
 4246TIP3    H134229   3.136   1.155  14.263  0.9941 -0.5257  0.4277
 4246TIP3    H234230   3.255   1.241  14.228  0.2651  0.3524  0.0464
 4247TIP3   OH234231   1.817   1.436   3.089  0.2077 -0.3642  0.1929
 4247TIP3    H134232   1.905   1.427   3.054 -0.1103  0.0244 -0.7291
 4247TIP3    H234233   1.795   1.349   3.121  0.2701 -0.8986 -1.1612
 4248TIP3   OH234234   2.941   5.732  15.744 -0.1256  0.9407  0.3222
 4248TIP3    H134235   2.897   5.796  15.689  0.7761  1.4020  0.1264
 4248TIP3    H234236   2.872   5.671  15.770 -0.6042  0.8425 -1.1302
 4249TIP3   OH234237   2.004   2.350   4.615 -0.4476 -0.3036 -0.9583
 4249TIP3    H134238   2.050   2.274   4.651 -0.4522 -0.0604 -0.4282
 4249TIP3    H234239   2.035   2.356   4.525 -1.0577 -1.4178 -1.2659
 4250TIP3   OH234240   4.384   1.450   5.184 -0.0528 -0.8295 -0.2143
 4250TIP3    H134241   4.459   1.403   5.221 -1.1028 -2.8942 -0.5619
 4250TIP3    H234242   4.409   1.543   5.190  2.9778 -1.4451 -1.3482
 4251TIP3   OH234243   0.338   3.097   1.727  0.0896  0.0816 -0.7708
 4251TIP3    H134244   0.385   3.177   1.707  0.1794  0.5874  1.2904
 4251TIP3    H234245   0.248   3.114   1.699  0.2768  0.5976 -1.0596
 4252TIP3   OH234246   0.879   6.366   5.673  0.4047  0.3842  0.4042
 4252TIP3    H134247   0.826   6.435   5.634  0.6337  0.2678 -0.1212
 4252TIP3    H234248   0.819   6.318   5.731 -0.1697  0.0040 -0.4874
 4253TIP3   OH234249   4.953   2.893   5.671  0.1924 -0.2745  0.2156
 4253TIP3    H134250   5.027   2.896   5.732  0.7778 -2.1085 -0.3443
 4253TIP3    H234251   4.876   2.908   5.726  0.6837 -2.1610  1.5076
 4254TIP3   OH234252   5.871   4.141   3.643  0.3332  0.0611  0.0512
 4254TIP3    H134253   5.958   4.111   3.618  0.0171  0.1785 -1.2558
 4254TIP3    H234254   5.881   4.235   3.659  0.3241  0.2097 -0.7666
 4255TIP3   OH234255   6.431   5.733   3.562  0.6324  0.0847 -0.2139
 4255TIP3    H134256   6.392   5.677   3.630 -0.2542  1.5122  0.4994
 4255TIP3    H234257   6.461   5.811   3.609 -0.8817  1.5455 -1.5462
 4256TIP3   OH234258   0.921   1.202   3.573 -0.3950 -0.4887 -0.0548
 4256TIP3    H134259   0.996   1.149   3.599  0.6864  0.9883 -0.0541
 4256TIP3    H234260   0.925   1.203   3.477  1.3825  1.9459 -0.0495
 4257TIP3   OH234261   3.420   5.572  15.145 -0.2630  0.6584 -0.4425
 4257TIP3    H134262   3.361   5.535  15.079 -1.6064  2.2555 -0.2052
 4257TIP3    H234263   3.506   5.573  15.103 -0.5017 -1.1011 -1.0508
 4258TIP3   OH234264   4.306   1.015   2.186 -0.5220 -0.1939 -0.0960
 4258TIP3    H134265   4.362   1.013   2.109 -0.8976  0.0976 -0.3877
 4258TIP3    H234266   4.327   0.936   2.234 -0.0693 -0.2285 -0.3497
 4259TIP3   OH234267   6.577   3.175  13.065 -0.6988 -0.4047 -0.8374
 4259TIP3    H134268   6.523   3.221  13.130 -0.1305  0.5806 -1.0381
 4259TIP3    H234269   6.665   3.210  13.079  0.0499 -2.4576 -0.0665
 4260TIP3   OH234270   0.768   5.207   4.986 -0.7263  0.2969 -0.5087
 4260TIP3    H134271   0.811   5.132   5.027 -0.6201  0.0002 -1.1612
 4260TIP3    H234272   0.720   5.171   4.912 -1.9357  0.6528  0.0645
 4261TIP3   OH234273   6.462   1.183   4.212  0.5293 -0.4402 -0.1542
 4261TIP3    H134274   6.474   1.127   4.135  2.3369 -1.5042  0.8277
 4261TIP3    H234275   6.380   1.152   4.251 -0.3912  0.0771 -1.5599
 4262TIP3   OH234276   5.756   1.855   5.210  0.2759 -0.0601  0.1351
 4262TIP3    H134277   5.724   1.779   5.161  1.6393  0.1062 -1.0774
 4262TIP3    H234278   5.696   1.925   5.188 -0.9991 -0.7368  1.2653
 4263TIP3   OH234279   1.101   6.611  11.399 -0.3096  0.1816 -0.1816
 4263TIP3    H134280   1.008   6.596  11.412 -0.0690 -1.5576 -0.3125
 4263TIP3    H234281   1.138   6.605  11.487 -0.1942 -0.0479 -0.2465
 4264TIP3   OH234282   0.346   2.260  16.660  0.3977 -0.2118  0.9501
 4264TIP3    H134283   0.294   2.340  16.664  0.6657 -0.0095  0.4314
 4264TIP3    H234284   0.428   2.286  16.620  0.0354 -0.9715 -0.3464
 4265TIP3   OH234285   1.025   1.590  16.648  0.4342  0.1142  0.5280
 4265TIP3    H134286   0.945   1.538  16.653 -0.0680  0.7090 -1.0380
 4265TIP3    H234287   0.997   1.675  16.615  1.7388  0.2511 -0.2865
 4266TIP3   OH234288   4.999   0.393  15.398 -0.3370 -0.3033 -0.2762
 4266TIP3    H134289   4.941   0.437  15.460 -0.5441 -1.5961  0.4845
 4266TIP3    H234290   4.950   0.392  15.316 -0.4147  0.6501 -0.2591
 4267TIP3   OH234291   2.589   2.171  12.742  0.4019 -0.1230  0.3618
 4267TIP3    H134292   2.631   2.180  12.657 -0.1020  2.5868  0.3142
 4267TIP3    H234293   2.496   2.183  12.724  0.0773 -1.3216  1.0957
 4268TIP3   OH234294   6.350   5.887   0.475 -0.3340 -1.0294  0.2963
 4268TIP3    H134295   6.392   5.823   0.417  0.6076 -0.5046  0.3866
 4268TIP3    H234296   6.257   5.867   0.468 -0.1687 -1.5426 -0.7235
 4269TIP3   OH234297   2.428   2.788   5.889  0.2084  0.9143  0.2759
 4269TIP3    H134298   2.514   2.783   5.930  0.0807  1.5281  0.6188
 4269TIP3    H234299   2.366   2.763   5.958  0.0645  1.0868  0.2116
 4270TIP3   OH234300   4.657   1.608  15.762  0.2068 -0.4299  0.3815
 4270TIP3    H134301   4.722   1.556  15.713 -0.8703  0.7938 -2.5956
 4270TIP3    H234302   4.574   1.562  15.748  0.0887 -1.0188  2.6817
 4271TIP3   OH234303   5.746   0.497   0.476 -0.0279 -0.1826 -0.1094
 4271TIP3    H134304   5.798   0.484   0.397 -0.0885  0.0855 -0.1980
 4271TIP3    H234305   5.781   0.578   0.514 -1.4210  0.9076 -1.0317
 4272TIP3   OH234306   6.649   4.365  14.287 -0.3335 -0.3483  0.1858
 4272TIP3    H134307   6.675   4.421  14.214 -1.6154  0.3137  0.2198
 4272TIP3    H234308   6.586   4.417  14.337 -0.5475 -1.3222  0.9660
 4273TIP3   OH234309   3.206   5.712  15.632  0.0906  0.0855  0.4875
 4273TIP3    H134310   3.188   5.786  15.574  0.1844 -0.3773 -0.1391
 4273TIP3    H234311   3.123   5.694  15.675  0.0881  0.6086  0.7113
 4274TIP3   OH234312   6.653   3.182  14.024 -0.0514  0.2576  0.6473
 4274TIP3    H134313   6.621   3.093  14.037  0.2610 -0.1228 -0.9301
 4274TIP3    H234314   6.712   3.175  13.949  0.9200  1.5840  1.2619
 4275TIP3   OH234315   0.822   2.165   1.359 -0.2038 -0.2409 -0.0176
 4275TIP3    H134316   0.894   2.126   1.310 -0.3011  0.3476 -0.6563
 4275TIP3    H234317   0.798   2.243   1.308  0.3565  0.9938  1.4931
 4276TIP3   OH234318   4.504   6.055  11.654 -0.0506 -0.5642 -0.4649
 4276TIP3    H134319   4.552   6.076  11.573 -0.7172 -0.0951 -0.7440
 4276TIP3    H234320   4.413   6.077  11.634 -0.1794 -0.1801  0.5133
 4277TIP3   OH234321   3.528   2.302  14.487  0.3229  0.0842 -0.2653
 4277TIP3    H134322   3.474   2.379  14.502  1.4104  0.4693  2.0050
 4277TIP3    H234323   3.522   2.287  14.392  0.2064  3.0370 -0.8275
 4278TIP3   OH234324   2.946   4.663  13.849 -0.5097 -0.3036  0.4020
 4278TIP3    H134325   2.925   4.570  13.858  2.4704 -1.2169 -1.0466
 4278TIP3    H234326   3.013   4.667  13.781 -0.5577  2.9398  0.3836
 4279TIP3   OH234327   1.273   2.651   2.209  0.2984 -0.6245  0.6367
 4279TIP3    H134328   1.333   2.612   2.146 -0.2855 -1.3386  0.5030
 4279TIP3    H234329   1.329   2.692   2.274  0.9158 -0.4890  0.0319
 4280TIP3   OH234330   5.711   6.049   5.135 -0.2966  0.6158 -0.1953
 4280TIP3    H134331   5.711   6.144   5.136  0.1986  0.6182  0.4038
 4280TIP3    H234332   5.659   6.024   5.211  1.6654  0.4411  1.1675
 4281TIP3   OH234333   0.413   5.872  11.278 -0.1124 -0.4961  0.1634
 4281TIP3    H134334   0.471   5.929  11.329  0.3783 -0.7144 -0.1570
 4281TIP3    H234335   0.341   5.852  11.339 -0.8116  1.2464 -0.0020
 4282TIP3   OH234336   3.481   2.703  11.825 -0.0838 -0.0786  0.0555
 4282TIP3    H134337   3.399   2.668  11.789  0.7500 -1.0056 -0.9867
 4282TIP3    H234338   3.486   2.666  11.913 -0.3562 -0.7376 -0.2004
 4283TIP3   OH234339   5.370   6.635  14.141 -0.0422 -0.7138 -0.2195
 4283TIP3    H134340   5.328   6.549  14.146  1.1399 -1.2483  1.1495
 4283TIP3    H234341   5.463   6.617  14.155  0.3299  0.7199 -0.6835
 4284TIP3   OH234342   4.616   0.665  15.043  0.1836  0.2395 -0.1704
 4284TIP3    H134343   4.650   0.609  15.113  2.1458  1.8359  0.2664
 4284TIP3    H234344   4.655   0.630  14.963  0.5732  0.3292 -0.0246
 4285TIP3   OH234345   6.296   1.892  12.170  0.2716 -0.1208  0.0592
 4285TIP3    H134346   6.291   1.853  12.258 -0.5880 -0.9583 -0.3424
 4285TIP3    H234347   6.293   1.986  12.186 -1.7390 -0.2609  0.8648
 4286TIP3   OH234348   4.647   1.260   4.688  0.7230 -0.4189 -0.3632
 4286TIP3    H134349   4.591   1.209   4.630  0.9353 -2.0300  0.7850
 4286TIP3    H234350   4.702   1.312   4.629 -2.0568  1.4406 -1.5431
 4287TIP3   OH234351   3.225   5.705   2.307 -0.3657 -0.2299 -0.2621
 4287TIP3    H134352   3.294   5.639   2.310  0.5237  0.6110  3.5501
 4287TIP3    H234353   3.250   5.763   2.235  2.8171 -0.1826  0.7013
 4288TIP3   OH234354   4.220   5.588   6.024 -0.2849 -0.1449 -0.4985
 4288TIP3    H134355   4.235   5.574   5.930  0.3129 -1.5208 -0.2176
 4288TIP3    H234356   4.304   5.618   6.057 -1.0537  2.5796 -0.7435
 4289TIP3   OH234357   1.537   6.794   3.575 -0.8498  0.1304  0.0570
 4289TIP3    H134358   1.567   6.775   3.663  2.3025  0.1124 -0.8958
 4289TIP3    H234359   1.477   6.723   3.554  1.2619 -2.0606  0.9047
 4290TIP3   OH234360   5.275   4.620  13.960 -0.2451 -0.0295 -0.2206
 4290TIP3    H134361   5.311   4.664  13.882  1.1667  1.5888  1.2747
 4290TIP3    H234362   5.309   4.531  13.954 -1.4876 -0.4459 -2.2524
 4291TIP3   OH234363   0.660   3.850   4.574  0.2534  0.3363 -0.1875
 4291TIP3    H134364   0.610   3.885   4.648  2.8966  1.1102  1.3864
 4291TIP3    H234365   0.691   3.765   4.605 -1.5065 -0.9727 -1.8437
 4292TIP3   OH234366   2.286   3.445   0.012  0.0173 -0.2474  0.0973
 4292TIP3    H134367   2.350   3.427  -0.057  1.2367  1.9667  0.5598
 4292TIP3    H234368   2.313   3.530   0.048 -1.0663 -0.9513  2.7647
 4293TIP3   OH234369   6.506   3.313   0.274 -0.4413  0.2610 -0.2318
 4293TIP3    H134370   6.418   3.350   0.265  0.7687  2.9845 -2.5919
 4293TIP3    H234371   6.539   3.349   0.356 -1.0516  0.3887 -0.0383
 4294TIP3   OH234372   5.834   4.391  11.074  0.7036 -0.0594 -0.1542
 4294TIP3    H134373   5.813   4.478  11.108  1.0685  1.1693 -2.7604
 4294TIP3    H234374   5.753   4.361  11.033  1.2144  0.1710 -1.3811
 4295TIP3   OH234375   5.396   3.630   4.969  0.4121  0.4200 -0.5725
 4295TIP3    H134376   5.347   3.548   4.974  2.3342 -0.8096 -0.8569
 4295TIP3    H234377   5.479   3.610   5.013  1.1700  2.0256 -1.2241
 4296TIP3   OH234378   3.791   1.555  13.967 -0.9799 -0.6503 -0.0654
 4296TIP3    H134379   3.814   1.645  13.944 -0.9220 -0.4857  0.6199
 4296TIP3    H234380   3.867   1.503  13.941 -1.2603 -0.6026 -1.0510
 4297TIP3   OH234381   4.320   4.676  14.619 -0.1522  0.1259 -0.5525
 4297TIP3    H134382   4.415   4.685  14.626  0.0130 -0.3653 -1.8128
 4297TIP3    H234383   4.290   4.663  14.709  0.9687  0.2794 -0.1355
 4298TIP3   OH234384   2.160   5.445  15.753  0.2687  0.0375  0.1065
 4298TIP3    H134385   2.235   5.387  15.745  1.6599  1.8788 -0.9431
 4298TIP3    H234386   2.189   5.528  15.716 -2.7262  0.4352 -1.7618
 4299TIP3   OH234387   2.640   6.125   3.413 -0.0026 -0.4991  0.1626
 4299TIP3    H134388   2.604   6.208   3.383  1.3669  0.5277  1.2073
 4299TIP3    H234389   2.643   6.070   3.335 -1.0496  0.3815 -0.5242
 4300TIP3   OH234390   4.661   4.478   3.679 -0.2361  0.0326 -0.3093
 4300TIP3    H134391   4.631   4.397   3.637  0.3191 -0.0092 -0.6353
 4300TIP3    H234392   4.590   4.540   3.665 -1.8907 -1.0985  2.2426
 4301TIP3   OH234393   0.310   3.633   3.308 -0.3395  0.3392 -0.8764
 4301TIP3    H134394   0.372   3.670   3.245  1.2757 -0.1767  0.3702
 4301TIP3    H234395   0.248   3.583   3.254  1.4772 -0.7842 -2.0152
 4302TIP3   OH234396   3.075   1.200  14.996  0.0489 -0.6520  0.3769
 4302TIP3    H134397   3.020   1.275  14.975  0.8011  0.0229  0.7750
 4302TIP3    H234398   3.072   1.145  14.918  0.1275  0.1826 -0.2231
 4303TIP3   OH234399   0.475   3.010  11.678 -0.1802  0.6112 -0.6086
 4303TIP3    H134400   0.550   3.058  11.644 -0.2658  0.2952 -1.2637
 4303TIP3    H234401   0.474   3.029  11.772 -0.7702  2.6778 -0.9883
 4304TIP3   OH234402   2.064   3.532  15.740  0.4260 -0.3625 -0.2397
 4304TIP3    H134403   2.159   3.537  15.737  0.4472 -1.1453 -1.6036
 4304TIP3    H234404   2.044   3.512  15.832  1.7386 -3.1196 -0.4687
 4305TIP3   OH234405   3.765   2.821   5.171  0.3852 -0.4957  0.0594
 4305TIP3    H134406   3.764   2.895   5.232  0.7298  0.4925 -1.0902
 4305TIP3    H234407   3.852   2.823   5.132  1.0421 -2.6040  1.2476
 4306TIP3   OH234408   5.732   2.594  15.720 -0.6321 -0.3562  0.2019
 4306TIP3    H134409   5.779   2.578  15.639 -1.9239  0.6004 -0.7792
 4306TIP3    H234410   5.669   2.522  15.726 -3.1813  1.5167 -1.7375
 4307TIP3   OH234411   4.030   1.110  17.000  0.2125  0.2915  0.3253
 4307TIP3    H134412   3.980   1.064  16.932  0.1223 -0.0385  0.6124
 4307TIP3    H234413   4.081   1.041  17.043  1.9133  0.7647 -0.7909
 4308TIP3   OH234414   5.087   4.375   5.343  0.6916 -0.6034  0.1716
 4308TIP3    H134415   5.166   4.375   5.396  1.2379  0.1200 -0.6160
 4308TIP3    H234416   5.091   4.457   5.293 -0.9702 -0.1356  0.7246
 4309TIP3   OH234417   6.042   3.471  15.599  0.1000  0.1348  0.0379
 4309TIP3    H134418   6.050   3.565  15.614  1.4517  0.0246  0.1270
 4309TIP3    H234419   6.017   3.464  15.507 -2.1518  0.6195  0.5611
 4310TIP3   OH234420   3.162   2.733   0.590 -0.0251  0.3058  0.4927
 4310TIP3    H134421   3.132   2.792   0.659  0.1400  1.0572 -0.0658
 4310TIP3    H234422   3.230   2.680   0.631  0.8991  1.5409  0.6164
 4311TIP3   OH234423   0.831   4.469  15.735  0.0635  0.4990 -0.0550
 4311TIP3    H134424   0.779   4.425  15.802 -0.3936 -0.0149 -0.7269
 4311TIP3    H234425   0.907   4.502  15.781 -0.1203 -0.0637  0.6724
 4312TIP3   OH234426   0.785   4.696   2.440 -0.5188 -0.2119 -0.5266
 4312TIP3    H134427   0.808   4.718   2.530 -3.4567 -2.7963  1.0692
 4312TIP3    H234428   0.713   4.755   2.419 -0.7541 -0.5260 -0.6157
 4313TIP3   OH234429   4.715   5.101  13.268  0.1241  0.3188 -0.7569
 4313TIP3    H134430   4.629   5.102  13.226 -0.6961 -0.5728  0.8130
 4313TIP3    H234431   4.769   5.160  13.215 -2.0476  2.6557 -0.5396
 4314TIP3   OH234432   1.742   0.875  16.347  0.5406  0.0993 -0.2653
 4314TIP3    H134433   1.666   0.817  16.344  0.2195  0.4765  0.5043
 4314TIP3    H234434   1.815   0.818  16.371  0.1877  0.0410  0.6983
 4315TIP3   OH234435   1.224   1.628   0.948 -0.5896  0.5127  0.3264
 4315TIP3    H134436   1.183   1.604   0.865  0.4216 -0.1369 -0.0099
 4315TIP3    H234437   1.154   1.671   0.998 -1.6443 -0.4847 -0.2395
 4316TIP3   OH234438   6.374   0.096   1.695 -0.2907  0.9191 -0.1941
 4316TIP3    H134439   6.388   0.172   1.637 -2.1301  1.8076  0.4560
 4316TIP3    H234440   6.346   0.026   1.636  0.5194  1.0060 -0.6936
 4317TIP3   OH234441   5.086   1.564  11.924  0.1904  0.0588  0.1743
 4317TIP3    H134442   5.160   1.566  11.984 -0.4807  2.2184  1.0273
 4317TIP3    H234443   5.009   1.556  11.981 -0.3026 -2.4156 -0.6990
 4318TIP3   OH234444   1.866   2.012   3.315  0.3663  0.3069 -0.5768
 4318TIP3    H134445   1.889   1.956   3.241 -0.1333 -0.9448  0.1767
 4318TIP3    H234446   1.910   2.095   3.297  2.2412 -0.7325 -1.1010
 4319TIP3   OH234447   3.893   5.398   0.519 -0.4365  0.5440  0.3173
 4319TIP3    H134448   3.988   5.410   0.522 -0.2770 -0.2727 -0.8410
 4319TIP3    H234449   3.873   5.382   0.427 -1.4705 -0.9084  0.7437
 4320TIP3   OH234450   4.738   5.423   9.958  0.9728  0.8175 -0.1794
 4320TIP3    H134451   4.799   5.356   9.989 -0.4683 -0.8435 -0.7452
 4320TIP3    H234452   4.781   5.506   9.977  2.8033 -0.2608  0.6225
 4321TIP3   OH234453   1.522   3.939  16.300  0.1910  0.2067  0.2989
 4321TIP3    H134454   1.600   3.995  16.308 -0.6314  1.6581 -1.3000
 4321TIP3    H234455   1.465   3.986  16.239 -2.6756 -0.0000  2.6125
 4322TIP3   OH234456   3.852   3.399  13.623 -0.8704  0.2441 -0.3795
 4322TIP3    H134457   3.878   3.474  13.676  0.8886 -1.1523  0.8248
 4322TIP3    H234458   3.913   3.398  13.550 -0.5122 -0.3485 -0.0758
 4323TIP3   OH234459   5.865   4.462   4.409 -0.1850 -0.1965 -0.0677
 4323TIP3    H134460   5.853   4.534   4.471 -0.7150 -1.6719  1.6013
 4323TIP3    H234461   5.777   4.434   4.387  0.0065  0.0347 -1.1907
 4324TIP3   OH234462   3.783   2.343  13.919 -0.4882  0.3920 -0.0952
 4324TIP3    H134463   3.756   2.435  13.915  0.9131  0.8279 -0.1005
 4324TIP3    H234464   3.811   2.331  14.010 -0.7915 -0.0765 -0.0607
 4325TIP3   OH234465   2.032   2.531   3.150  0.1091 -0.2965 -0.1337
 4325TIP3    H134466   2.012   2.587   3.225 -1.9998  0.3679 -1.0976
 4325TIP3    H234467   2.116   2.490   3.172 -1.1033 -1.3045  3.2426
 4326TIP3   OH234468   3.232   0.146  15.512 -0.5942  0.1565 -0.2530
 4326TIP3    H134469   3.269   0.154  15.600 -0.8302  0.8043 -0.2055
 4326TIP3    H234470   3.144   0.183  15.519 -0.7691 -0.1682 -0.6680
 4327TIP3   OH234471   5.337   5.683  14.432 -0.1503  1.0352 -0.0421
 4327TIP3    H134472   5.281   5.673  14.355 -1.7069 -0.3399  1.2009
 4327TIP3    H234473   5.411   5.624  14.416 -0.7473  0.3300 -0.2519
 4328TIP3   OH234474   3.341   5.123  11.961 -0.0376  0.2937 -0.5033
 4328TIP3    H134475   3.298   5.050  12.006 -1.2477  1.0209 -0.4472
 4328TIP3    H234476   3.334   5.101  11.868  0.5578 -0.1650 -0.4491
 4329TIP3   OH234477   6.540   5.251   1.190 -0.0568  0.4613 -0.2665
 4329TIP3    H134478   6.578   5.208   1.113 -2.1782 -0.3989 -0.9063
 4329TIP3    H234479   6.512   5.337   1.159 -1.7511 -0.2271 -0.7727
 4330TIP3   OH234480   4.589   5.527   5.823 -0.0036  0.0304  0.2292
 4330TIP3    H134481   4.655   5.576   5.773 -0.2832 -0.0681 -0.2493
 4330TIP3    H234482   4.511   5.583   5.821 -0.1799 -0.2153  0.0853
 4331TIP3   OH234483   4.037   1.210   4.426  0.1518  0.3263  0.1213
 4331TIP3    H134484   4.009   1.225   4.516  2.5193  1.0387  0.7952
 4331TIP3    H234485   4.111   1.151   4.433  0.3216  0.3188 -1.3739
 4332TIP3   OH234486   5.730   4.077   4.383  0.1819 -0.0159  0.1356
 4332TIP3    H134487   5.823   4.100   4.374  0.3525 -0.4514  0.6861
 4332TIP3    H234488   5.692   4.096   4.298  0.5767  1.0729  0.1799
 4333TIP3   OH234489   6.369   0.173  15.738 -0.0009 -0.0975  0.4208
 4333TIP3    H134490   6.401   0.259  15.766  3.1410 -0.9569 -0.1119
 4333TIP3    H234491   6.333   0.188  15.651 -1.4955  0.9898  1.1800
 4334TIP3   OH234492   3.269   5.651   0.793  0.9248 -0.2434 -0.1662
 4334TIP3    H134493   3.364   5.665   0.797  1.2049 -1.7533 -0.5450
 4334TIP3    H234494   3.234   5.733   0.760  1.9849  0.6893  0.9101
 4335TIP3   OH234495   3.008   1.094   2.967 -0.2293 -0.2268 -0.1953
 4335TIP3    H134496   3.084   1.147   2.993 -0.5706  1.2539 -2.0152
 4335TIP3    H234497   2.934   1.135   3.010 -0.1836 -0.8452  0.4879
 4336TIP3   OH234498   3.599   3.655  16.373 -0.0224 -0.6003 -0.0026
 4336TIP3    H134499   3.668   3.649  16.438 -0.0201 -0.8062 -0.0220
 4336TIP3    H234500   3.559   3.741  16.386  1.9885  0.7041 -1.7603
 4337TIP3   OH234501   3.894   0.710  15.778 -0.1391 -0.3737 -0.2005
 4337TIP3    H134502   3.827   0.772  15.750 -0.5172  0.2533  1.9025
 4337TIP3    H234503   3.958   0.708  15.707 -1.1426  0.8990 -1.1615
 4338TIP3   OH234504   3.353   6.599   5.525  0.4643 -0.7585  0.3156
 4338TIP3    H134505   3.392   6.513   5.542 -0.2795 -0.8423  1.6832
 4338TIP3    H234506   3.260   6.588   5.544  0.7598  1.0483  3.5546
 4339TIP3   OH234507   1.621   2.897  11.562  0.0656 -0.0200 -0.0726
 4339TIP3    H134508   1.579   2.971  11.519  1.7143 -0.4097 -2.6217
 4339TIP3    H234509   1.633   2.832  11.492  1.4760 -1.4153  1.3473
 4340TIP3   OH234510   0.106   6.263   3.382  0.4050 -0.2930 -0.1456
 4340TIP3    H134511   0.169   6.240   3.313  0.3555  1.1591 -0.7171
 4340TIP3    H234512   0.159   6.306   3.450  0.2762 -0.6007  0.1499
 4341TIP3   OH234513   0.796   2.449  12.469 -0.2477 -0.0549 -0.1192
 4341TIP3    H134514   0.823   2.528  12.517  0.9572  0.0908 -0.9785
 4341TIP3    H234515   0.800   2.379  12.535 -0.4023  0.4428  0.4282
 4342TIP3   OH234516   0.291   4.055  12.340 -0.0045  0.2982 -0.2321
 4342TIP3    H134517   0.341   3.979  12.309 -0.2432  0.8312 -1.9747
 4342TIP3    H234518   0.311   4.059  12.434  1.9261 -0.4815 -0.5541
 4343TIP3   OH234519   0.170   2.790  11.841  0.0835 -0.5194 -0.4812
 4343TIP3    H134520   0.186   2.827  11.754 -0.1952 -0.1174 -0.3614
 4343TIP3    H234521   0.195   2.698  11.832 -0.0101 -0.4959 -1.0082
 4344TIP3   OH234522   0.410   6.196  15.122 -0.0031 -0.6459 -0.2547
 4344TIP3    H134523   0.379   6.190  15.212 -0.1247 -1.9037 -0.3626
 4344TIP3    H234524   0.498   6.232  15.129 -0.7844  1.3108  0.1831
 4345TIP3   OH234525   0.651   5.500  10.579 -0.0212  0.7837  0.0296
 4345TIP3    H134526   0.589   5.434  10.611 -1.4044  1.5347 -0.9663
 4345TIP3    H234527   0.626   5.580  10.626  0.0707  1.1330 -0.5113
 4346TIP3   OH234528   3.114   6.458   0.193  0.4328  0.3254 -0.1788
 4346TIP3    H134529   3.158   6.507   0.262 -0.4582  3.6011 -1.7321
 4346TIP3    H234530   3.167   6.473   0.115  1.3779 -3.2173 -0.4013
 4347TIP3   OH234531   4.571   6.659  13.324 -0.3071 -0.2962  0.5205
 4347TIP3    H134532   4.556   6.742  13.368  0.7654 -0.0343  0.4248
 4347TIP3    H234533   4.507   6.656  13.253 -0.8046  0.1297  0.9535
 4348TIP3   OH234534   2.384   6.387   0.049  1.0476 -0.5014  0.2635
 4348TIP3    H134535   2.447   6.328   0.090  3.5440  1.6282 -0.1974
 4348TIP3    H234536   2.357   6.342  -0.031  2.9069 -1.0661 -0.1003
 4349TIP3   OH234537   2.882   2.974   1.924  0.0519 -0.2259  0.1640
 4349TIP3    H134538   2.927   2.954   1.841  0.9747 -0.0574  0.6146
 4349TIP3    H234539   2.943   3.031   1.971  0.7233 -2.3518  2.0536
 4350TIP3   OH234540   0.457   3.567  13.499 -0.0055  0.3332  0.2700
 4350TIP3    H134541   0.468   3.541  13.407  1.4949 -0.1974  0.5712
 4350TIP3    H234542   0.543   3.551  13.538 -0.5966  0.6761  1.7419
 4351TIP3   OH234543   4.057   0.294   2.523 -0.0056  0.0483 -0.0815
 4351TIP3    H134544   4.098   0.328   2.443 -1.9952 -2.5849 -2.4808
 4351TIP3    H234545   4.104   0.213   2.542 -0.7480 -0.3191  0.2500
 4352TIP3   OH234546   5.894   2.648   1.392  0.0943 -0.1860 -0.1491
 4352TIP3    H134547   5.854   2.735   1.383  0.9773  0.1221 -1.2787
 4352TIP3    H234548   5.952   2.640   1.317  1.2241 -1.1294  0.7835
 4353TIP3   OH234549   1.187   4.487  12.975 -0.3784 -0.1355  0.1232
 4353TIP3    H134550   1.267   4.501  12.925 -1.1787  2.9579 -0.5185
 4353TIP3    H234551   1.127   4.444  12.913 -0.5108  1.3016 -0.7781
 4354TIP3   OH234552   4.300   3.388  15.412 -0.1123 -0.3056 -0.6223
 4354TIP3    H134553   4.346   3.458  15.365  0.7372 -2.0103 -2.4784
 4354TIP3    H234554   4.247   3.434  15.477  3.3721  1.8842  0.9513
 4355TIP3   OH234555   3.914   5.994  15.371  0.1765  0.6278 -0.1777
 4355TIP3    H134556   3.931   6.065  15.433  1.7242  0.1072  0.0300
 4355TIP3    H234557   3.846   5.941  15.413  1.7983 -0.2183  1.5510
 4356TIP3   OH234558   1.091   6.798   4.327  0.8594 -0.1414  0.4385
 4356TIP3    H134559   1.131   6.796   4.240 -0.5843  3.7916 -0.4993
 4356TIP3    H234560   1.153   6.847   4.380 -1.0401  3.3380 -0.2582
 4357TIP3   OH234561   5.134   0.809  16.211  0.2824  0.7524  0.7829
 4357TIP3    H134562   5.108   0.898  16.234  0.2760  0.8409  0.4403
 4357TIP3    H234563   5.185   0.778  16.286  1.2481  1.4477  0.4377
 4358TIP3   OH234564   0.084   5.896   4.399  0.0830  0.2699 -0.4498
 4358TIP3    H134565   0.146   5.829   4.428  0.3882  1.1106  0.8940
 4358TIP3    H234566   0.016   5.897   4.467 -0.6936  0.3334 -1.2012
 4359TIP3   OH234567   2.287   3.508   4.846 -0.4935  0.5721 -0.2337
 4359TIP3    H134568   2.380   3.484   4.842 -1.1638 -2.5193 -0.2742
 4359TIP3    H234569   2.260   3.479   4.933 -1.0949  3.2058  0.5515
 4360TIP3   OH234570   2.048   4.671  15.995  0.6145 -0.0608  0.0763
 4360TIP3    H134571   1.962   4.655  16.035  0.4775  0.6976  0.0984
 4360TIP3    H234572   2.104   4.605  16.034  0.2620  0.0572  0.8214
 4361TIP3   OH234573   3.991   2.995   3.588 -0.5660 -0.2203  0.2034
 4361TIP3    H134574   3.920   3.022   3.647 -0.6915  1.3688 -0.6190
 4361TIP3    H234575   3.946   2.967   3.508 -0.3046  2.3054 -0.9269
 4362TIP3   OH234576   4.971   2.034  14.428  0.2067 -0.2723 -0.6377
 4362TIP3    H134577   4.941   2.124  14.419 -2.0954 -0.6933  1.5755
 4362TIP3    H234578   5.053   2.040  14.477 -0.1382  0.6385 -0.1561
 4363TIP3   OH234579   3.414   1.472   0.101  0.0423 -0.6765  0.0563
 4363TIP3    H134580   3.492   1.451   0.050 -0.7196 -1.9289 -0.6368
 4363TIP3    H234581   3.377   1.550   0.059  0.2661 -0.7815 -0.3316
 4364TIP3   OH234582   5.083   5.297  15.093 -0.0360 -0.2999 -0.3834
 4364TIP3    H134583   5.072   5.350  15.014 -1.0492  1.6458  0.9773
 4364TIP3    H234584   5.177   5.280  15.097  0.2983  1.1499 -1.0694
 4365TIP3   OH234585   5.898   4.138   5.905  0.1671  0.6777 -0.1395
 4365TIP3    H134586   5.830   4.171   5.846  0.1339 -0.7531 -0.9352
 4365TIP3    H234587   5.863   4.056   5.940  0.4417  1.1877  1.4311
 4366TIP3   OH234588   1.792   5.051   1.209 -0.3843 -0.2408  0.1127
 4366TIP3    H134589   1.747   5.122   1.254 -0.5946 -0.3918  0.1399
 4366TIP3    H234590   1.884   5.059   1.236 -0.2852  0.4247 -0.4017
 4367TIP3   OH234591   0.833   1.940   6.247  0.2938 -0.0465 -0.0188
 4367TIP3    H134592   0.916   1.982   6.269  0.6776 -1.7056  1.9924
 4367TIP3    H234593   0.773   1.965   6.317  0.6370 -2.9563  1.4784
 4368TIP3   OH234594   4.836   3.369   4.650  0.2567  0.3084 -0.0519
 4368TIP3    H134595   4.827   3.282   4.690  0.9912 -0.5799 -1.6764
 4368TIP3    H234596   4.762   3.375   4.590  0.0713  0.9148  0.2398
 4369TIP3   OH234597   1.747   6.069   6.580  0.2303 -0.1126  0.3772
 4369TIP3    H134598   1.793   6.140   6.626 -1.2239  0.9439  0.2466
 4369TIP3    H234599   1.659   6.069   6.617 -0.1002 -1.1937 -0.3527
 4370TIP3   OH234600   3.288   4.255   4.298  0.2821 -0.6257 -0.3908
 4370TIP3    H134601   3.242   4.186   4.345 -1.2496  1.3963  1.2856
 4370TIP3    H234602   3.221   4.300   4.247 -0.0220  2.7700  2.5738
 4371TIP3   OH234603   5.930   0.889  10.607 -0.4075 -0.0235 -0.2615
 4371TIP3    H134604   5.887   0.949  10.547 -0.0336 -0.4920 -1.0248
 4371TIP3    H234605   5.879   0.808  10.602  1.4523 -1.1966 -2.5324
 4372TIP3   OH234606   3.223   6.801   1.091 -0.3445  0.4949  0.4468
 4372TIP3    H134607   3.141   6.838   1.124 -1.7029 -1.8945 -0.0384
 4372TIP3    H234608   3.260   6.753   1.164 -0.2428  0.1670  0.1836
 4373TIP3   OH234609   0.885   2.169   5.555 -0.0458  0.0966  0.8630
 4373TIP3    H134610   0.940   2.183   5.632 -0.6726 -1.2569  1.6003
 4373TIP3    H234611   0.798   2.199   5.583 -0.5983 -1.7297  1.2241
 4374TIP3   OH234612   6.116   3.053   0.410 -0.2784  0.0110  0.4438
 4374TIP3    H134613   6.029   3.021   0.434 -0.3516 -0.5059 -0.4759
 4374TIP3    H234614   6.099   3.130   0.355 -0.2362 -1.3259 -1.5259
 4375TIP3   OH234615   2.644   3.130   4.641 -0.1396 -0.6981  0.1261
 4375TIP3    H134616   2.707   3.064   4.670 -0.1927 -0.9267 -0.2653
 4375TIP3    H234617   2.576   3.080   4.596 -0.3149 -0.4002  0.0562
 4376TIP3   OH234618   2.338   3.150  13.068  0.0248  0.1041  0.0478
 4376TIP3    H134619   2.410   3.090  13.051 -0.2603 -0.7623  1.7544
 4376TIP3    H234620   2.299   3.166  12.982  1.9413  0.2384 -0.8409
 4377TIP3   OH234621   5.744   3.249  11.747 -0.1529  0.3457  0.0413
 4377TIP3    H134622   5.830   3.209  11.759 -0.6674 -0.3949  1.5952
 4377TIP3    H234623   5.744   3.281  11.657  0.4723 -2.8028 -1.2090
 4378TIP3   OH234624   1.524   3.072  10.896 -0.5911 -0.1338  0.7110
 4378TIP3    H134625   1.596   3.017  10.863 -2.0028 -1.4383 -0.3155
 4378TIP3    H234626   1.562   3.160  10.899  0.9018 -0.6903 -0.3315
 4379TIP3   OH234627   1.506   1.167  11.075  0.4023  0.6330 -0.1701
 4379TIP3    H134628   1.504   1.108  11.150 -0.5895  0.9438  0.0612
 4379TIP3    H234629   1.586   1.219  11.086  1.2537 -0.6009 -0.3407
 4380TIP3   OH234630   6.467   2.573   3.811  0.3333 -0.3408  0.2403
 4380TIP3    H134631   6.524   2.640   3.848 -0.5494  1.4426 -1.4479
 4380TIP3    H234632   6.380   2.593   3.845 -0.0969 -0.0233 -0.9738
 4381TIP3   OH234633   6.322   3.630   6.548 -0.0310  0.4141 -0.1507
 4381TIP3    H134634   6.399   3.596   6.503  0.8234  2.0790 -0.0345
 4381TIP3    H234635   6.356   3.702   6.601 -1.4376  0.2086  1.0954
 4382TIP3   OH234636   5.520   6.352   4.053 -0.5923  0.4366 -0.1934
 4382TIP3    H134637   5.568   6.389   4.128 -0.8063  1.8981 -0.7407
 4382TIP3    H234638   5.562   6.392   3.977  0.6889 -2.2436 -1.0186
 4383TIP3   OH234639   3.593   6.759   5.633 -0.5202 -0.2977  0.6029
 4383TIP3    H134640   3.511   6.721   5.601  0.2422 -0.6250 -1.0612
 4383TIP3    H234641   3.593   6.741   5.727 -1.4722 -1.9899  0.3153
 4384TIP3   OH234642   1.423   0.417   1.824  0.5467  0.1911 -0.0738
 4384TIP3    H134643   1.388   0.328   1.828  0.1237  0.3829  0.6422
 4384TIP3    H234644   1.399   0.456   1.908  0.6929  0.9972 -0.4000
 4385TIP3   OH234645   5.322   4.169  12.725 -0.2578 -0.3197  0.0722
 4385TIP3    H134646   5.394   4.119  12.686 -0.0831  1.2183 -1.7089
 4385TIP3    H234647   5.254   4.103  12.743  0.7027 -1.4612 -0.3506
 4386TIP3   OH234648   0.900   3.019   1.433  0.2265 -0.9100 -0.2326
 4386TIP3    H134649   0.985   2.981   1.408  1.2263  0.4454  0.9178
 4386TIP3    H234650   0.923   3.089   1.495 -1.4482  1.7595 -2.3854
 4387TIP3   OH234651   1.449   2.090  12.292 -0.1563 -0.5525 -0.2328
 4387TIP3    H134652   1.517   2.022  12.292  0.0551 -0.4830  2.6112
 4387TIP3    H234653   1.472   2.146  12.366 -2.9078 -0.1131  0.3989
 4388TIP3   OH234654   1.100   1.386   3.920  0.0250  0.6057  0.2329
 4388TIP3    H134655   1.055   1.427   3.847  0.5870 -0.0415 -0.4918
 4388TIP3    H234656   1.082   1.443   3.995 -2.3543  0.1480  0.0737
 4389TIP3   OH234657   1.557   5.847   2.173  0.1548 -0.0928  0.0373
 4389TIP3    H134658   1.611   5.813   2.101 -1.1169  1.4071 -1.7052
 4389TIP3    H234659   1.468   5.821   2.150 -0.1186 -1.1680  2.0711
 4390TIP3   OH234660   4.550   2.043  16.532 -0.2162 -0.0365 -1.0705
 4390TIP3    H134661   4.483   1.983  16.564  0.1953 -0.5356 -1.1316
 4390TIP3    H234662   4.501   2.114  16.491 -0.7421  0.4713  0.3904
 4391TIP3   OH234663   5.376   4.578  14.863 -0.4331 -0.4001 -0.0388
 4391TIP3    H134664   5.310   4.574  14.932  0.5874  2.6001  1.2772
 4391TIP3    H234665   5.459   4.562  14.908  0.2078  1.1824 -0.5884
 4392TIP3   OH234666   2.306   0.345  15.771 -0.0496  0.2605  0.2227
 4392TIP3    H134667   2.387   0.388  15.745 -0.5838  1.2042  0.0916
 4392TIP3    H234668   2.255   0.413  15.813  0.0508 -0.8056  2.2006
 4393TIP3   OH234669   1.192   1.935   6.000 -0.1351  0.5012  0.3807
 4393TIP3    H134670   1.104   1.940   5.963 -0.1644 -0.1034  0.3688
 4393TIP3    H234671   1.191   2.000   6.071 -0.7911  0.0474  0.7937
 4394TIP3   OH234672   0.409   4.448  11.898 -0.3478  0.5824  0.0913
 4394TIP3    H134673   0.427   4.387  11.827 -1.2481  1.7202 -1.1647
 4394TIP3    H234674   0.397   4.532  11.855 -1.7049  1.1707  1.5099
 4395TIP3   OH234675   4.204   2.951  15.506 -0.1509 -0.1355 -0.1659
 4395TIP3    H134676   4.208   2.958  15.410 -0.7131  1.1387 -0.1142
 4395TIP3    H234677   4.224   3.039  15.537 -0.2635 -0.4733  0.8835
 4396TIP3   OH234678   6.142   5.332  12.586 -0.1158  0.0196 -0.3018
 4396TIP3    H134679   6.106   5.356  12.671  0.4725 -1.7844  0.5194
 4396TIP3    H234680   6.209   5.266  12.607  1.0018  0.5416 -2.0593
 4397TIP3   OH234681   5.801   6.848  12.811 -0.4121 -0.2604 -0.2511
 4397TIP3    H134682   5.776   6.935  12.843 -2.0022 -0.6315 -0.3904
 4397TIP3    H234683   5.745   6.834  12.735  1.8995 -0.2189 -2.0550
 4398TIP3   OH234684   4.779   4.638  10.060 -0.2794  0.6161  0.2620
 4398TIP3    H134685   4.851   4.667  10.004  1.4375 -0.9813  1.5344
 4398TIP3    H234686   4.712   4.705  10.050 -0.0363  0.4894 -3.5897
 4399TIP3   OH234687   1.077   1.422  16.110 -0.2014 -0.1179  0.2628
 4399TIP3    H134688   1.034   1.378  16.037  0.5126  1.0244 -0.8801
 4399TIP3    H234689   1.031   1.389  16.188 -0.7694 -1.5927 -0.6532
 4400TIP3   OH234690   0.635   3.605  11.286 -0.2070 -0.4187  0.1497
 4400TIP3    H134691   0.727   3.598  11.311 -0.5809  0.1535  1.8597
 4400TIP3    H234692   0.626   3.692  11.249  0.1071 -0.8183 -0.9016
 4401TIP3   OH234693   0.424   1.524   2.595  1.0924  0.0275  0.5575
 4401TIP3    H134694   0.415   1.596   2.533  0.5513  0.1124  0.7242
 4401TIP3    H234695   0.438   1.566   2.680 -0.2078 -0.0154  0.8191
 4402TIP3   OH234696   2.762   0.850  16.535 -0.3944 -0.1158 -0.3019
 4402TIP3    H134697   2.813   0.931  16.539  0.1285 -0.4435 -0.2984
 4402TIP3    H234698   2.741   0.831  16.627 -0.6677  0.1016 -0.3148
 4403TIP3   OH234699   4.123   2.596  14.848 -0.0866  0.0047 -0.6057
 4403TIP3    H134700   4.172   2.519  14.878 -1.1043 -1.2966 -2.1720
 4403TIP3    H234701   4.157   2.613  14.760 -1.0099  0.3470 -0.9030
 4404TIP3   OH234702   3.116   5.795  16.473 -0.6186  0.1987  1.0108
 4404TIP3    H134703   3.079   5.854  16.408  0.5311  0.8556  0.9323
 4404TIP3    H234704   3.080   5.825  16.556 -1.1644  0.0966  0.8169
 4405TIP3   OH234705   1.239   6.652  14.050  0.7615 -0.2300  0.4277
 4405TIP3    H134706   1.207   6.565  14.075 -1.0472  0.5697  1.1111
 4405TIP3    H234707   1.194   6.672  13.968 -0.2562  0.7209  1.1645
 4406TIP3   OH234708   1.629   4.488   1.682 -0.2389 -0.2389  0.2765
 4406TIP3    H134709   1.650   4.402   1.648  0.2885  0.0759 -0.2154
 4406TIP3    H234710   1.710   4.519   1.721 -0.4120  0.0561  0.4095
 4407TIP3   OH234711   0.821   2.376  15.052 -0.3695 -0.0054 -0.3341
 4407TIP3    H134712   0.849   2.331  15.132  1.7860 -0.7365 -1.4372
 4407TIP3    H234713   0.886   2.445  15.040 -0.9648  0.4105 -1.1968
 4408TIP3   OH234714   6.088   0.655  15.131 -0.5617  0.7473  0.3452
 4408TIP3    H134715   6.024   0.714  15.170 -0.5425  0.4860  0.7728
 4408TIP3    H234716   6.035   0.586  15.091 -0.8073  2.6903 -3.0499
 4409TIP3   OH234717   3.265   0.484  14.543  0.0696 -0.4232  0.2513
 4409TIP3    H134718   3.202   0.548  14.574 -1.3914 -0.9194 -1.5026
 4409TIP3    H234719   3.255   0.409  14.602 -2.2070 -1.1178 -0.9133
 4410TIP3   OH234720   1.981   1.065   5.205  0.2137  0.0153  0.1631
 4410TIP3    H134721   1.911   1.005   5.229 -0.7888  0.9344 -0.3990
 4410TIP3    H234722   1.951   1.151   5.234  0.5663  0.6059 -1.1461
 4411TIP3   OH234723   6.092   1.112   4.201  0.3290 -0.0621 -0.1376
 4411TIP3    H134724   6.085   1.208   4.200 -0.0236 -0.0868 -0.4290
 4411TIP3    H234725   6.002   1.081   4.209  0.5704 -0.3704  1.7979
 4412TIP3   OH234726   2.016   2.523   5.115 -0.0790 -0.6606  0.1219
 4412TIP3    H134727   1.930   2.539   5.151  0.1085  0.8230 -0.0513
 4412TIP3    H234728   2.014   2.430   5.090 -1.7725 -0.5438 -0.3095
 4413TIP3   OH234729   3.758   2.954  12.775  0.1590  0.0935  0.5518
 4413TIP3    H134730   3.829   3.017  12.764  0.7556 -0.5704  0.5094
 4413TIP3    H234731   3.737   2.957  12.869  2.1074 -1.6172  1.1260
 4414TIP3   OH234732   3.768   5.911  16.910  0.2203 -0.4934  0.2001
 4414TIP3    H134733   3.746   5.854  16.836  1.5287 -3.3452  1.8575
 4414TIP3    H234734   3.857   5.941  16.892  0.1283 -0.2856  0.0921
 4415TIP3   OH234735   0.729   5.220  11.209 -0.5288  0.1901  0.4622
 4415TIP3    H134736   0.801   5.282  11.220  0.6382 -0.5057 -2.4128
 4415TIP3    H234737   0.758   5.141  11.254  1.4621 -0.7147 -2.2106
 4416TIP3   OH234738   6.026   0.223  14.712  0.1617 -0.3192  0.6778
 4416TIP3    H134739   6.078   0.269  14.646 -2.9287  0.9183 -1.1345
 4416TIP3    H234740   6.042   0.131  14.695  1.2336  0.0188 -0.2602
 4417TIP3   OH234741   5.806   5.994  16.552  0.5867  0.3137 -0.2350
 4417TIP3    H134742   5.771   6.047  16.623  1.7353  2.3980 -1.1141
 4417TIP3    H234743   5.740   5.999  16.483  1.6459  2.6803 -1.1913
 4418TIP3   OH234744   6.757   6.016   1.013 -0.4380 -0.0190  0.5306
 4418TIP3    H134745   6.842   5.973   1.005 -1.0230 -1.1627  0.2484
 4418TIP3    H234746   6.698   5.947   1.043 -0.9798  1.1007  2.2327
 4419TIP3   OH234747   3.097   5.582   4.066  0.0785 -0.0802 -0.5919
 4419TIP3    H134748   3.108   5.600   4.160  1.9629 -1.7943 -0.4062
 4419TIP3    H234749   3.004   5.564   4.056 -0.3755  1.3494  0.7008
 4420TIP3   OH234750   4.609   2.335   3.859 -0.0262 -0.1441  0.4601
 4420TIP3    H134751   4.650   2.330   3.772 -0.9823 -0.5800  0.0180
 4420TIP3    H234752   4.516   2.319   3.842 -0.4524  1.1547  1.3924
 4421TIP3   OH234753   5.045   2.400   2.452 -0.1855 -0.0215  0.9915
 4421TIP3    H134754   4.984   2.472   2.467  0.4998  1.2659 -1.6761
 4421TIP3    H234755   5.131   2.438   2.466  0.1194 -1.1939  2.4895
 4422TIP3   OH234756   5.076   4.683   3.775 -0.0510  0.6397  0.3995
 4422TIP3    H134757   5.022   4.669   3.698 -0.7873  1.0487  0.8211
 4422TIP3    H234758   5.133   4.756   3.752 -1.2672  1.7469  0.7040
 4423TIP3   OH234759   2.121   0.586  14.046  0.9170 -0.4977  0.1594
 4423TIP3    H134760   2.210   0.552  14.042  1.1466  0.0144  0.6212
 4423TIP3    H234761   2.121   0.641  14.125  0.1572 -0.5998  0.2308
 4424TIP3   OH234762   6.355   1.144   5.064 -0.1161 -0.3610 -0.5256
 4424TIP3    H134763   6.287   1.164   5.127  0.6790  0.8644 -0.0252
 4424TIP3    H234764   6.311   1.146   4.979 -0.8033 -0.1256 -0.1656
 4425TIP3   OH234765   6.310   2.176  12.206  0.2669  0.2915  0.0385
 4425TIP3    H134766   6.387   2.147  12.257  1.3862  0.5521 -1.4436
 4425TIP3    H234767   6.285   2.259  12.247  1.3813  0.6890 -0.0500
 4426TIP3   OH234768   0.031   0.917   0.263  0.3620  0.2399 -1.3073
 4426TIP3    H134769  -0.010   1.003   0.266 -1.0754 -0.4014  0.9995
 4426TIP3    H234770   0.085   0.913   0.342 -1.3764 -1.6889 -0.1068
 4427TIP3   OH234771   0.037   2.505  14.962 -1.1381  0.1694  0.0581
 4427TIP3    H134772   0.046   2.519  14.868  0.0246 -0.4237  0.0620
 4427TIP3    H234773  -0.040   2.557  14.987 -0.7479  1.3071 -0.9997
 4428TIP3   OH234774   3.355   5.456   0.148 -0.1410  0.2824 -0.1624
 4428TIP3    H134775   3.357   5.397   0.223 -0.5032  0.4585 -0.0123
 4428TIP3    H234776   3.409   5.413   0.082 -0.9089 -0.5327 -0.2829
 4429TIP3   OH234777   4.224   4.154   2.641 -0.0337 -0.0168 -0.2488
 4429TIP3    H134778   4.161   4.212   2.598 -0.0757 -1.0215 -1.6257
 4429TIP3    H234779   4.170   4.097   2.695 -0.5218 -1.6131 -2.2788
 4430TIP3   OH234780   5.005   6.296   4.597 -0.4131  0.2365 -0.3406
 4430TIP3    H134781   5.036   6.209   4.574  0.7634  0.6435 -0.3659
 4430TIP3    H234782   4.925   6.280   4.648  0.2671 -0.9001  0.4237
 4431TIP3   OH234783   3.769   5.113   4.047  0.2890  0.0267 -0.1776
 4431TIP3    H134784   3.731   5.189   4.092 -1.8214 -1.1833  0.2505
 4431TIP3    H234785   3.859   5.110   4.077 -0.5755  0.2329  2.8035
 4432TIP3   OH234786   2.076   5.053  11.409  0.4014  0.2609 -0.0510
 4432TIP3    H134787   2.026   5.052  11.328  1.2157  0.8978 -0.5798
 4432TIP3    H234788   2.155   5.102  11.388  0.3464  0.9939  1.2980
 4433TIP3   OH234789   5.214   2.372  12.959 -0.2816  0.2547  0.1679
 4433TIP3    H134790   5.132   2.355  12.913  0.1932  2.1539 -1.5529
 4433TIP3    H234791   5.245   2.286  12.987 -1.6888 -0.7551 -1.2240
 4434TIP3   OH234792   0.106   1.749  14.087 -0.5815  0.2297 -0.3789
 4434TIP3    H134793   0.031   1.718  14.036 -0.6673 -0.2625  0.0359
 4434TIP3    H234794   0.080   1.836  14.117 -1.7100 -0.6138  1.1927
 4435TIP3   OH234795   1.286   5.004   2.074  0.5717 -0.2895 -0.3437
 4435TIP3    H134796   1.373   4.983   2.040 -0.2584 -2.2538 -1.4260
 4435TIP3    H234797   1.226   4.968   2.010 -1.0864  1.1671  0.2968
 4436TIP3   OH234798   3.746   1.249  12.837 -0.4879 -0.3295  0.7091
 4436TIP3    H134799   3.735   1.157  12.862  0.1328 -0.7374 -0.4588
 4436TIP3    H234800   3.744   1.248  12.741  1.2307  0.6368  0.6290
 4437TIP3   OH234801   2.784   1.776   2.517  0.0183 -0.3609 -0.1985
 4437TIP3    H134802   2.708   1.801   2.568 -0.6905  1.0966 -1.8747
 4437TIP3    H234803   2.851   1.841   2.538  0.7972 -1.5300  1.1301
 4438TIP3   OH234804   4.250   6.059  11.537  0.2426  0.5360  0.0016
 4438TIP3    H134805   4.159   6.034  11.521  1.4240 -3.3851 -1.7314
 4438TIP3    H234806   4.293   6.046  11.453  2.4160  2.8594  0.6244
 4439TIP3   OH234807   2.719   0.783   3.665  0.8190 -0.0888 -0.5155
 4439TIP3    H134808   2.778   0.723   3.711 -0.3149 -1.4466 -0.7662
 4439TIP3    H234809   2.631   0.753   3.689  0.0776  3.2091  1.6601
 4440TIP3   OH234810   0.495   2.242  13.306 -0.0200  0.4448 -0.3632
 4440TIP3    H134811   0.518   2.163  13.355 -0.0210  1.1994  0.8915
 4440TIP3    H234812   0.539   2.231  13.222  0.5675 -0.5633  0.0576
 4441TIP3   OH234813   0.064   2.585  16.092  0.1091 -0.1865  0.3458
 4441TIP3    H134814   0.122   2.544  16.027 -0.9667 -2.6908  0.8641
 4441TIP3    H234815  -0.008   2.523  16.103 -1.1476  1.4411  1.9484
 4442TIP3   OH234816   3.939   3.032  10.741 -0.9244 -0.5252 -0.1753
 4442TIP3    H134817   3.922   3.101  10.677 -0.4173 -1.6623 -1.5914
 4442TIP3    H234818   3.854   3.017  10.784 -1.6209 -0.6582 -1.5438
 4443TIP3   OH234819   1.212   2.369  15.630  0.5743 -0.5333 -0.3504
 4443TIP3    H134820   1.158   2.335  15.702 -0.3510 -1.4214 -1.4331
 4443TIP3    H234821   1.163   2.347  15.551  0.8908  1.6460 -1.2120
 4444TIP3   OH234822   1.104   4.385   4.858 -0.5528 -0.0207  0.7391
 4444TIP3    H134823   1.153   4.303   4.864  1.4585  0.9975 -0.6244
 4444TIP3    H234824   1.170   4.453   4.869 -2.2491  1.4655  2.4372
 4445TIP3   OH234825   5.316   6.476   0.045  0.3015 -0.0582 -0.1983
 4445TIP3    H134826   5.330   6.545   0.109 -1.9769 -0.7507  1.1602
 4445TIP3    H234827   5.292   6.399   0.097  2.3521 -1.8197 -1.6880
 4446TIP3   OH234828   5.348   4.966  12.645  0.2770  0.1917  0.2470
 4446TIP3    H134829   5.414   4.992  12.709  1.9172  0.2558 -1.4052
 4446TIP3    H234830   5.384   4.888  12.604 -1.4762 -0.7759  0.4484
 4447TIP3   OH234831   3.120   6.775   6.094  0.8017 -0.2825  0.2666
 4447TIP3    H134832   3.053   6.834   6.128 -0.1089 -1.4880  0.5817
 4447TIP3    H234833   3.156   6.732   6.171 -1.6838 -3.4697 -0.1739
 4448TIP3   OH234834   2.955   5.058  13.136 -0.1514 -0.0961 -0.4310
 4448TIP3    H134835   2.914   5.102  13.061 -2.0198 -0.2533  0.4277
 4448TIP3    H234836   3.039   5.102  13.147 -1.4899  2.6253 -0.2157
 4449TIP3   OH234837   4.494   4.160  13.450  0.2431  0.4394 -0.3269
 4449TIP3    H134838   4.446   4.194  13.374 -0.5272 -1.1660 -0.5919
 4449TIP3    H234839   4.425   4.131  13.510  0.8735  0.0570  0.2229
 4450TIP3   OH234840   5.511   1.946   5.784  0.6658 -0.2577 -0.4793
 4450TIP3    H134841   5.498   2.029   5.740 -1.0393  1.2855  2.5747
 4450TIP3    H234842   5.432   1.895   5.763  0.5185 -0.0862 -0.3468
 4451TIP3   OH234843   3.285   3.185   1.133 -0.6974  0.4557 -0.7648
 4451TIP3    H134844   3.317   3.097   1.111  0.0167  0.1481  1.3146
 4451TIP3    H234845   3.356   3.225   1.183 -1.7883  1.4798  0.0232
 4452TIP3   OH234846   0.756   2.782   2.824  0.1308 -0.5578 -0.0466
 4452TIP3    H134847   0.828   2.839   2.796  0.3239  0.0209  1.5282
 4452TIP3    H234848   0.680   2.817   2.778  0.5954 -0.2820 -0.6324
 4453TIP3   OH234849   6.540   0.279  11.119 -0.0876  0.0656  0.6678
 4453TIP3    H134850   6.458   0.328  11.119  0.3424  0.8049  1.0672
 4453TIP3    H234851   6.566   0.275  11.027 -0.2616  0.3643  0.6030
 4454TIP3   OH234852   5.448   1.535   3.962  0.5125 -0.0541 -0.0298
 4454TIP3    H134853   5.523   1.570   3.915  1.8364 -0.1173  1.9391
 4454TIP3    H234854   5.447   1.582   4.045 -0.3041 -1.6044  0.8806
 4455TIP3   OH234855   3.923   4.467  15.267  0.0614 -0.8324  0.5416
 4455TIP3    H134856   3.911   4.398  15.202 -2.2793  1.6571 -1.9841
 4455TIP3    H234857   3.983   4.528  15.226 -0.8406  0.4108  1.0059
 4456TIP3   OH234858   2.344   5.276   4.104 -0.4559  0.0605  0.3435
 4456TIP3    H134859   2.298   5.360   4.101 -0.9921 -0.2148  0.5751
 4456TIP3    H234860   2.360   5.261   4.197  0.4809  0.3468  0.2324
 4457TIP3   OH234861   3.084   3.875   3.012 -0.2302  0.0533  0.0907
 4457TIP3    H134862   3.034   3.859   3.092  0.9057  0.7130  0.9765
 4457TIP3    H234863   3.175   3.862   3.038  0.1224 -0.3951 -1.2806
 4458TIP3   OH234864   1.311   4.887   1.574 -0.1874 -0.3014 -0.0878
 4458TIP3    H134865   1.235   4.944   1.559 -0.8947 -1.5347 -1.3656
 4458TIP3    H234866   1.362   4.894   1.493 -1.3284 -2.9772 -1.1527
 4459TIP3   OH234867   4.680   4.966  17.008  0.0605 -0.0433  0.0472
 4459TIP3    H134868   4.689   4.986  17.101  2.1385 -0.9733  0.1011
 4459TIP3    H234869   4.689   5.050  16.964  0.3925  0.2307  0.6311
 4460TIP3   OH234870   3.148   6.208   5.898 -0.2040 -0.0757 -0.3181
 4460TIP3    H134871   3.167   6.219   5.991 -0.5967 -1.6710 -0.0215
 4460TIP3    H234872   3.053   6.209   5.892 -0.2137 -1.0450 -0.5315
 4461TIP3   OH234873   6.248   2.849   3.455  0.7440  0.1428  0.1950
 4461TIP3    H134874   6.272   2.795   3.380 -0.4142  0.0889 -0.1608
 4461TIP3    H234875   6.214   2.787   3.520 -0.5448  0.3943 -0.1967
 4462TIP3   OH234876   1.300   5.627   0.543  0.2561 -0.0831  0.1913
 4462TIP3    H134877   1.378   5.675   0.568  0.1437  0.7370 -0.9449
 4462TIP3    H234878   1.331   5.563   0.479 -0.1572  1.1140 -1.2615
 4463TIP3   OH234879   0.943   0.557  14.478 -0.3742  0.2328  0.3400
 4463TIP3    H134880   0.934   0.607  14.397  2.4025 -0.4084 -0.4700
 4463TIP3    H234881   0.997   0.613  14.534  0.0149 -0.4616  0.6688
 4464TIP3   OH234882   0.343   6.581  12.683 -0.2694 -0.5223 -0.1652
 4464TIP3    H134883   0.428   6.543  12.705 -0.8382 -1.1182  1.1027
 4464TIP3    H234884   0.326   6.643  12.753 -1.5325 -1.4774  0.3927
 4465TIP3   OH234885   3.006   5.249  14.520  0.2997 -0.2513 -0.3381
 4465TIP3    H134886   2.963   5.315  14.466 -1.4361 -0.3045  0.8939
 4465TIP3    H234887   3.067   5.205  14.460  0.2995  1.3433 -1.5830
 4466TIP3   OH234888   1.832   4.852   1.767 -0.0545 -0.5910 -1.0498
 4466TIP3    H134889   1.744   4.889   1.758 -0.0599 -0.8491 -2.0905
 4466TIP3    H234890   1.852   4.863   1.860 -1.8438 -2.0203 -0.4417
 4467TIP3   OH234891   0.250   0.208  12.863  0.1300  0.5979  0.1999
 4467TIP3    H134892   0.259   0.226  12.770  1.1348 -1.2906 -0.1154
 4467TIP3    H234893   0.167   0.161  12.871 -0.7168  2.0712  0.5198
 4468TIP3   OH234894   1.131   3.211   6.344  0.5462 -0.0403 -0.3002
 4468TIP3    H134895   1.160   3.125   6.375  1.4931  0.0127 -0.9864
 4468TIP3    H234896   1.053   3.230   6.395  0.7626 -0.9716  0.4035
 4469TIP3   OH234897   3.643   3.319  15.114  0.1456  0.5884  0.1513
 4469TIP3    H134898   3.634   3.304  15.208 -0.3666  1.4963  0.2642
 4469TIP3    H234899   3.556   3.299  15.079  0.2084  0.6951 -0.0648
 4470TIP3   OH234900   3.019   6.777   3.631  0.0800 -0.2474 -0.2783
 4470TIP3    H134901   2.995   6.685   3.618 -0.8611  0.1077 -1.2405
 4470TIP3    H234902   3.032   6.811   3.542 -0.3824  0.7476  0.0146
 4471TIP3   OH234903   2.077   5.270   5.420  0.2329 -0.0290 -0.6694
 4471TIP3    H134904   2.168   5.254   5.446 -0.2668 -0.9917  0.6190
 4471TIP3    H234905   2.066   5.218   5.340  0.5628 -0.7158 -0.2867
 4472TIP3   OH234906   1.918   0.245  13.780  0.3425  0.0808  0.7693
 4472TIP3    H134907   1.976   0.180  13.742  0.4696 -0.4874  1.8965
 4472TIP3    H234908   1.975   0.299  13.836 -0.0670 -0.0086  1.2872
 4473TIP3   OH234909   5.971   3.559   0.271  0.2275 -0.0123  0.0705
 4473TIP3    H134910   6.022   3.479   0.259  0.4072  0.2069 -0.6758
 4473TIP3    H234911   6.024   3.628   0.231 -0.1173  0.4132  0.3378
 4474TIP3   OH234912   5.942   5.715   5.082 -0.2888 -0.4981 -0.0603
 4474TIP3    H134913   5.896   5.678   5.006  0.4246 -0.4290 -0.5314
 4474TIP3    H234914   5.996   5.643   5.114 -1.8569 -1.0863  1.4605
 4475TIP3   OH234915   3.613   4.325   2.709  0.3049 -0.1870 -0.6359
 4475TIP3    H134916   3.694   4.280   2.733  0.8052  0.2512 -1.4796
 4475TIP3    H234917   3.640   4.391   2.645 -0.7108 -0.0127 -0.8961
 4476TIP3   OH234918   2.230   3.646   5.308  0.8312 -0.5037  0.0276
 4476TIP3    H134919   2.189   3.672   5.390  2.4763 -1.1419  1.1184
 4476TIP3    H234920   2.158   3.631   5.248 -0.3879  0.7204  1.1170
 4477TIP3   OH234921   1.713   5.076  14.652  0.2931  0.1184  0.0608
 4477TIP3    H134922   1.738   4.989  14.684 -2.2124 -1.3299 -1.4796
 4477TIP3    H234923   1.778   5.097  14.585  0.9502 -0.5572  0.4753
 4478TIP3   OH234924   2.245   1.126   0.355  0.1519  0.0680  0.5252
 4478TIP3    H134925   2.285   1.070   0.422 -0.2264 -1.0686 -0.1631
 4478TIP3    H234926   2.319   1.154   0.301  0.4863  1.1585  1.5064
 4479TIP3   OH234927   0.515   5.087  16.381 -0.7356 -0.4489 -0.0618
 4479TIP3    H134928   0.466   5.146  16.323 -2.5943 -1.6896  0.1364
 4479TIP3    H234929   0.544   5.016  16.323 -0.2062 -0.3149  0.0407
 4480TIP3   OH234930   4.302   3.066  14.582 -0.4860 -0.2290 -0.1446
 4480TIP3    H134931   4.224   3.073  14.637  0.2005  0.3327  0.7928
 4480TIP3    H234932   4.373   3.048  14.644  0.0729 -1.2035 -1.0260
 4481TIP3   OH234933   1.647   6.539  14.893 -0.2947  0.0421  0.5915
 4481TIP3    H134934   1.734   6.553  14.855 -1.0191 -2.2399 -2.2926
 4481TIP3    H234935   1.589   6.591  14.838 -0.8916  0.8327  1.9292
 4482TIP3   OH234936   1.497   0.433  11.081 -0.3998  0.0348 -0.1305
 4482TIP3    H134937   1.502   0.513  11.133 -0.9174  0.0897 -0.1633
 4482TIP3    H234938   1.464   0.462  10.996 -0.9191 -0.2556 -0.0344
 4483TIP3   OH234939   4.264   0.890   0.457 -0.3373  0.6426  0.6435
 4483TIP3    H134940   4.222   0.851   0.534 -0.7354 -0.3170 -0.0430
 4483TIP3    H234941   4.305   0.816   0.412 -1.9136  0.8230 -1.2077
 4484TIP3   OH234942   4.460   6.561  15.767 -0.0752 -0.0044 -0.0225
 4484TIP3    H134943   4.546   6.601  15.780 -0.0444  0.7961 -2.1969
 4484TIP3    H234944   4.477   6.487  15.709 -0.6687 -0.7881  0.7919
 4485TIP3   OH234945   2.303   4.602  13.358  0.3179 -0.1120 -0.1504
 4485TIP3    H134946   2.383   4.625  13.405  0.7998 -2.5360  0.3204
 4485TIP3    H234947   2.274   4.520  13.398 -0.5322 -1.0609 -2.5585
 4486TIP3   OH234948   6.112   6.229   2.826 -0.1639 -0.4598 -0.1179
 4486TIP3    H134949   6.144   6.216   2.736 -0.8602 -0.6544 -0.3455
 4486TIP3    H234950   6.138   6.150   2.873  0.6639 -0.1321 -0.0039
 4487TIP3   OH234951   1.809   3.717  16.545  0.1017 -0.9965  0.3892
 4487TIP3    H134952   1.894   3.676  16.527 -1.1675 -3.2763 -0.8444
 4487TIP3    H234953   1.751   3.644  16.566 -1.6999  0.4479  0.6614
 4488TIP3   OH234954   2.453   4.799  14.267 -0.1967 -0.0692 -0.2861
 4488TIP3    H134955   2.509   4.767  14.337  0.4155 -1.5829 -1.4050
 4488TIP3    H234956   2.376   4.742  14.270 -0.8198  0.7666  0.0302
 4489TIP3   OH234957   6.471   1.135   4.694 -0.0039 -0.2105 -0.3093
 4489TIP3    H134958   6.555   1.142   4.650 -0.2679  0.4813 -0.7205
 4489TIP3    H234959   6.443   1.044   4.677  0.0055 -0.0328 -1.3850
 4490TIP3   OH234960   2.623   4.084  11.685  0.2346 -0.5754  0.2489
 4490TIP3    H134961   2.676   4.146  11.634  0.8230 -0.5309  0.8961
 4490TIP3    H234962   2.534   4.119  11.681  0.2307 -0.6766 -0.9015
 4491TIP3   OH234963   6.015   6.445   4.368  0.5381  0.2603 -0.3886
 4491TIP3    H134964   5.947   6.387   4.334 -0.2743  0.0313  1.5480
 4491TIP3    H234965   6.076   6.455   4.294  0.2367 -2.3120 -1.0886
 4492TIP3   OH234966   2.987   5.916   6.017  0.2823 -0.3259  0.5311
 4492TIP3    H134967   2.980   5.914   6.113  0.1052 -2.6237  0.5212
 4492TIP3    H234968   2.904   5.954   5.989  0.1531 -0.0342  1.2731
 4493TIP3   OH234969   4.116   0.374   5.443  0.3259  0.6354 -0.6899
 4493TIP3    H134970   4.092   0.442   5.507 -1.5391 -1.2046  0.6967
 4493TIP3    H234971   4.086   0.408   5.359 -0.9424  1.3947  0.0339
 4494TIP3   OH234972   5.808   1.698  12.668  0.2878 -0.0601 -0.2636
 4494TIP3    H134973   5.794   1.659  12.755 -0.8032 -1.1801 -0.9150
 4494TIP3    H234974   5.896   1.669  12.643 -0.2893 -1.7340 -0.5027
 4495TIP3   OH234975   2.759   1.221  14.254  0.4681  0.4960  0.5304
 4495TIP3    H134976   2.748   1.180  14.168  0.4232  1.7517 -0.0800
 4495TIP3    H234977   2.743   1.150  14.316  1.4886 -0.6769 -0.4916
 4496TIP3   OH234978   3.349   2.903   1.297  0.1656  0.1874  0.2950
 4496TIP3    H134979   3.426   2.894   1.353  1.2706  0.0109 -1.1958
 4496TIP3    H234980   3.279   2.858   1.344  0.9937  0.2661  1.6325
 4497TIP3   OH234981   0.220   1.227  16.179 -0.0379  0.6683 -0.3561
 4497TIP3    H134982   0.290   1.187  16.231 -0.8984  0.2863  0.5359
 4497TIP3    H234983   0.238   1.198  16.089  1.2630  1.0365 -0.2331
 4498TIP3   OH234984   6.757   5.569  14.995 -0.0461 -0.0414 -0.0098
 4498TIP3    H134985   6.765   5.647  15.048 -0.0664  0.5352 -0.8357
 4498TIP3    H234986   6.727   5.501  15.056 -2.1318  1.0876  0.3261
 4499TIP3   OH234987   3.264   3.375  11.472  0.1050 -0.0688  0.2811
 4499TIP3    H134988   3.265   3.330  11.556  0.1405  0.4832  0.5799
 4499TIP3    H234989   3.197   3.329  11.421  1.6618 -1.8895 -0.2234
 4500TIP3   OH234990   1.276   6.567   1.790  0.0536  0.4247  0.0618
 4500TIP3    H134991   1.229   6.487   1.814 -2.0488  1.2859 -0.8762
 4500TIP3    H234992   1.207   6.625   1.756  1.2426  3.1233  1.8910
 4501TIP3   OH234993   1.407   4.888   0.806 -0.4741 -0.1288 -0.4012
 4501TIP3    H134994   1.436   4.963   0.754 -1.7410  1.7681  1.4686
 4501TIP3    H234995   1.318   4.871   0.776  0.0390 -1.3904 -1.2938
 4502TIP3   OH234996   6.125   6.161   0.834  0.3893 -0.0926 -0.1061
 4502TIP3    H134997   6.089   6.086   0.787 -0.5807 -0.5991  1.3705
 4502TIP3    H234998   6.101   6.236   0.781 -0.8095 -0.6371 -0.3638
 4503TIP3   OH234999   1.959   3.034   0.787  0.0669  0.8330 -0.3070
 4503TIP3    H135000   1.941   3.111   0.732 -0.4966  1.7920  1.1598
 4503TIP3    H235001   1.950   3.066   0.876 -1.6243 -1.2726  0.3579
 4504TIP3   OH235002   2.693   4.698  13.110  0.0401  0.3507  0.3465
 4504TIP3    H135003   2.754   4.644  13.160 -1.1392  1.0139  2.6653
 4504TIP3    H235004   2.721   4.788  13.128 -0.8785  0.6220  0.4500
 4505TIP3   OH235005   2.757   6.098  13.875 -0.8848 -0.5110  0.3200
 4505TIP3    H135006   2.702   6.047  13.934  0.6781 -1.6723  0.8511
 4505TIP3    H235007   2.829   6.039  13.852  0.2896  1.0201 -0.1176
 4506TIP3   OH235008   0.099   3.465   5.579 -0.0864 -0.4532 -0.5570
 4506TIP3    H135009   0.173   3.407   5.595  0.2994  0.5577  1.6938
 4506TIP3    H235010   0.027   3.428   5.631  0.5473  1.6785  2.0844
 4507TIP3   OH235011   4.211   2.991  12.383  0.7116 -0.0823 -0.4183
 4507TIP3    H135012   4.148   3.040  12.436  0.7493  0.6205 -1.0077
 4507TIP3    H235013   4.261   2.940  12.447  1.2242  1.2802  0.2917
 4508TIP3   OH235014   3.314   4.865  10.306 -0.6981 -0.4917  0.4695
 4508TIP3    H135015   3.241   4.809  10.333 -0.1067 -1.0130  1.0063
 4508TIP3    H235016   3.380   4.804  10.274 -0.8895  0.0414 -1.0026
 4509TIP3   OH235017   4.610   3.800   5.863  0.1716  0.5334 -0.4702
 4509TIP3    H135018   4.681   3.750   5.904  0.3793  2.3357  1.5293
 4509TIP3    H235019   4.530   3.763   5.901  0.3363  1.7690  1.2022
 4510TIP3   OH235020   2.129   3.374   3.342 -0.2669  0.1984 -0.2691
 4510TIP3    H135021   2.190   3.301   3.332 -0.6867 -0.2541  0.3708
 4510TIP3    H235022   2.106   3.399   3.253 -0.1145 -0.4515 -0.4984
 4511TIP3   OH235023   5.215   6.866  12.304 -0.1139 -0.2517  0.3718
 4511TIP3    H135024   5.130   6.868  12.348 -1.0965  1.1127 -1.4052
 4511TIP3    H235025   5.193   6.859  12.211  1.7886 -1.1934 -0.0553
 4512TIP3   OH235026   3.317   4.985  11.055 -0.4589  0.3835  0.5543
 4512TIP3    H135027   3.343   5.075  11.033 -2.0311  0.9087  0.7527
 4512TIP3    H235028   3.224   4.991  11.078  0.0373 -0.8200  3.3140
 4513TIP3   OH235029   6.620   1.736  14.963 -0.0979  0.3569 -0.1941
 4513TIP3    H135030   6.714   1.747  14.976  0.0929 -0.7205 -0.5238
 4513TIP3    H235031   6.605   1.766  14.873 -0.0293  0.3157 -0.2199
 4514TIP3   OH235032   1.396   1.436   3.792  0.2703  0.5304 -0.6632
 4514TIP3    H135033   1.335   1.501   3.756 -1.0721 -0.6437 -0.6221
 4514TIP3    H235034   1.341   1.382   3.850  1.7922  0.6455  0.9600
 4515TIP3   OH235035   4.231   1.557  16.893 -0.1637 -0.1061  0.5139
 4515TIP3    H135036   4.291   1.621  16.855  2.3413 -1.4678  1.9397
 4515TIP3    H235037   4.200   1.599  16.974 -0.9663  0.4725 -0.0714
 4516TIP3   OH235038   6.041   3.955   5.626 -0.0685 -0.2956 -0.1674
 4516TIP3    H135039   5.947   3.952   5.640  0.2421 -0.9628  2.3409
 4516TIP3    H235040   6.060   4.047   5.608 -1.1602 -0.0866 -0.3066
 4517TIP3   OH235041   5.893   0.719  14.153 -0.1701  0.6080 -0.4969
 4517TIP3    H135042   5.823   0.781  14.171 -1.4800 -0.4383 -1.7872
 4517TIP3    H235043   5.919   0.738  14.063  1.9294  1.6222  0.2568
 4518TIP3   OH235044   0.496   3.899   5.243  0.0245 -0.8443  0.4006
 4518TIP3    H135045   0.454   3.842   5.179  1.0087 -0.5041 -0.5966
 4518TIP3    H235046   0.577   3.853   5.266 -0.2807 -0.9208  1.3473
 4519TIP3   OH235047   6.400   3.141  13.506  0.4131  0.1618  0.6052
 4519TIP3    H135048   6.430   3.145  13.597  1.0201 -0.6693  0.4547
 4519TIP3    H235049   6.320   3.089  13.510  1.2738 -1.2367  0.4935
 4520TIP3   OH235050   2.548   1.416  14.531 -0.4526 -0.0645 -0.2182
 4520TIP3    H135051   2.508   1.354  14.470  0.9626  0.6441 -1.9522
 4520TIP3    H235052   2.544   1.500  14.486 -0.2432  0.6843  1.1038
 4521TIP3   OH235053   4.590   1.247   2.041  0.3319  0.0413 -0.0796
 4521TIP3    H135054   4.667   1.194   2.062 -0.9479 -2.0365 -0.4619
 4521TIP3    H235055   4.554   1.272   2.126 -0.2676 -1.5718  0.1775
 4522TIP3   OH235056   0.909   5.584  14.921 -0.0050 -0.8604 -0.0398
 4522TIP3    H135057   0.849   5.553  14.853 -0.3852  0.3428 -0.2698
 4522TIP3    H235058   0.864   5.658  14.961  0.0617 -1.7295  1.7572
 4523TIP3   OH235059   5.450   0.544   2.392  0.3338 -0.0884  0.6155
 4523TIP3    H135060   5.380   0.502   2.442  1.8485 -1.7905  1.4089
 4523TIP3    H235061   5.423   0.636   2.386 -1.9179 -0.6676  0.9140
 4524TIP3   OH235062   6.106   0.743   1.279 -0.1151 -0.0911 -0.4346
 4524TIP3    H135063   6.018   0.779   1.268  0.4237  0.8570 -1.7849
 4524TIP3    H235064   6.160   0.818   1.305  0.3620 -0.6099  0.1051
 4525TIP3   OH235065   4.370   2.607  14.682  0.2346  0.2535 -0.5036
 4525TIP3    H135066   4.360   2.560  14.599 -0.7128 -1.2671  0.4349
 4525TIP3    H235067   4.452   2.655  14.672  1.4512 -1.8660 -1.4113
 4526TIP3   OH235068   0.676   2.295  12.014  0.0343 -0.4698 -0.2881
 4526TIP3    H135069   0.619   2.362  12.052  1.2595 -0.5434  1.7791
 4526TIP3    H235070   0.628   2.266  11.936 -1.4508  1.3923 -0.1607
 4527TIP3   OH235071   0.293   6.686   3.944 -0.2300 -0.7407 -0.2793
 4527TIP3    H135072   0.386   6.706   3.948 -0.3051 -0.1682 -1.0909
 4527TIP3    H235073   0.287   6.593   3.965  0.4294 -0.5841  0.6421
 4528TIP3   OH235074   0.277   1.432  16.377 -0.1028  0.2410 -0.4424
 4528TIP3    H135075   0.260   1.385  16.296  3.0100 -0.0998 -1.0483
 4528TIP3    H235076   0.340   1.377  16.424 -0.6408  1.1722  1.4970
 4529TIP3   OH235077   0.132   1.745   2.361 -0.1767 -0.3274  0.3837
 4529TIP3    H135078   0.080   1.665   2.350  0.0399 -0.2735 -1.1998
 4529TIP3    H235079   0.150   1.749   2.455  0.0145 -2.2775  0.4702
 4530TIP3   OH235080   2.476   3.213   6.244  0.0945 -0.1383  0.1297
 4530TIP3    H135081   2.425   3.134   6.261  0.3747 -0.7940 -1.8014
 4530TIP3    H235082   2.424   3.284   6.281 -1.2318 -1.0022 -0.0189
 4531TIP3   OH235083   2.160   1.819  16.408 -0.2392 -0.4760 -0.5277
 4531TIP3    H135084   2.253   1.827  16.429 -0.5456 -1.6709  1.5749
 4531TIP3    H235085   2.119   1.894  16.451 -0.5334 -1.4362  0.9471
 4532TIP3   OH235086   2.356   4.220  15.888 -0.4994  0.2480  0.4957
 4532TIP3    H135087   2.365   4.248  15.979  1.0922  0.3656  0.3213
 4532TIP3    H235088   2.413   4.144  15.880 -1.2142 -0.2314 -0.2312
 4533TIP3   OH235089   2.596   2.835  11.864  0.2894 -0.6210  0.2947
 4533TIP3    H135090   2.550   2.890  11.929 -1.7337  2.0625 -3.0742
 4533TIP3    H235091   2.689   2.852  11.880 -0.2034  1.5913  1.2596
 4534TIP3   OH235092   1.137   3.345  12.169  0.2058 -0.3260 -0.2561
 4534TIP3    H135093   1.058   3.305  12.133 -0.7915  2.1032 -0.9948
 4534TIP3    H235094   1.105   3.405  12.237  1.2343  1.6377 -1.4190
 4535TIP3   OH235095   2.920   5.986   0.621 -0.5132  0.0381  0.1349
 4535TIP3    H135096   2.885   5.957   0.705 -1.6481 -0.6554 -0.5511
 4535TIP3    H235097   3.008   5.948   0.618  0.0545  1.1458  1.5458
 4536TIP3   OH235098   3.301   3.515  15.426  0.2237 -0.2325  0.5090
 4536TIP3    H135099   3.351   3.467  15.491  1.9154 -1.1360 -1.3370
 4536TIP3    H235100   3.308   3.607  15.451  0.1495 -0.6176  1.9981
 4537TIP3   OH235101   5.786   5.675  14.814  0.2985  0.1497  0.5077
 4537TIP3    H135102   5.716   5.637  14.761  1.1879 -1.6429  0.5529
 4537TIP3    H235103   5.793   5.766  14.783 -0.8135 -0.1665 -0.7447
 4538TIP3   OH235104   1.597   6.435   1.505  0.9908  0.0974  0.1176
 4538TIP3    H135105   1.604   6.399   1.593  0.3739 -0.8721 -0.2160
 4538TIP3    H235106   1.627   6.526   1.514 -0.2534  0.4101  1.5764
 4539TIP3   OH235107   3.139   2.132  16.608 -0.4302  0.0225 -0.2191
 4539TIP3    H135108   3.067   2.072  16.624  0.9171 -1.2058  1.6185
 4539TIP3    H235109   3.218   2.080  16.623  0.8544  1.5300 -1.3619
 4540TIP3   OH235110   1.653   5.161  11.128 -0.3415  0.5441  0.7461
 4540TIP3    H135111   1.691   5.074  11.134 -0.2318  0.3589 -1.6692
 4540TIP3    H235112   1.567   5.153  11.171 -0.4694 -0.8459  0.2718
 4541TIP3   OH235113   2.636   0.361   1.846  0.3659  0.5005 -0.0583
 4541TIP3    H135114   2.589   0.380   1.928  1.0948  0.4719  0.3775
 4541TIP3    H235115   2.669   0.272   1.859  0.4044  0.4607 -0.4295
 4542TIP3   OH235116   2.088   5.193  15.303  0.4730  0.0441 -0.7328
 4542TIP3    H135117   2.076   5.243  15.384 -2.4705  0.3148 -1.2270
 4542TIP3    H235118   2.137   5.115  15.331 -0.0622  0.3455  1.2298
 4543TIP3   OH235119   0.200   1.433   2.108  0.2445  0.2549  0.0963
 4543TIP3    H135120   0.180   1.343   2.084 -1.2437  0.8887 -1.2047
 4543TIP3    H235121   0.140   1.453   2.179  0.7030  0.1818  0.5120
 4544TIP3   OH235122   3.251   0.468  11.897 -0.1194 -0.1989  0.2256
 4544TIP3    H135123   3.227   0.376  11.885  0.3638 -0.2375 -0.5246
 4544TIP3    H235124   3.247   0.505  11.809 -0.4624  0.5387  0.5475
 4545TIP3   OH235125   4.796   6.108  14.879  0.8293 -0.8210 -0.4339
 4545TIP3    H135126   4.747   6.027  14.862 -1.2663  0.5702 -1.5979
 4545TIP3    H235127   4.770   6.166  14.807  2.3649  0.8462  0.2917
 4546TIP3   OH235128   1.791   3.276  13.585 -0.4606 -0.1311 -0.3699
 4546TIP3    H135129   1.703   3.267  13.622  0.3112 -1.6141  1.2526
 4546TIP3    H235130   1.791   3.363  13.545 -1.9073  0.9272  1.7213
 4547TIP3   OH235131   0.465   0.847  16.199 -0.0732  0.2131 -0.3387
 4547TIP3    H135132   0.470   0.923  16.257 -0.2221 -0.3292  0.4009
 4547TIP3    H235133   0.531   0.865  16.131 -0.1895  1.0483 -0.2445
 4548TIP3   OH235134   1.197   5.050  14.541  0.4137  0.1811  0.1739
 4548TIP3    H135135   1.191   5.104  14.463 -0.5028  0.9687  0.7686
 4548TIP3    H235136   1.282   5.073  14.580  1.3429 -0.9414 -1.0722
 4549TIP3   OH235137   2.499   6.149  13.151  0.0508 -0.3100  0.6301
 4549TIP3    H135138   2.587   6.150  13.189  0.7331 -0.4959 -0.8405
 4549TIP3    H235139   2.487   6.059  13.120 -1.6475 -0.9396  2.8715
 4550TIP3   OH235140   0.998   3.381   0.529  0.2101  0.3413 -0.2321
 4550TIP3    H135141   1.077   3.426   0.559 -0.1554  0.6919  0.2168
 4550TIP3    H235142   0.947   3.367   0.608  0.2621 -0.7767 -0.3892
 4551TIP3   OH235143   1.964   1.518  15.352 -0.1691 -0.0915 -0.2290
 4551TIP3    H135144   2.033   1.579  15.323 -0.8867  0.0734 -1.7129
 4551TIP3    H235145   1.902   1.573  15.400 -0.7131  0.3608 -1.3903
 4552TIP3   OH235146   1.037   2.529   3.970  0.0275 -0.2443  0.0960
 4552TIP3    H135147   1.025   2.459   4.034 -0.0565  0.7247  1.1661
 4552TIP3    H235148   1.130   2.528   3.950  0.0118 -0.7105  0.0248
 4553TIP3   OH235149   0.385   5.577   0.836 -1.1074  0.1724 -0.5202
 4553TIP3    H135150   0.401   5.601   0.744  0.2229 -2.4582 -1.0766
 4553TIP3    H235151   0.466   5.602   0.881 -0.7288 -0.8252 -0.6129
 4554TIP3   OH235152   3.232   1.544   5.567 -0.3574  0.1069 -0.0864
 4554TIP3    H135153   3.172   1.618   5.578  1.1822  1.1800  1.6995
 4554TIP3    H235154   3.181   1.478   5.520 -2.3540  1.6175 -0.1590
 4555TIP3   OH235155   0.231   2.399   0.401 -0.2338  0.4981  0.6143
 4555TIP3    H135156   0.283   2.473   0.432  0.3942  0.7603 -1.0160
 4555TIP3    H235157   0.147   2.437   0.377  0.4464  0.9355 -1.2682
 4556TIP3   OH235158   4.939   4.608  10.490  0.6461  0.0458 -0.0649
 4556TIP3    H135159   4.936   4.513  10.504  0.4400 -0.1037 -1.0483
 4556TIP3    H235160   4.847   4.633  10.479  0.7002  0.3646  0.1967
 4557TIP3   OH235161   5.252   5.287   4.149 -0.1013 -0.5102 -0.5241
 4557TIP3    H135162   5.266   5.313   4.240  0.0713 -0.5902 -0.5258
 4557TIP3    H235163   5.270   5.366   4.098 -0.1121 -0.4878 -0.4933
 4558TIP3   OH235164   6.369   4.993  11.385  0.9614  0.0134  1.0059
 4558TIP3    H135165   6.349   5.058  11.318 -1.0131 -1.1358  0.4008
 4558TIP3    H235166   6.349   5.037  11.468  0.2078  0.3667  0.6416
 4559TIP3   OH235167   5.724   0.744   1.435 -0.3100  0.1370  0.3552
 4559TIP3    H135168   5.810   0.735   1.477 -0.3184  1.4643  0.7013
 4559TIP3    H235169   5.661   0.729   1.505 -0.3882 -1.2918  0.0046
 4560TIP3   OH235170   2.721   2.408  12.856 -0.2124  0.1746  0.5679
 4560TIP3    H135171   2.657   2.358  12.806  2.5293 -1.5886 -1.4934
 4560TIP3    H235172   2.796   2.349  12.865  1.8893  2.7281  1.1211
 4561TIP3   OH235173   5.179   1.377  11.203  0.2670 -0.3999  0.1970
 4561TIP3    H135174   5.255   1.379  11.262 -1.2090 -0.7229  2.2516
 4561TIP3    H235175   5.122   1.309  11.240 -1.3803  0.3736 -0.7798
 4562TIP3   OH235176   4.219   2.462   3.687 -0.0836  0.0309 -0.1504
 4562TIP3    H135177   4.145   2.517   3.664  1.1719  1.2229 -1.6069
 4562TIP3    H235178   4.269   2.513   3.751 -1.1510 -1.3433  1.9008
 4563TIP3   OH235179   2.303   3.755  12.861  0.0277  0.1450 -0.0574
 4563TIP3    H135180   2.215   3.744  12.824 -0.4794 -1.6215  1.4588
 4563TIP3    H235181   2.361   3.711  12.799 -0.8233 -2.9327  1.1069
 4564TIP3   OH235182   5.038   6.363  15.794 -0.3072  0.3550 -0.1023
 4564TIP3    H135183   5.093   6.352  15.871 -1.7338 -0.5959  0.8425
 4564TIP3    H235184   5.085   6.317  15.724 -0.0626 -0.7670  0.7665
 4565TIP3   OH235185   6.788   5.826  12.118 -0.2609 -0.0642 -0.1192
 4565TIP3    H135186   6.800   5.913  12.080 -0.5165 -0.9258 -2.3183
 4565TIP3    H235187   6.713   5.835  12.177  1.4136  1.7940  1.9267
 4566TIP3   OH235188   5.332   1.904   0.330  0.1708 -0.4579 -0.0154
 4566TIP3    H135189   5.275   1.839   0.290 -0.8502 -0.1641  0.9107
 4566TIP3    H235190   5.281   1.938   0.404  0.0985  2.4179 -1.2954
 4567TIP3   OH235191   4.070   4.606   0.812  0.3978 -0.0551  0.1379
 4567TIP3    H135192   4.026   4.529   0.848 -1.2511  0.3159 -0.9878
 4567TIP3    H235193   4.064   4.671   0.881 -1.9547  0.3715 -0.3985
 4568TIP3   OH235194   4.821   5.041   3.391 -0.3214 -0.5598 -0.4548
 4568TIP3    H135195   4.882   4.991   3.446 -0.7913  1.0561  1.6771
 4568TIP3    H235196   4.735   5.020   3.425 -0.7609 -0.6082 -1.5541
 4569TIP3   OH235197   6.613   5.943  16.415 -0.5835  0.4453 -0.1691
 4569TIP3    H135198   6.679   5.993  16.462 -0.9737  1.3339 -0.5610
 4569TIP3    H235199   6.660   5.865  16.383 -0.1383  0.2114  1.0138
 4570TIP3   OH235200   6.859   2.040   3.253  0.2675 -0.0782 -0.5108
 4570TIP3    H135201   6.850   2.128   3.217 -2.4006 -0.0477  0.0439
 4570TIP3    H235202   6.832   2.049   3.345  2.7514 -0.9882  0.4140
 4571TIP3   OH235203   1.802   0.124   2.618  0.3684 -0.8023  1.0472
 4571TIP3    H135204   1.877   0.151   2.567  0.3073  1.3655  1.9852
 4571TIP3    H235205   1.834   0.052   2.673  2.3838  1.3206  2.8335
 4572TIP3   OH235206   3.700   3.254   2.559 -0.3976  0.1727 -0.2094
 4572TIP3    H135207   3.641   3.267   2.634  1.4970  0.9388  1.2416
 4572TIP3    H235208   3.785   3.239   2.599  0.4723 -0.5984 -2.2441
 4573TIP3   OH235209   5.373   4.097   0.037  0.0848 -0.5661  0.2003
 4573TIP3    H135210   5.280   4.075   0.047  0.4159 -1.9415  0.3329
 4573TIP3    H235211   5.420   4.031   0.087  1.1297  0.5166  0.7039
 4574TIP3   OH235212   5.189   1.463   3.697  0.0578  0.0118 -0.0584
 4574TIP3    H135213   5.148   1.452   3.611  1.2264  0.2727 -0.6613
 4574TIP3    H235214   5.115   1.470   3.757 -0.8291  1.7356 -1.2650
 4575TIP3   OH235215   1.110   5.370  16.035 -0.2744 -0.0889  0.2705
 4575TIP3    H135216   1.160   5.294  16.006  0.2097  0.1184  0.5557
 4575TIP3    H235217   1.171   5.421  16.088  0.4644  2.1528 -2.4951
 4576TIP3   OH235218   5.807   6.778  14.864  0.4931 -0.1308 -0.0305
 4576TIP3    H135219   5.845   6.703  14.911 -0.9229 -0.0603  1.3131
 4576TIP3    H235220   5.875   6.846  14.870  1.8873 -1.3147 -1.4602
 4577TIP3   OH235221   6.300   6.316  10.969 -0.5010 -0.0692 -0.0967
 4577TIP3    H135222   6.289   6.367  10.889  0.7660 -0.2657 -0.4266
 4577TIP3    H235223   6.395   6.307  10.978 -0.6545 -3.5634 -0.8327
 4578TIP3   OH235224   5.665   2.739   0.551  0.6432 -0.4586 -0.4066
 4578TIP3    H135225   5.594   2.754   0.489 -0.0679 -0.3869  0.4072
 4578TIP3    H235226   5.653   2.648   0.579  0.5577 -0.2838  0.1264
 4579TIP3   OH235227   1.745   0.461   3.597 -0.5388  0.4706 -0.1160
 4579TIP3    H135228   1.702   0.403   3.659 -0.5703 -1.3334 -1.7195
 4579TIP3    H235229   1.814   0.407   3.558  0.5567  2.0553 -0.4569
 4580TIP3   OH235230   3.099   6.355   6.764  0.0137  0.6422 -0.2001
 4580TIP3    H135231   3.021   6.411   6.766  0.5284  1.4391 -1.1695
 4580TIP3    H235232   3.170   6.413   6.792  0.1069 -0.4410  2.0502
 4581TIP3   OH235233   1.523   4.409  11.080 -0.8733  0.2461 -0.0379
 4581TIP3    H135234   1.497   4.499  11.102 -0.2367  0.3437  0.3137
 4581TIP3    H235235   1.617   4.413  11.067 -0.9522 -0.2170 -0.8244
 4582TIP3   OH235236   1.337   3.299  14.059 -0.0939  0.0208  0.2091
 4582TIP3    H135237   1.329   3.388  14.023 -0.7317 -0.2580 -0.3480
 4582TIP3    H235238   1.392   3.253  13.996 -0.0172 -0.0655  0.3399
 4583TIP3   OH235239   0.650   0.214   1.959  0.0326  0.2778  0.3228
 4583TIP3    H135240   0.715   0.279   1.931  0.1826  0.9803  2.1379
 4583TIP3    H235241   0.658   0.213   2.055 -0.3743 -2.0066  0.3783
 4584TIP3   OH235242   4.335   4.929   1.095  0.3891 -0.1766  0.2858
 4584TIP3    H135243   4.418   4.924   1.047  0.9354  0.3714  1.1384
 4584TIP3    H235244   4.290   5.004   1.057  0.4321 -0.2729  0.0446
 4585TIP3   OH235245   2.545   6.477   3.612 -0.3126  0.0760  0.4071
 4585TIP3    H135246   2.476   6.421   3.647 -1.0154  0.0733 -0.9098
 4585TIP3    H235247   2.551   6.453   3.519  1.7035 -0.1672  0.5477
 4586TIP3   OH235248   1.440   2.535   3.340  0.0807  0.2670 -0.6223
 4586TIP3    H135249   1.505   2.599   3.309  0.2132 -0.4987 -2.0175
 4586TIP3    H235250   1.413   2.488   3.261  0.6042 -1.9803  0.4641
 4587TIP3   OH235251   2.890   2.930  14.348  0.1976  0.3474 -0.1597
 4587TIP3    H135252   2.824   2.987  14.309 -0.2521  0.5633  0.8960
 4587TIP3    H235253   2.889   2.852  14.293  0.0374  0.9030 -0.9638
 4588TIP3   OH235254   3.776   6.835  16.940  0.4266  0.4804 -0.5074
 4588TIP3    H135255   3.742   6.760  16.892 -1.0712  0.8495 -0.0979
 4588TIP3    H235256   3.845   6.799  16.996 -0.7428 -0.7428  0.2129
 4589TIP3   OH235257   1.830   6.740  14.868  0.1064 -0.1238 -0.5575
 4589TIP3    H135258   1.811   6.732  14.962 -2.3710 -1.6111 -1.0921
 4589TIP3    H235259   1.781   6.817  14.840  1.2483  0.6163 -0.5717
 4590TIP3   OH235260   0.189   4.322  14.070  0.9712  0.4968 -0.4887
 4590TIP3    H135261   0.268   4.375  14.063  2.1504 -1.2950 -1.2639
 4590TIP3    H235262   0.193   4.285  14.158  2.5258 -1.8056 -1.4454
 4591TIP3   OH235263   3.741   5.287  14.272 -0.8745 -0.8359 -0.4271
 4591TIP3    H135264   3.754   5.274  14.178 -0.1123  2.2776 -0.8732
 4591TIP3    H235265   3.815   5.242  14.313 -0.0374 -0.4878 -1.5099
 4592TIP3   OH235266   4.975   1.298   2.142 -0.0048  0.3150  0.4150
 4592TIP3    H135267   4.935   1.212   2.133 -2.3550  1.2480  0.9865
 4592TIP3    H235268   4.926   1.340   2.214  0.2265  2.5231 -0.6172
 4593TIP3   OH235269   5.411   0.718   1.331 -0.1995 -0.1640  0.0391
 4593TIP3    H135270   5.459   0.658   1.274 -1.1774 -1.4781  0.5410
 4593TIP3    H235271   5.433   0.805   1.299  1.5868 -0.7600 -0.4555
 4594TIP3   OH235272   5.121   0.454   5.328 -0.7028  0.1864  0.2082
 4594TIP3    H135273   5.094   0.427   5.240 -1.7808  0.0130  0.5829
 4594TIP3    H235274   5.053   0.514   5.357  0.3449  1.3243  0.4056
 4595TIP3   OH235275   6.254   4.224  12.380 -0.3224  0.6632 -0.5487
 4595TIP3    H135276   6.349   4.230  12.372 -0.0480 -1.7252  0.1722
 4595TIP3    H235277   6.237   4.242  12.473 -0.6108  1.1659 -0.6913
 4596TIP3   OH235278   2.603   3.661   4.857 -0.1016 -0.0122 -0.3762
 4596TIP3    H135279   2.601   3.657   4.952 -1.3655  0.1723 -0.3790
 4596TIP3    H235280   2.620   3.571   4.829  4.5749  0.4896  0.0272
 4597TIP3   OH235281   2.589   0.293   2.704 -0.1195  0.7044  0.5129
 4597TIP3    H135282   2.587   0.386   2.724 -1.3015  0.8213 -0.0742
 4597TIP3    H235283   2.679   0.277   2.675 -0.2067  1.9333 -0.5426
 4598TIP3   OH235284   2.496   3.870  12.453  0.3199 -0.5509 -0.1972
 4598TIP3    H135285   2.573   3.863  12.398  0.1253 -1.9432 -0.3265
 4598TIP3    H235286   2.490   3.963  12.474  2.3206 -0.4877  0.2539
 4599TIP3   OH235287   5.326   5.457  11.056 -0.5169  0.2219 -0.0526
 4599TIP3    H135288   5.344   5.532  11.112 -0.2713  1.0958 -1.2598
 4599TIP3    H235289   5.381   5.471  10.979 -1.2985 -0.6224 -0.7926
 4600TIP3   OH235290   3.876   5.123   5.896  0.2877  0.0769  0.2979
 4600TIP3    H135291   3.866   5.129   5.991 -0.4151 -1.5513  0.3507
 4600TIP3    H235292   3.879   5.215   5.866 -1.8528  0.6378  1.6302
 4601TIP3   OH235293   4.360   2.107  15.474 -0.4763  0.1104  0.4570
 4601TIP3    H135294   4.281   2.058  15.449 -0.6869  0.4646  0.4197
 4601TIP3    H235295   4.363   2.180  15.413  0.5707 -0.5777 -0.3356
 4602TIP3   OH235296   3.313   6.623   6.723 -0.0490  0.4040  0.0399
 4602TIP3    H135297   3.352   6.539   6.745 -1.3201 -0.8842 -2.3049
 4602TIP3    H235298   3.241   6.633   6.786  2.3876  1.7060  2.8662
 4603TIP3   OH235299   3.514   6.051  11.622  0.0295 -0.5596 -0.0459
 4603TIP3    H135300   3.539   6.004  11.543 -0.1094  1.6034 -1.4560
 4603TIP3    H235301   3.422   6.027  11.637  0.5054 -2.2117  0.4401
 4604TIP3   OH235302   6.314   1.193   1.728 -0.0810  0.0456  0.4494
 4604TIP3    H135303   6.324   1.200   1.822 -1.4902  0.6929  0.5763
 4604TIP3    H235304   6.294   1.282   1.699 -1.5779 -0.4630 -0.1852
 4605TIP3   OH235305   5.336   3.862   0.591 -0.5287 -0.5862 -0.1704
 4605TIP3    H135306   5.333   3.823   0.678 -0.1213  2.2827  1.2715
 4605TIP3    H235307   5.251   3.905   0.581 -0.7692 -1.3189 -1.4379
 4606TIP3   OH235308   3.530   0.022   6.305  0.1363  0.0984 -0.0833
 4606TIP3    H135309   3.484  -0.022   6.377 -0.2931 -1.8347 -1.4557
 4606TIP3    H235310   3.609  -0.030   6.292 -1.0785 -1.3009 -2.6980
 4607TIP3   OH235311   0.431   0.447   4.513 -0.2179 -0.3741  0.4941
 4607TIP3    H135312   0.435   0.463   4.419 -1.1927 -0.8106  0.3681
 4607TIP3    H235313   0.463   0.528   4.553 -1.4321  0.4607 -0.1772
 4608TIP3   OH235314   3.193   1.905  16.911 -0.0953  0.0087 -0.2332
 4608TIP3    H135315   3.203   1.943  16.998  2.0386  0.3162 -0.5721
 4608TIP3    H235316   3.152   1.974  16.859  0.3876  0.5195  0.0575
 4609TIP3   OH235317   6.553   6.280   3.786  0.4427 -0.5783  0.1055
 4609TIP3    H135318   6.459   6.274   3.769  0.5716 -0.0806 -0.8577
 4609TIP3    H235319   6.593   6.278   3.699  1.1352  2.1481  0.2721
 4610TIP3   OH235320   1.430   3.324   5.563  0.4915 -0.2414 -0.4342
 4610TIP3    H135321   1.436   3.278   5.647 -2.1404  1.1102  0.6141
 4610TIP3    H235322   1.377   3.267   5.508 -0.6041  0.3438 -0.0073
 4611TIP3   OH235323   2.067   3.888   2.215 -0.8074  0.5655 -0.2552
 4611TIP3    H135324   1.976   3.909   2.196 -0.9291  0.4622  0.2057
 4611TIP3    H235325   2.063   3.807   2.267 -0.4924  0.8777  0.2687
 4612TIP3   OH235326   0.078   2.132   1.902 -0.7194  0.3641  0.1706
 4612TIP3    H135327   0.164   2.137   1.862 -1.1770  0.9335 -0.7887
 4612TIP3    H235328   0.083   2.188   1.979 -0.6053  1.5056 -0.6364
 4613TIP3   OH235329   4.242   0.326   1.713 -0.4083  0.1095 -0.1215
 4613TIP3    H135330   4.324   0.347   1.670  0.2273 -1.1668  0.4027
 4613TIP3    H235331   4.212   0.409   1.751  1.0814  0.4303  0.4173
 4614TIP3   OH235332   2.489   0.347   1.319 -0.3679  0.0227  0.5699
 4614TIP3    H135333   2.486   0.253   1.337  1.0070  0.1031  1.3861
 4614TIP3    H235334   2.434   0.386   1.387  1.0066 -0.0396  1.7690
 4615TIP3   OH235335   6.836   1.243   5.477 -0.3472  0.1048  0.0100
 4615TIP3    H135336   6.817   1.203   5.562 -0.7383  0.4582  0.0930
 4615TIP3    H235337   6.896   1.182   5.435  1.4582  0.8719  1.3336
 4616TIP3   OH235338   0.638   2.495  12.228  0.1033  0.0988  0.0242
 4616TIP3    H135339   0.652   2.589  12.236  0.5616 -0.0630  1.3231
 4616TIP3    H235340   0.680   2.457  12.305 -1.5675 -1.0394  0.4298
 4617TIP3   OH235341   6.368   5.970  15.049  0.0414 -0.0435  0.0397
 4617TIP3    H135342   6.454   6.005  15.029 -0.1460  0.3306 -0.1088
 4617TIP3    H235343   6.335   6.024  15.121  0.4002 -0.9048  0.8667
 4618TIP3   OH235344   3.670   3.123  14.240 -0.1937  0.4064 -0.1840
 4618TIP3    H135345   3.640   3.163  14.158  0.2505  0.5940 -0.2626
 4618TIP3    H235346   3.749   3.074  14.215  1.4959  2.5907  0.5517
 4619TIP3   OH235347   0.408   0.922  15.420 -0.4701 -0.1816 -0.3726
 4619TIP3    H135348   0.387   0.829  15.412 -0.2951 -0.1321 -1.5617
 4619TIP3    H235349   0.408   0.955  15.330  0.7040  0.6924 -0.0816
 4620TIP3   OH235350   3.733   3.274  11.837 -0.1813 -0.6826 -0.2518
 4620TIP3    H135351   3.733   3.308  11.748 -0.3031  0.7448  0.2700
 4620TIP3    H235352   3.825   3.256  11.856  0.0281  0.3792 -0.1841
 4621TIP3   OH235353   2.591   1.285   1.693  0.0287 -0.2759 -0.4813
 4621TIP3    H135354   2.578   1.298   1.599  0.0456 -1.7910 -0.7239
 4621TIP3    H235355   2.537   1.353   1.734 -0.2494  0.1950 -1.5783
 4622TIP3   OH235356   5.074   0.949  13.333  0.0306 -0.1175  0.3796
 4622TIP3    H135357   5.075   0.956  13.428  0.8401  0.8707  0.3159
 4622TIP3    H235358   5.022   1.023  13.303 -1.4607 -1.2489  0.0864
 4623TIP3   OH235359   5.495   4.876   4.239  0.1515 -0.5106  0.3415
 4623TIP3    H135360   5.412   4.913   4.209  0.8704  0.5570 -0.4330
 4623TIP3    H235361   5.549   4.873   4.160  2.2475  2.6976  1.4636
 4624TIP3   OH235362   1.747   4.145   4.989 -0.1683 -0.4302 -0.1601
 4624TIP3    H135363   1.729   4.055   5.015 -0.8254  0.1848  1.6583
 4624TIP3    H235364   1.660   4.185   4.979  0.1000 -0.1507 -1.6494
 4625TIP3   OH235365   1.607   6.016  15.637 -0.0414 -0.0002  0.2288
 4625TIP3    H135366   1.641   6.044  15.721 -2.3734 -0.5953  1.4625
 4625TIP3    H235367   1.584   6.097  15.591  0.9586  0.3150  0.2796
 4626TIP3   OH235368   2.438   1.364  16.345 -0.6018  0.4341 -0.2652
 4626TIP3    H135369   2.358   1.345  16.296 -1.4873  1.9507  0.5319
 4626TIP3    H235370   2.408   1.400  16.428  0.8969  1.8005 -0.2572
 4627TIP3   OH235371   2.886   3.896   1.065  0.6875 -0.0316  0.2218
 4627TIP3    H135372   2.951   3.841   1.107  1.1326  1.7896  2.0988
 4627TIP3    H235373   2.804   3.873   1.108  0.7841  0.3779  0.6339
 4628TIP3   OH235374   5.283   0.461  13.135 -0.1832 -0.1813  0.0684
 4628TIP3    H135375   5.220   0.453  13.064 -0.9490  0.1162  0.6951
 4628TIP3    H235376   5.349   0.395  13.116 -0.8138 -0.6720 -0.4824
 4629TIP3   OH235377   4.954   6.081  11.026 -0.0217 -0.0707  0.5746
 4629TIP3    H135378   4.941   6.156  10.967  1.7354 -0.6594 -0.6492
 4629TIP3    H235379   4.865   6.048  11.043 -0.6196  0.1146 -1.8029
 4630TIP3   OH235380   0.343   4.013   3.235  0.3474 -0.1258 -0.5134
 4630TIP3    H135381   0.390   3.951   3.180  0.3785  0.1992 -0.8606
 4630TIP3    H235382   0.309   4.078   3.173  0.0347  0.0201 -0.1914
 4631TIP3   OH235383   2.079   0.312   3.876 -0.0736  1.0103  0.2100
 4631TIP3    H135384   2.102   0.402   3.854 -0.3925  0.6811 -1.5724
 4631TIP3    H235385   2.098   0.262   3.797 -2.6208 -0.0159  0.1547
 4632TIP3   OH235386   1.537   2.370  13.946  0.7521  0.1572  0.2921
 4632TIP3    H135387   1.486   2.418  14.010  0.2896 -0.8006  0.6591
 4632TIP3    H235388   1.624   2.363  13.985  0.0547 -1.9141  1.6797
 4633TIP3   OH235389   5.450   0.622  11.266 -0.5270 -0.0922  0.7037
 4633TIP3    H135390   5.503   0.613  11.186  0.0270 -1.0218  1.1615
 4633TIP3    H235391   5.424   0.714  11.266 -0.6751 -0.1041 -0.6342
 4634TIP3   OH235392   1.899   1.714   2.396  0.2290  0.6037 -0.3218
 4634TIP3    H135393   1.943   1.633   2.420  1.3454  0.8956 -1.2970
 4634TIP3    H235394   1.903   1.769   2.474 -0.6676 -0.3034  0.3941
 4635TIP3   OH235395   6.855   1.130  12.169 -0.3562  0.2190  0.9422
 4635TIP3    H135396   6.816   1.184  12.237  1.5024 -0.4583  2.6510
 4635TIP3    H235397   6.827   1.041  12.190 -0.2769  0.0645  0.4286
 4636TIP3   OH235398   5.920   5.610  13.892 -0.3494 -0.0466  0.0542
 4636TIP3    H135399   5.959   5.535  13.935 -2.7132 -2.0142 -0.9967
 4636TIP3    H235400   5.874   5.657  13.962 -1.0715 -1.1265  0.3379
 4637TIP3   OH235401   5.602   1.030  10.872 -0.3504 -0.0102 -0.2268
 4637TIP3    H135402   5.601   0.945  10.827  1.4008 -0.3846  0.3462
 4637TIP3    H235403   5.641   1.090  10.809  0.8113 -0.2320  0.2468
 4638TIP3   OH235404   0.046   0.821  14.560 -0.2546  0.1019  0.0743
 4638TIP3    H135405   0.040   0.731  14.593 -0.1367 -0.2770 -0.9041
 4638TIP3    H235406  -0.009   0.872  14.619 -0.7645 -0.7112  0.3196
 4639TIP3   OH235407   3.040   3.971  17.003 -0.2498  0.3296  0.0549
 4639TIP3    H135408   3.011   3.886  17.035 -1.1406  0.9542  0.9812
 4639TIP3    H235409   2.964   4.028  17.015  0.3426  1.2675 -0.5192
 4640TIP3   OH235410   5.089   5.594  12.920  0.3344  0.6678 -0.2806
 4640TIP3    H135411   5.050   5.649  12.988  0.3926  2.5614 -1.6833
 4640TIP3    H235412   5.151   5.651  12.876  3.7239 -1.8217  0.8910
 4641TIP3   OH235413   5.766   1.781  14.479 -0.1442 -0.2894  0.1512
 4641TIP3    H135414   5.833   1.731  14.433  0.7958 -0.1539  1.3432
 4641TIP3    H235415   5.736   1.722  14.549 -0.1419  0.2279  0.5933
 4642TIP3   OH235416   5.713   3.421   4.878 -0.0327  0.5587 -0.4405
 4642TIP3    H135417   5.688   3.475   4.953  1.1708  1.6235 -0.7714
 4642TIP3    H235418   5.741   3.484   4.811 -2.2832 -0.2713 -2.3136
 4643TIP3   OH235419   1.112   4.951  12.993 -0.4411 -0.5142 -0.5364
 4643TIP3    H135420   1.118   4.880  12.929 -0.6167 -0.7639 -0.2771
 4643TIP3    H235421   1.123   4.908  13.078  2.1642  0.0914 -0.4755
 4644TIP3   OH235422   5.655   5.674  16.064  0.2437  0.4380  0.8395
 4644TIP3    H135423   5.612   5.590  16.082  0.1861  0.3378  0.2343
 4644TIP3    H235424   5.600   5.738  16.108 -1.9931  0.6076 -1.9288
 4645TIP3   OH235425   4.848   5.729  13.774  0.5095 -0.2210  0.0628
 4645TIP3    H135426   4.774   5.696  13.723  0.9498  0.0720 -0.7786
 4645TIP3    H235427   4.842   5.824  13.766  1.0551 -0.2002 -0.1287
 4646TIP3   OH235428   5.526   3.324   1.241 -0.0410 -0.0425 -0.0916
 4646TIP3    H135429   5.581   3.396   1.269 -0.2306  0.2844 -0.5565
 4646TIP3    H235430   5.546   3.253   1.302 -1.7571  1.2030  2.0427
 4647TIP3   OH235431   6.454   5.790  13.107  0.3850 -0.7617 -0.2910
 4647TIP3    H135432   6.417   5.723  13.051  1.6749 -0.3834 -1.6653
 4647TIP3    H235433   6.528   5.826  13.057  0.6163  0.6884  0.9909
 4648TIP3   OH235434   3.262   5.804  15.236 -0.6546  0.6928  0.3707
 4648TIP3    H135435   3.307   5.720  15.228 -0.5420  0.5976  1.7078
 4648TIP3    H235436   3.315   5.865  15.185  0.0574  0.2469  0.5590
 4649TIP3   OH235437   1.874   5.598  16.870 -0.8077  0.0117  0.0311
 4649TIP3    H135438   1.838   5.662  16.931 -1.5755  0.7540 -1.1545
 4649TIP3    H235439   1.800   5.543  16.846 -0.9253  0.7961 -1.5140
 4650TIP3   OH235440   0.352   3.426   2.176  0.3372  0.0614 -0.5748
 4650TIP3    H135441   0.259   3.440   2.157  0.3991  0.7742 -0.3722
 4650TIP3    H235442   0.388   3.392   2.095 -0.0803 -0.1216 -0.6863
 4651TIP3   OH235443   1.665   5.749   2.580 -0.4990 -1.0295  0.4319
 4651TIP3    H135444   1.607   5.692   2.631  0.2781 -0.4070  2.0516
 4651TIP3    H235445   1.716   5.797   2.645 -0.0822  0.4467 -0.9139
 4652TIP3   OH235446   1.732   1.027  16.564  0.3680 -0.2219  0.2888
 4652TIP3    H135447   1.739   0.977  16.482  0.3563  0.6526 -0.2562
 4652TIP3    H235448   1.823   1.042  16.589  0.3726 -0.9232  0.7145
 4653TIP3   OH235449   2.323   0.990  15.382 -0.2894  0.1959  0.2622
 4653TIP3    H135450   2.371   1.042  15.317 -1.2756  0.2411 -0.4523
 4653TIP3    H235451   2.234   1.025  15.380 -0.5966 -0.5096  0.8830
 4654TIP3   OH235452   5.677   4.220  12.426 -0.3057  0.0262  0.0389
 4654TIP3    H135453   5.694   4.266  12.509 -1.3293  1.7740 -0.6677
 4654TIP3    H235454   5.659   4.130  12.452 -0.7125  0.5606  1.7367
 4655TIP3   OH235455   0.485   0.709   2.391  0.5021 -0.0497  0.8911
 4655TIP3    H135456   0.517   0.645   2.327 -1.7904  1.7754 -2.3514
 4655TIP3    H235457   0.390   0.706   2.383  0.2593  3.9852  0.1760
 4656TIP3   OH235458   3.890   3.426   4.417  0.4301  0.5564 -0.4332
 4656TIP3    H135459   3.837   3.500   4.387 -0.7570  0.5628  1.5165
 4656TIP3    H235460   3.952   3.465   4.480  0.5403  0.0471 -0.2245
 4657TIP3   OH235461   6.300   5.332   4.649  0.1290 -0.0677 -0.2670
 4657TIP3    H135462   6.304   5.298   4.739 -0.3343  2.3006  0.7058
 4657TIP3    H235463   6.207   5.332   4.627  0.0592  1.0958 -0.0202
 4658TIP3   OH235464   6.756   1.160  11.519  0.4789  0.6503 -0.2567
 4658TIP3    H135465   6.852   1.160  11.516  0.5995  0.0683  1.9777
 4658TIP3    H235466   6.735   1.170  11.612 -1.6772  2.8480 -0.8817
 4659TIP3   OH235467   3.308   0.297   2.786  0.3087  0.2552 -0.4160
 4659TIP3    H135468   3.403   0.290   2.796  0.3999 -0.1481 -1.4553
 4659TIP3    H235469   3.294   0.387   2.758  0.3549  0.3990  0.0152
 4660TIP3   OH235470   2.625   3.573  13.735  0.0321 -0.1534 -0.5262
 4660TIP3    H135471   2.694   3.579  13.669 -0.8069 -1.1317 -1.5374
 4660TIP3    H235472   2.658   3.512  13.800  0.1899 -0.4755 -0.9091
 4661TIP3   OH235473   5.634   4.262   3.836  0.4409  1.0293 -1.1245
 4661TIP3    H135474   5.685   4.222   3.907 -2.0550 -1.4133 -0.5640
 4661TIP3    H235475   5.644   4.202   3.762 -0.8279  1.0394 -1.3154
 4662TIP3   OH235476   4.388   1.877  11.344 -0.1320  0.2915  0.7043
 4662TIP3    H135477   4.357   1.848  11.258  2.4323 -1.5360  0.2585
 4662TIP3    H235478   4.333   1.952  11.366 -2.2655 -0.4718 -1.5496
 4663TIP3   OH235479   6.504   4.913   3.119 -0.1332  0.0224 -0.5262
 4663TIP3    H135480   6.563   4.852   3.164 -0.2773  0.3267  0.0984
 4663TIP3    H235481   6.439   4.857   3.077 -0.6717 -0.2501  0.6205
 4664TIP3   OH235482   5.962   3.739  16.418  0.2298  0.1554 -0.3924
 4664TIP3    H135483   5.994   3.820  16.459  1.3247 -0.1037 -0.6851
 4664TIP3    H235484   5.888   3.712  16.471  1.3514  0.0477  1.1974
 4665TIP3   OH235485   2.539   3.708   3.586 -0.0924  0.1151  0.2867
 4665TIP3    H135486   2.474   3.770   3.620  0.3900  1.1338 -0.5701
 4665TIP3    H235487   2.528   3.712   3.491  1.8848  1.1092  0.0441
 4666TIP3   OH235488   0.240   1.165  13.298  0.0144 -0.4695 -0.1600
 4666TIP3    H135489   0.285   1.081  13.310 -0.5026 -0.5807  1.1798
 4666TIP3    H235490   0.165   1.161  13.358 -1.2834  0.0749 -1.6841
 4667TIP3   OH235491   6.391   5.351  13.132  0.0649  0.1716  0.2674
 4667TIP3    H135492   6.307   5.344  13.087  1.5333 -1.7759 -2.4356
 4667TIP3    H235493   6.411   5.261  13.159  1.7837  0.3694 -0.2185
 4668TIP3   OH235494   5.189   2.450   1.729  0.2417 -0.0194  0.5535
 4668TIP3    H135495   5.282   2.432   1.718  0.2608  1.2959 -2.4643
 4668TIP3    H235496   5.184   2.546   1.729 -1.1956 -0.0559 -1.0025
 4669TIP3   OH235497   5.060   0.512  10.101 -0.3923 -0.1766  0.2815
 4669TIP3    H135498   5.146   0.486  10.068  0.3981  2.7004 -0.2126
 4669TIP3    H235499   5.071   0.512  10.196  0.3714  0.7155  0.2120
 4670TIP3   OH235500   0.746   0.655   3.161 -0.0203 -0.1615  0.1686
 4670TIP3    H135501   0.680   0.653   3.230  0.4882 -1.8042  0.6569
 4670TIP3    H235502   0.726   0.580   3.106  2.0461 -1.4104  0.9808
 4671TIP3   OH235503   6.008   2.229  13.811  0.1842  0.0150  0.6370
 4671TIP3    H135504   6.032   2.321  13.798  0.8108 -0.3614 -1.2442
 4671TIP3    H235505   5.927   2.217  13.762 -0.5136 -0.1979  1.8022
 4672TIP3   OH235506   6.222   1.684  11.308  0.1245  0.4115  0.1769
 4672TIP3    H135507   6.157   1.692  11.378  2.2936  1.2511  2.2211
 4672TIP3    H235508   6.223   1.591  11.286 -1.1576  0.2602  0.6862
 4673TIP3   OH235509   5.121   4.547   3.197 -0.0916  0.1299  0.0543
 4673TIP3    H135510   5.051   4.604   3.228 -0.2535  0.2579 -0.5319
 4673TIP3    H235511   5.081   4.496   3.127  0.6170  0.8062 -0.8713
 4674TIP3   OH235512   5.868   3.410   3.216  0.4475 -0.0446 -0.0938
 4674TIP3    H135513   5.821   3.370   3.289 -1.0711  1.1292 -0.3492
 4674TIP3    H235514   5.902   3.337   3.166  1.1324 -0.8832  1.5239
 4675TIP3   OH235515   4.044   6.810  15.889 -0.0020  0.1974 -0.3745
 4675TIP3    H135516   4.134   6.815  15.856 -0.3575  0.9221 -1.2663
 4675TIP3    H235517   4.026   6.716  15.896 -0.8446 -0.2019 -4.9913
 4676TIP3   OH235518   3.101   0.840  15.856  0.6162  0.4541 -0.2214
 4676TIP3    H135519   3.023   0.887  15.827  0.8440  1.3644  0.5817
 4676TIP3    H235520   3.118   0.874  15.944  0.9716 -0.9269  0.2683
 4677TIP3   OH235521   0.864   2.022  15.822 -0.0280  0.3235  0.4164
 4677TIP3    H135522   0.809   1.995  15.748 -0.8982 -1.7927  1.7395
 4677TIP3    H235523   0.803   2.029  15.896  1.3843 -1.9318  1.8983
 4678TIP3   OH235524   4.085   1.456   1.913  0.5897 -0.4007 -0.1172
 4678TIP3    H135525   4.006   1.401   1.909  0.7722 -0.6014 -2.2285
 4678TIP3    H235526   4.158   1.393   1.912  0.8287 -0.2145  1.8199
 4679TIP3   OH235527   0.614   2.404   1.833  0.0330 -0.2673  0.8465
 4679TIP3    H135528   0.628   2.489   1.874  2.6110 -0.1259 -0.1574
 4679TIP3    H235529   0.683   2.348   1.867 -0.6293 -1.4987  0.2519
 4680TIP3   OH235530   4.338   0.467  11.451 -0.3636 -0.1997  0.2048
 4680TIP3    H135531   4.305   0.494  11.537 -0.6801 -0.6260  0.2165
 4680TIP3    H235532   4.395   0.392  11.468  0.1487  0.1565  0.1171
 4681TIP3   OH235533   2.143   3.070  15.647  1.0198 -0.1229 -0.7386
 4681TIP3    H135534   2.060   3.114  15.630 -0.4917 -2.8922 -1.2514
 4681TIP3    H235535   2.185   3.064  15.561  1.4334  0.6294 -0.5988
 4682TIP3   OH235536   5.932   0.388   3.557  0.1813  0.1948 -0.5906
 4682TIP3    H135537   6.008   0.445   3.545 -1.3904  2.2848 -1.3596
 4682TIP3    H235538   5.892   0.419   3.638 -0.1651 -0.5181 -0.4794
 4683TIP3   OH235539   6.749   6.720  11.038 -0.3280 -0.2234 -0.0125
 4683TIP3    H135540   6.807   6.660  10.992  1.3275  0.8323  0.5982
 4683TIP3    H235541   6.725   6.673  11.118 -0.4818 -0.7355 -0.3544
 4684TIP3   OH235542   3.398   3.995  14.770 -0.1773  0.3540  0.1633
 4684TIP3    H135543   3.387   3.933  14.843 -0.8003  2.1713  1.7082
 4684TIP3    H235544   3.320   4.051  14.774  0.0679  0.8688 -1.5557
 4685TIP3   OH235545   2.947   1.596   4.050  0.1869  0.7673  0.3633
 4685TIP3    H135546   2.869   1.555   4.013  1.4399  0.3147 -1.9045
 4685TIP3    H235547   2.949   1.564   4.141 -1.5728 -0.1845  0.1259
 4686TIP3   OH235548   5.106   2.668  12.507  0.0121  0.2024 -0.2726
 4686TIP3    H135549   5.189   2.672  12.459  0.9210 -0.3083  1.1685
 4686TIP3    H235550   5.113   2.587  12.558 -1.6888 -0.2023 -0.6411
 4687TIP3   OH235551   0.683   3.851   6.221  0.1665 -0.5272 -0.0025
 4687TIP3    H135552   0.687   3.784   6.289 -0.5416  0.2215  0.8102
 4687TIP3    H235553   0.678   3.801   6.139  1.0773 -1.4433  0.4801
 4688TIP3   OH235554   3.177   5.965  14.577  0.1218 -0.1551 -0.8956
 4688TIP3    H135555   3.148   5.909  14.505  0.1215  1.0355 -1.8715
 4688TIP3    H235556   3.172   5.910  14.655 -0.5640 -1.2747 -1.7041
 4689TIP3   OH235557   2.624   5.685  11.827 -0.2255  0.3567  0.4086
 4689TIP3    H135558   2.535   5.702  11.794  0.1212 -0.4001 -1.0028
 4689TIP3    H235559   2.634   5.590  11.819  1.6509  0.6576 -2.0548
 4690TIP3   OH235560   4.564   2.738   0.165  0.0561  0.0321 -0.2765
 4690TIP3    H135561   4.609   2.740   0.081 -0.9506  0.1670 -0.8342
 4690TIP3    H235562   4.557   2.645   0.186  1.5723  0.0477  0.3770
 4691TIP3   OH235563   2.700   0.796   1.021  0.4977  0.5703 -0.2594
 4691TIP3    H135564   2.765   0.771   1.086  0.2490  1.7256  0.4732
 4691TIP3    H235565   2.747   0.856   0.962  0.6950 -0.3889 -1.1144
 4692TIP3   OH235566   4.892   3.648   3.733  0.2064 -0.4500  0.1550
 4692TIP3    H135567   4.840   3.716   3.690 -0.8886  0.1702  2.3291
 4692TIP3    H235568   4.981   3.663   3.702 -0.4502  0.1853 -1.5611
 4693TIP3   OH235569   4.204   1.410   5.770 -0.4243  0.1505  0.1356
 4693TIP3    H135570   4.191   1.351   5.845 -0.5255  0.3454  0.2732
 4693TIP3    H235571   4.296   1.433   5.774 -0.4694  0.3055  0.3098
 4694TIP3   OH235572   6.708   5.391  10.791 -0.2658 -0.1435  0.4574
 4694TIP3    H135573   6.647   5.440  10.847 -2.6061 -0.2748 -1.7525
 4694TIP3    H235574   6.694   5.300  10.815 -0.4868 -0.1296  0.3877
 4695TIP3   OH235575   5.286   1.410   1.068 -0.0956  0.3854 -0.0804
 4695TIP3    H135576   5.349   1.365   1.012 -0.6606 -0.0979 -0.3457
 4695TIP3    H235577   5.294   1.364   1.153 -0.5955 -0.1568 -0.3202
 4696TIP3   OH235578   4.587   4.835  13.944  0.1887 -0.3556 -0.9548
 4696TIP3    H135579   4.652   4.825  13.874 -0.0776  0.2240 -1.2923
 4696TIP3    H235580   4.629   4.798  14.021  0.2580 -1.5821 -1.5475
 4697TIP3   OH235581   2.771   4.250   0.236 -0.0705  0.2077  0.2166
 4697TIP3    H135582   2.809   4.302   0.307  0.9193  0.6015 -0.5652
 4697TIP3    H235583   2.814   4.165   0.242 -0.6854 -0.0758  0.6612
 4698TIP3   OH235584   4.171   5.603   3.320 -0.3072 -0.2034  0.0874
 4698TIP3    H135585   4.219   5.682   3.294  1.4986 -1.4868 -0.6167
 4698TIP3    H235586   4.079   5.627   3.307  0.1982  1.6549 -0.4890
 4699TIP3   OH235587   1.201   6.252   1.470 -0.1793 -0.3176  0.0504
 4699TIP3    H135588   1.161   6.242   1.384  1.5102 -0.0390 -0.8040
 4699TIP3    H235589   1.236   6.341   1.470  1.9134 -1.0835  0.0679
 4700TIP3   OH235590   1.959   6.157   4.122  0.2342 -0.6682 -0.4956
 4700TIP3    H135591   1.971   6.124   4.211  1.1680 -0.8937 -0.6909
 4700TIP3    H235592   1.878   6.115   4.092  0.0466 -0.7854  0.1525
 4701TIP3   OH235593   2.854   0.365  16.439  0.3518 -0.2444  0.2501
 4701TIP3    H135594   2.875   0.455  16.462  0.0098 -0.1589  0.2320
 4701TIP3    H235595   2.867   0.361  16.344  1.3000 -0.4713  0.3824
 4702TIP3   OH235596   0.670   5.247  15.150  0.4795  0.1481 -0.7509
 4702TIP3    H135597   0.742   5.300  15.115  0.1281  1.8335  0.8888
 4702TIP3    H235598   0.605   5.245  15.080  1.0784  0.7548 -1.3371
 4703TIP3   OH235599   4.790   4.924   3.020  0.5969 -0.0587  0.0217
 4703TIP3    H135600   4.833   4.911   2.935 -0.0142 -0.3302 -0.2506
 4703TIP3    H235601   4.846   4.987   3.065  1.7941 -1.0811  0.0417
 4704TIP3   OH235602   3.691   3.017  13.911 -0.3308  0.2418 -0.1542
 4704TIP3    H135603   3.770   3.066  13.888 -1.0069  1.6279  0.3687
 4704TIP3    H235604   3.713   2.926  13.893  1.8556  0.4428  1.2275
 4705TIP3   OH235605   6.556   0.472  16.580 -0.4431  0.0675  0.3206
 4705TIP3    H135606   6.510   0.456  16.498 -1.2074 -2.7526  1.1868
 4705TIP3    H235607   6.648   0.453  16.560 -0.3963  0.8337 -0.2153
 4706TIP3   OH235608   0.735   3.311   6.171  0.3602 -0.1079 -0.0880
 4706TIP3    H135609   0.772   3.373   6.234  0.0066 -1.4495  1.4877
 4706TIP3    H235610   0.712   3.366   6.095  0.5800  1.6003  1.0157
 4707TIP3   OH235611   4.324   0.941  12.947  0.8185 -0.1673  0.4211
 4707TIP3    H135612   4.322   0.860  12.896 -0.7557  0.3830 -0.4746
 4707TIP3    H235613   4.362   1.006  12.887 -0.8606  0.4406 -0.0391
 4708TIP3   OH235614   1.406   2.477  17.019  1.1955  0.3799 -0.0446
 4708TIP3    H135615   1.365   2.518  16.943  0.4334  2.3525  1.3326
 4708TIP3    H235616   1.499   2.494  17.009  1.5393 -2.0625 -2.0031
 4709TIP3   OH235617   1.673   1.129  15.058 -0.6072 -0.1010  0.5818
 4709TIP3    H135618   1.745   1.181  15.093 -0.3698 -0.0402  0.0093
 4709TIP3    H235619   1.701   1.038  15.072  0.6013 -0.1180 -1.6199
 4710TIP3   OH235620   5.734   4.809   5.104  0.0574 -0.0545  0.3011
 4710TIP3    H135621   5.702   4.731   5.061  0.7002 -0.5818  0.7557
 4710TIP3    H235622   5.770   4.863   5.034  1.1509 -0.9324  0.1734
 4711TIP3   OH235623   3.230   1.068   5.501  0.3048  0.2805 -0.2064
 4711TIP3    H135624   3.256   1.160   5.491  0.6302  0.1488 -0.5864
 4711TIP3    H235625   3.179   1.050   5.422 -0.8069  0.4871  0.4489
 4712TIP3   OH235626   0.568   5.832  11.912 -0.0657 -0.0880 -0.3010
 4712TIP3    H135627   0.474   5.819  11.904  0.1279 -1.4933 -0.4812
 4712TIP3    H235628   0.605   5.744  11.911  1.0688  0.2814  2.2069
 4713TIP3   OH235629   5.911   1.888  13.288  0.2670  0.1338 -0.1375
 4713TIP3    H135630   5.902   1.812  13.231  2.3964  0.1066 -0.5459
 4713TIP3    H235631   5.909   1.852  13.377 -2.9938  0.1686 -0.0752
 4714TIP3   OH235632   1.803   2.862  11.768 -0.0695 -0.2563 -0.4379
 4714TIP3    H135633   1.775   2.778  11.804 -0.4732  0.0605 -0.0084
 4714TIP3    H235634   1.753   2.872  11.687  1.2500 -1.2351 -1.4335
 4715TIP3   OH235635   6.000   4.593   2.154 -0.0423  0.1346 -0.5479
 4715TIP3    H135636   5.974   4.528   2.219  3.1707 -0.7297  0.0550
 4715TIP3    H235637   6.022   4.670   2.206 -1.6080  0.9778 -1.0687
 4716TIP3   OH235638   5.929   0.541  16.733 -0.6561 -0.1956  0.1337
 4716TIP3    H135639   5.966   0.507  16.814 -0.2399 -0.6055 -0.2230
 4716TIP3    H235640   5.863   0.604  16.761 -0.2200 -0.0196  0.7858
 4717TIP3   OH235641   3.131   3.957  15.461 -0.1380 -0.3448 -0.5911
 4717TIP3    H135642   3.190   3.931  15.532 -1.1232  0.4557  0.5649
 4717TIP3    H235643   3.043   3.942  15.496 -0.7096  2.0621 -0.7783
 4718TIP3   OH235644   0.745   3.592   0.819  0.0199  0.1327  0.4686
 4718TIP3    H135645   0.712   3.678   0.792  0.1056 -0.6570 -2.5360
 4718TIP3    H235646   0.666   3.538   0.826  0.1904 -0.5029 -1.7626
 4719TIP3   OH235647   3.377   0.914   1.432  0.1197 -0.0019  0.1396
 4719TIP3    H135648   3.344   0.835   1.390 -0.5605  0.8220 -0.9708
 4719TIP3    H235649   3.369   0.897   1.526 -0.8350 -0.9184 -0.0828
 4720TIP3   OH235650   4.188   5.351   4.065  0.0023 -0.0993  0.1046
 4720TIP3    H135651   4.131   5.319   3.995 -0.9715  1.9048 -0.0816
 4720TIP3    H235652   4.160   5.303   4.143 -0.7500 -0.3912 -0.3305
 4721TIP3   OH235653   3.075   0.661  13.928 -0.5459 -0.0089  0.2400
 4721TIP3    H135654   3.023   0.583  13.949  0.5041 -0.8894 -0.2935
 4721TIP3    H235655   3.108   0.644  13.840 -0.9121  1.4024 -0.1932
 4722TIP3   OH235656   2.329   0.968  16.546 -0.3052 -0.3866  0.1272
 4722TIP3    H135657   2.281   0.886  16.556  0.3826 -0.7107  0.8601
 4722TIP3    H235658   2.268   1.035  16.576 -1.3325 -0.4620 -1.6326
 4723TIP3   OH235659   3.717   5.040   3.775  0.8745 -0.1034 -0.2112
 4723TIP3    H135660   3.788   4.979   3.794 -0.4473 -1.0938  1.8850
 4723TIP3    H235661   3.701   5.086   3.857 -0.1516  0.9091 -0.9458
 4724TIP3   OH235662   2.849   6.222   3.592  0.3767  0.7618 -0.0928
 4724TIP3    H135663   2.816   6.188   3.676  2.5556 -0.0888  0.4917
 4724TIP3    H235664   2.794   6.180   3.526 -0.9381  0.9134  0.8649
 4725TIP3   OH235665   5.461   4.727  12.444 -0.0609 -0.0784 -0.1356
 4725TIP3    H135666   5.369   4.719  12.418  0.0038 -1.4523  0.0099
 4725TIP3    H235667   5.504   4.767  12.369 -0.6376 -0.1375 -0.5061
 4726TIP3   OH235668   1.995   4.244  12.882 -0.5050  0.0619  0.3284
 4726TIP3    H135669   1.985   4.318  12.943  1.2868  0.4928  0.1443
 4726TIP3    H235670   2.048   4.180  12.930  0.0832 -0.0192 -0.4160
 4727TIP3   OH235671   6.489   1.594  14.000  0.5261  0.4914 -0.3249
 4727TIP3    H135672   6.517   1.684  14.015  1.9349 -0.2596  2.2023
 4727TIP3    H235673   6.554   1.558  13.940  1.7611  0.3990  0.9895
 4728TIP3   OH235674   2.363   3.397  14.261  0.2380 -0.8298  0.5503
 4728TIP3    H135675   2.403   3.313  14.237  2.3707  0.3183 -0.2808
 4728TIP3    H235676   2.436   3.450  14.293 -1.1604  0.5085  1.6907
 4729TIP3   OH235677   2.133   3.134   2.612 -0.0839  0.3613 -0.0775
 4729TIP3    H135678   2.083   3.076   2.554 -0.4255  0.3279  0.2437
 4729TIP3    H235679   2.171   3.075   2.677  1.4981  0.2102 -1.0727
 4730TIP3   OH235680   2.250   0.078  16.305 -1.1811 -0.3110  0.1192
 4730TIP3    H135681   2.216  -0.012  16.305 -0.6261 -0.5265 -0.7829
 4730TIP3    H235682   2.344   0.068  16.320 -0.4157 -0.2135 -3.6616
 4731TIP3   OH235683   0.319   3.826   1.351  0.3663  0.2458 -0.0393
 4731TIP3    H135684   0.359   3.906   1.316 -1.0340  1.2330  0.5502
 4731TIP3    H235685   0.228   3.850   1.370 -0.0830 -1.4795  0.1964
 4732TIP3   OH235686   6.020   1.553   1.628 -0.4074  0.1311  0.1133
 4732TIP3    H135687   6.094   1.504   1.665 -2.1297 -0.9299  2.3885
 4732TIP3    H235688   5.982   1.495   1.563 -0.2365 -0.0255  0.1528
 4733TIP3   OH235689   6.685   0.323   0.458  0.4034  0.4603  0.2207
 4733TIP3    H135690   6.621   0.308   0.528  0.7505 -0.5137  0.3557
 4733TIP3    H235691   6.739   0.395   0.490 -0.4154  1.0861  0.2454
 4734TIP3   OH235692   1.986   1.961  14.451  0.5387  0.0455 -0.3205
 4734TIP3    H135693   2.014   1.882  14.496 -1.7374 -0.4609  0.3379
 4734TIP3    H235694   2.058   2.023  14.463  1.2558 -1.0609  1.4143
 4735TIP3   OH235695   4.498   2.925   2.994 -0.3013 -0.2922 -0.1375
 4735TIP3    H135696   4.567   2.947   2.931 -0.4147 -2.3048 -1.0621
 4735TIP3    H235697   4.502   2.994   3.060  3.2786 -0.8361  0.4132
 4736TIP3   OH235698   4.336   0.221  15.231 -0.0105  0.0350 -0.3209
 4736TIP3    H135699   4.390   0.227  15.152  1.5445  0.5529  0.7216
 4736TIP3    H235700   4.333   0.128  15.251  0.6282  0.0129 -0.3132
 4737TIP3   OH235701   2.744   5.934  11.538 -0.0580 -0.4183  0.3634
 4737TIP3    H135702   2.709   5.971  11.619 -1.0821  0.1801 -0.3293
 4737TIP3    H235703   2.783   6.008  11.492 -0.9948 -0.3987 -0.4524
 4738TIP3   OH235704   5.036   1.897  16.868 -0.1536 -0.2524 -0.0078
 4738TIP3    H135705   5.120   1.922  16.906 -0.4269  1.9009 -0.6738
 4738TIP3    H235706   5.057   1.868  16.779  0.0925 -1.8883  0.5516
 4739TIP3   OH235707   5.288   5.783  12.874 -0.6291 -0.1251 -0.1139
 4739TIP3    H135708   5.286   5.845  12.801 -0.7834 -0.3495 -0.3009
 4739TIP3    H235709   5.355   5.817  12.933  0.4522 -0.6468 -0.9977
 4740TIP3   OH235710   5.861   6.074  12.099  0.5179 -0.0214  0.3199
 4740TIP3    H135711   5.855   5.979  12.109 -1.2645  0.0104 -0.0144
 4740TIP3    H235712   5.793   6.095  12.035  1.3900  1.4113 -0.1692
 4741TIP3   OH235713   1.622   1.366   1.000  0.3238  0.2629  0.2905
 4741TIP3    H135714   1.686   1.329   0.938 -0.1317  2.2359 -1.4700
 4741TIP3    H235715   1.571   1.427   0.947 -1.6402  0.3193  2.1459
 4742TIP3   OH235716   5.583   4.951  16.657 -0.2871  0.4445  0.0811
 4742TIP3    H135717   5.678   4.953  16.648 -0.2894  0.2740  0.0152
 4742TIP3    H235718   5.566   5.001  16.737 -0.2043  1.2071 -0.3664
 4743TIP3   OH235719   4.626   3.818   0.501 -0.3359 -0.1157 -0.0750
 4743TIP3    H135720   4.638   3.852   0.590 -0.0349  1.6156 -0.7306
 4743TIP3    H235721   4.532   3.802   0.494 -0.3320 -0.4596  0.6137
 4744TIP3   OH235722   2.729   2.069   1.462  0.1336  0.4106  0.0225
 4744TIP3    H135723   2.740   2.055   1.368 -1.5092 -2.5074  0.1628
 4744TIP3    H235724   2.638   2.097   1.471 -0.4664 -1.6957  0.8860
 4745TIP3   OH235725   6.214   6.741   0.039 -0.1037 -0.2828  0.8621
 4745TIP3    H135726   6.244   6.650   0.050  0.7753 -0.0316  0.5945
 4745TIP3    H235727   6.282   6.783  -0.013 -2.0779 -0.2929 -1.9182
 4746TIP3   OH235728   5.688   3.958  11.309 -0.0474 -0.0071 -0.0420
 4746TIP3    H135729   5.716   3.979  11.398  4.8791  0.1169 -1.3162
 4746TIP3    H235730   5.636   4.033  11.282  0.8181  1.3308  1.7819
 4747TIP3   OH235731   4.444   1.612   4.308 -0.5555 -0.0409  0.4394
 4747TIP3    H135732   4.434   1.554   4.383  1.3521 -2.6591 -1.1158
 4747TIP3    H235733   4.539   1.612   4.291 -0.3848  3.9622  0.5417
 4748TIP3   OH235734   4.754   4.607   0.348  0.6210 -0.1975 -0.6138
 4748TIP3    H135735   4.760   4.654   0.265  0.0270 -0.9562 -1.1098
 4748TIP3    H235736   4.833   4.552   0.350 -0.5139 -2.0206 -1.8985
 4749TIP3   OH235737   4.106   6.018  14.404  0.3341  0.6245  0.0525
 4749TIP3    H135738   4.109   5.930  14.441 -1.4260  0.7756  0.6926
 4749TIP3    H235739   4.073   6.006  14.315  0.4856  0.6011  0.0001
 4750TIP3   OH235740   3.536   5.381   6.565  0.3095  0.0186 -0.1914
 4750TIP3    H135741   3.604   5.364   6.630 -1.3998  0.4524  1.8286
 4750TIP3    H235742   3.526   5.299   6.518  0.3602 -0.9220  1.3590
 4751TIP3   OH235743   4.981   0.247   4.741  0.3612  0.3005 -0.7425
 4751TIP3    H135744   5.037   0.324   4.739  0.3846  0.3457  0.6193
 4751TIP3    H235745   5.042   0.173   4.741  0.3730  0.3103 -0.7183
 4752TIP3   OH235746   2.531   0.312   6.245 -0.7556 -0.4136  0.5308
 4752TIP3    H135747   2.578   0.395   6.233 -0.1349 -0.7807  0.3934
 4752TIP3    H235748   2.489   0.321   6.331 -1.8082  0.5750 -0.0573
 4753TIP3   OH235749   1.485   3.471  14.292  0.0605 -0.0732 -0.3119
 4753TIP3    H135750   1.565   3.425  14.264 -0.2035 -0.7954  0.0736
 4753TIP3    H235751   1.478   3.546  14.233  1.0997  0.0808 -0.2682
 4754TIP3   OH235752   3.400   3.384   5.404 -0.2872 -0.0155 -0.2299
 4754TIP3    H135753   3.494   3.373   5.421 -0.3451  0.5646  0.5492
 4754TIP3    H235754   3.392   3.380   5.309  0.9175  2.6680 -0.5315
 4755TIP3   OH235755   1.329   3.784  11.928  0.3614  0.0750 -0.2687
 4755TIP3    H135756   1.295   3.819  11.846  0.7381 -1.4463 -1.1000
 4755TIP3    H235757   1.423   3.772  11.912  0.1975 -1.5904 -0.1309
 4756TIP3   OH235758   2.805   1.178  16.420  0.0526  0.0129 -0.1736
 4756TIP3    H135759   2.894   1.150  16.398  0.5716  2.1049 -1.0544
 4756TIP3    H235760   2.782   1.238  16.349 -0.9907  1.6354  1.4693
 4757TIP3   OH235761   2.381   1.999  16.742  0.0849 -1.1876  0.0317
 4757TIP3    H135762   2.293   2.036  16.751 -0.9851 -3.7773  1.6586
 4757TIP3    H235763   2.432   2.040  16.811 -0.5331 -1.2801  0.5622
 4758TIP3   OH235764   0.745   0.879  12.007 -0.4395  0.4547  0.0421
 4758TIP3    H135765   0.661   0.900  12.048 -0.3172 -0.5175  0.8399
 4758TIP3    H235766   0.765   0.791  12.039  0.4253  0.2951 -0.8981
 4759TIP3   OH235767   2.634   0.129   2.938  0.2488  0.0744 -0.1028
 4759TIP3    H135768   2.729   0.135   2.926  0.5611 -1.9145  0.9209
 4759TIP3    H235769   2.597   0.172   2.861  2.0089 -1.2855 -1.8113
 4760TIP3   OH235770   2.713   1.969   4.906 -0.1032 -0.5956  0.2862
 4760TIP3    H135771   2.664   1.900   4.861 -3.0507  0.1290  2.1578
 4760TIP3    H235772   2.656   2.046   4.903  1.7315  0.8727  1.0033
 4761TIP3   OH235773   6.871   3.271  13.347  0.0229  0.0836  0.1888
 4761TIP3    H135774   6.780   3.281  13.317  0.0624 -1.4761 -0.5549
 4761TIP3    H235775   6.924   3.291  13.270  0.2907  0.4076  0.4574
 4762TIP3   OH235776   2.107   0.552  15.880 -0.3193 -0.7242 -0.0438
 4762TIP3    H135777   2.022   0.594  15.871 -0.7791 -1.4549  0.7355
 4762TIP3    H235778   2.121   0.546  15.975 -0.5181 -2.7844 -0.1046
 4763TIP3   OH235779   2.396   2.437  11.663 -0.0819  0.4682  0.4879
 4763TIP3    H135780   2.418   2.344  11.659 -0.1200  0.4485  0.7555
 4763TIP3    H235781   2.428   2.467  11.748  0.7730  0.9201  0.0261
 4764TIP3   OH235782   4.307   3.582  13.616 -0.3794 -0.7022  0.6057
 4764TIP3    H135783   4.318   3.619  13.529  0.7904 -0.4853  0.8297
 4764TIP3    H235784   4.355   3.498  13.613 -0.7563 -0.9312  0.8924
 4765TIP3   OH235785   3.924   6.799  10.825  0.0367  0.1368  0.0702
 4765TIP3    H135786   3.915   6.790  10.920 -0.8453 -1.1868 -0.1161
 4765TIP3    H235787   3.843   6.841  10.797 -0.1820 -0.4671 -0.2143
 4766TIP3   OH235788   2.833   4.257  12.942  0.1594  0.2588  0.1099
 4766TIP3    H135789   2.740   4.270  12.919  0.3153 -1.7233 -2.0881
 4766TIP3    H235790   2.873   4.342  12.929 -0.8495  0.4793 -1.9802
 4767TIP3   OH235791   4.498   6.505  12.171 -0.0985 -0.4432  0.1293
 4767TIP3    H135792   4.555   6.467  12.104 -1.1443  0.3770 -1.2703
 4767TIP3    H235793   4.412   6.508  12.131 -0.3808  1.8536  0.7877
 4768TIP3   OH235794   3.918   2.769  15.258  0.0974 -0.0631 -0.1493
 4768TIP3    H135795   3.960   2.792  15.175 -1.0555  1.3632 -0.3877
 4768TIP3    H235796   3.824   2.764  15.237 -0.1513 -0.2441  0.9385
 4769TIP3   OH235797   5.876   6.688  11.996 -0.5132 -0.0747  0.1161
 4769TIP3    H135798   5.803   6.630  12.016 -0.7872 -0.3928 -1.6502
 4769TIP3    H235799   5.837   6.759  11.945  0.2966  0.1260 -0.2462
 4770TIP3   OH235800   6.427   3.878   3.670  0.1130  0.7805 -0.7651
 4770TIP3    H135801   6.357   3.813   3.665  0.5827  0.2110 -0.0732
 4770TIP3    H235802   6.450   3.895   3.578 -0.0346 -0.0041 -0.9529
 4771TIP3   OH235803   5.491   1.958  16.157  0.0969  0.0527  0.2862
 4771TIP3    H135804   5.536   1.915  16.084  0.2932 -0.9963  1.0100
 4771TIP3    H235805   5.561   1.984  16.217 -0.1836 -0.7711  0.9832
 4772TIP3   OH235806   0.111   2.162  14.150 -0.1219 -0.3852  0.1078
 4772TIP3    H135807   0.171   2.145  14.223 -0.3280  0.3508  0.4569
 4772TIP3    H235808   0.027   2.128  14.179 -0.6533  1.5650  1.0119
 4773TIP3   OH235809   2.400   6.052   4.982 -0.1704  0.1294 -0.1618
 4773TIP3    H135810   2.372   6.119   4.919 -2.0782  3.6692  3.9667
 4773TIP3    H235811   2.318   6.016   5.016  0.8053 -1.9029  0.2111
 4774TIP3   OH235812   6.609   0.927  14.147 -0.1020 -0.5319  0.8288
 4774TIP3    H135813   6.692   0.969  14.129 -0.1699 -0.8862 -0.3840
 4774TIP3    H235814   6.556   0.994  14.190 -0.0343  0.4875 -0.6171
 4775TIP3   OH235815   4.310   4.983   1.376 -0.3192 -0.2880 -0.4340
 4775TIP3    H135816   4.337   4.987   1.284  0.5398 -2.0558 -0.3129
 4775TIP3    H235817   4.235   4.923   1.376 -0.5066 -0.0560 -0.0177
 4776TIP3   OH235818   4.526   2.414  17.012  0.1108  0.1131  0.2922
 4776TIP3    H135819   4.441   2.458  17.013  0.4782  0.8943 -0.8585
 4776TIP3    H235820   4.504   2.321  17.007 -0.6992  0.3592 -1.3848
 4777TIP3   OH235821   0.902   0.643   4.447 -0.2987  0.0544  0.3246
 4777TIP3    H135822   0.925   0.623   4.357 -1.0340  2.2343 -0.4075
 4777TIP3    H235823   0.969   0.598   4.499  2.3634  1.6590 -1.4723
 4778TIP3   OH235824   5.958   3.107  11.822  0.9004 -0.3493 -0.6278
 4778TIP3    H135825   6.035   3.149  11.860 -0.0053  0.9472 -0.1823
 4778TIP3    H235826   5.972   3.013  11.839  0.3525  0.1115  3.3837
 4779TIP3   OH235827   3.978   2.429  11.199 -0.9622 -0.1320  0.9259
 4779TIP3    H135828   3.916   2.501  11.188 -1.5981 -0.5135  1.9139
 4779TIP3    H235829   4.042   2.443  11.130 -2.6841 -0.2997 -0.7874
 4780TIP3   OH235830   6.624   4.281   2.958 -0.2177  0.0022 -0.6847
 4780TIP3    H135831   6.541   4.307   2.917 -0.0517  0.2393 -0.8697
 4780TIP3    H235832   6.680   4.257   2.884  0.7920  2.4056 -0.7699
 4781TIP3   OH235833   4.066   3.773  14.240 -0.8271 -0.1647 -0.4064
 4781TIP3    H135834   4.117   3.850  14.216  0.4090 -0.9228 -0.2620
 4781TIP3    H235835   3.995   3.808  14.294  0.0141  0.8227  0.0955
 4782TIP3   OH235836   3.749   1.868   2.617 -0.3706  0.0299 -0.2446
 4782TIP3    H135837   3.760   1.945   2.673 -1.5612  0.7331 -0.9362
 4782TIP3    H235838   3.705   1.902   2.539 -2.3502 -1.5970  0.0925
 4783TIP3   OH235839   0.010   6.808  16.257  0.2775 -0.3755 -0.0480
 4783TIP3    H135840   0.050   6.776  16.338  0.3929 -1.4727 -0.5285
 4783TIP3    H235841  -0.072   6.849  16.286  1.3685  1.2678  0.8621
 4784TIP3   OH235842   4.327   6.024   3.466  0.0503 -0.0818 -0.4625
 4784TIP3    H135843   4.302   5.939   3.501 -0.1650  0.1147 -0.1350
 4784TIP3    H235844   4.282   6.088   3.522  0.2742  0.2476 -0.6520
 4785TIP3   OH235845   0.124   4.823   1.242  0.0630  0.2449  0.1594
 4785TIP3    H135846   0.093   4.755   1.300 -1.9777  0.2001 -0.9036
 4785TIP3    H235847   0.181   4.877   1.296  1.6093 -2.1539  1.0621
 4786TIP3   OH235848   5.667   1.466   5.804  0.0236 -0.2043  0.2982
 4786TIP3    H135849   5.737   1.438   5.864  1.6414  0.2100 -1.3020
 4786TIP3    H235850   5.644   1.554   5.834  1.6727  0.4855 -0.3807
 4787TIP3   OH235851   2.941   1.513   6.303 -0.2715 -0.2639  0.0849
 4787TIP3    H135852   2.947   1.608   6.294 -0.1656 -0.3231 -0.4715
 4787TIP3    H235853   3.025   1.487   6.340  0.0195 -0.2350 -0.5532
 4788TIP3   OH235854   4.563   3.836  14.168 -0.4239 -0.2729  0.0013
 4788TIP3    H135855   4.613   3.799  14.241  0.2978 -2.2414 -1.3977
 4788TIP3    H235856   4.622   3.830  14.093 -1.8907 -0.3733 -1.1980
 4789TIP3   OH235857   6.248   4.464   4.140  0.1722  0.0062  0.0851
 4789TIP3    H135858   6.198   4.433   4.065 -0.4477  0.6769  0.2163
 4789TIP3    H235859   6.257   4.558   4.126 -0.8645  0.3232  1.3642
 4790TIP3   OH235860   1.634   4.856   3.426 -0.5464 -0.0239  0.2639
 4790TIP3    H135861   1.554   4.804   3.413 -0.1848 -0.2357 -1.2065
 4790TIP3    H235862   1.694   4.795   3.469 -0.7441 -0.2413  0.2369
 4791TIP3   OH235863   4.554   2.113   5.407 -0.0214 -0.0252 -0.4484
 4791TIP3    H135864   4.506   2.054   5.348 -0.5253  0.4347 -0.5036
 4791TIP3    H235865   4.616   2.158   5.350 -0.0812 -0.0311 -0.5182
 4792TIP3   OH235866   3.117   2.045  15.179 -0.1954  0.2202 -0.8494
 4792TIP3    H135867   3.158   2.123  15.217  0.1699 -0.5462  0.3962
 4792TIP3    H235868   3.026   2.050  15.207  0.4269 -1.2352  1.7881
 4793TIP3   OH235869   1.793   0.501  16.501  0.0602 -0.1487  0.4621
 4793TIP3    H135870   1.715   0.537  16.542 -0.9931 -2.3571  0.5307
 4793TIP3    H235871   1.829   0.441  16.567  2.7050  1.8377  1.0170
 4794TIP3   OH235872   5.510   1.057  16.879  0.4996 -0.5455  0.1563
 4794TIP3    H135873   5.430   1.006  16.869  0.7255 -0.8453 -0.1325
 4794TIP3    H235874   5.538   1.075  16.790  0.9429 -0.7331  0.2573
 4795TIP3   OH235875   6.112   3.362   2.390 -0.0261 -0.6483  0.0283
 4795TIP3    H135876   6.073   3.287   2.344 -0.0085 -0.4457 -0.3179
 4795TIP3    H235877   6.139   3.421   2.321  0.5399 -0.6041  0.2852
 4796TIP3   OH235878   0.910   2.992  13.101 -0.0710  0.3083 -0.1496
 4796TIP3    H135879   0.976   2.982  13.169 -0.6673 -0.1804  0.3632
 4796TIP3    H235880   0.914   2.911  13.051 -0.1065  0.3844 -0.2764
 4797TIP3   OH235881   1.423   5.445  10.964 -0.5822 -0.1791  0.4520
 4797TIP3    H135882   1.332   5.417  10.976 -1.2261  1.9452  0.8814
 4797TIP3    H235883   1.436   5.446  10.869 -2.7004  4.2046 -0.0130
 4798TIP3   OH235884   2.729   6.393   0.691  0.8826 -0.8182 -0.5389
 4798TIP3    H135885   2.773   6.378   0.607  0.2707  0.6892 -1.1629
 4798TIP3    H235886   2.785   6.454   0.737 -0.1268  0.5108 -1.0176
 4799TIP3   OH235887   3.684   1.485   3.574  0.8797 -0.3703 -0.2339
 4799TIP3    H135888   3.723   1.405   3.607  3.0141  0.8349  0.3633
 4799TIP3    H235889   3.703   1.551   3.641 -0.9277  0.6340 -0.6272
 4800TIP3   OH235890   3.384   6.694   0.734  0.0601  0.2900  0.2316
 4800TIP3    H135891   3.410   6.723   0.646 -0.9911  2.8776  0.6917
 4800TIP3    H235892   3.455   6.723   0.791  0.1227 -0.2301  0.4274
 4801TIP3   OH235893   2.699   6.629   2.499  0.3761  0.1869 -0.1913
 4801TIP3    H135894   2.604   6.640   2.504  0.5041  1.1586  0.3173
 4801TIP3    H235895   2.731   6.714   2.468  1.1375  0.1276  0.4099
 4802TIP3   OH235896   0.032   1.790   0.879  0.0481 -0.0738 -0.3402
 4802TIP3    H135897   0.056   1.826   0.793  1.6788 -0.5652 -0.1145
 4802TIP3    H235898  -0.055   1.751   0.864  0.7415 -1.0768 -2.0622
 4803TIP3   OH235899   0.236   6.013  14.663 -0.1377 -0.0731  0.3744
 4803TIP3    H135900   0.266   6.072  14.595 -0.9185  0.4472  0.4715
 4803TIP3    H235901   0.196   5.939  14.616 -2.4666  1.1913  0.2088
 4804TIP3   OH235902   1.106   6.089   3.236 -0.2115  0.5874  0.5800
 4804TIP3    H135903   1.139   6.036   3.309 -0.4525  0.2619  0.4545
 4804TIP3    H235904   1.184   6.114   3.187 -0.2502 -1.8280 -0.8480
 4805TIP3   OH235905   2.469   3.005  16.381 -0.4869  0.2472 -0.2585
 4805TIP3    H135906   2.431   2.933  16.331  0.4858 -0.1264 -0.4871
 4805TIP3    H235907   2.416   3.081  16.356 -3.0114 -0.7204  1.7290
 4806TIP3   OH235908   3.649   4.699   4.281 -0.9301  0.0892 -0.0687
 4806TIP3    H135909   3.567   4.654   4.258  0.3796 -1.3348 -2.4136
 4806TIP3    H235910   3.677   4.740   4.199  0.9237  0.1446  0.5409
 4807TIP3   OH235911   5.165   5.385  13.720 -0.2161 -0.1968  0.3670
 4807TIP3    H135912   5.193   5.435  13.643 -2.0922  1.9389  0.9753
 4807TIP3    H235913   5.227   5.312  13.725  0.4982  0.0926 -2.6182
 4808TIP3   OH235914   5.363   5.152  15.043  0.5822 -0.1419  0.3689
 4808TIP3    H135915   5.392   5.081  14.985 -1.8696  0.7760 -2.1957
 4808TIP3    H235916   5.350   5.109  15.128  0.3839 -2.5022 -0.7670
 4809TIP3   OH235917   0.706   2.437   3.993  0.3094  0.0490  0.1442
 4809TIP3    H135918   0.780   2.498   3.988  0.3147  0.1924  1.4827
 4809TIP3    H235919   0.739   2.356   3.954  0.9080  0.3560 -0.0073
 4810TIP3   OH235920   1.844   4.690   3.064 -0.0631 -0.1934 -0.2811
 4810TIP3    H135921   1.874   4.651   3.146 -0.5567  1.0323  0.5341
 4810TIP3    H235922   1.748   4.686   3.070 -0.1196  0.7138 -0.3519
 4811TIP3   OH235923   6.792   2.406   3.417  0.1982  0.4260  0.2597
 4811TIP3    H135924   6.805   2.345   3.344  2.8029  0.6598  0.4644
 4811TIP3    H235925   6.717   2.460   3.389 -1.4242 -1.9972 -0.4536
 4812TIP3   OH235926   1.396   6.712  15.279 -0.1395  0.5468 -0.3517
 4812TIP3    H135927   1.361   6.779  15.337 -1.1002 -0.9684  0.9076
 4812TIP3    H235928   1.323   6.689  15.221  0.3204  0.8907 -1.0846
 4813TIP3   OH235929   0.218   5.050  16.461 -0.1977  0.3608 -0.6026
 4813TIP3    H135930   0.300   5.055  16.412 -1.1495  0.0627 -2.2966
 4813TIP3    H235931   0.166   4.984  16.415 -2.0036  1.6570 -0.5560
 4814TIP3   OH235932   1.715   3.157  16.802  0.0136 -0.1867 -0.0221
 4814TIP3    H135933   1.644   3.202  16.756 -0.2494 -0.7746 -0.1953
 4814TIP3    H235934   1.676   3.075  16.832  0.3523 -0.0856  0.7170
 4815TIP3   OH235935   2.843   6.377   1.030  0.1622 -0.1961 -0.5323
 4815TIP3    H135936   2.875   6.293   0.996  0.5256  0.1847 -1.1419
 4815TIP3    H235937   2.854   6.438   0.957 -2.1074 -0.0640 -0.8229
 4816TIP3   OH235938   6.396   2.558   5.270 -0.1220 -0.5044  0.1813
 4816TIP3    H135939   6.391   2.604   5.354  3.0013 -1.7269  1.1623
 4816TIP3    H235940   6.436   2.620   5.210  0.3788 -0.5905  0.4208
 4817TIP3   OH235941   1.086   0.842  13.719  0.3768  0.1923  0.9856
 4817TIP3    H135942   1.090   0.913  13.783  1.8224  1.3237 -0.2622
 4817TIP3    H235943   1.175   0.839  13.681 -0.4636 -0.2376 -1.0976
 4818TIP3   OH235944   4.415   5.655  16.163 -0.1715  0.1568  0.2369
 4818TIP3    H135945   4.358   5.709  16.108 -1.3483 -1.8943 -0.6975
 4818TIP3    H235946   4.504   5.683  16.141 -0.7339  2.2232  0.3981
 4819TIP3   OH235947   1.252   1.297   3.496  0.3740 -0.6344  0.2964
 4819TIP3    H135948   1.228   1.205   3.489 -1.1442 -0.2301 -0.2683
 4819TIP3    H235949   1.281   1.321   3.408 -0.1759 -0.3390  0.1925
 4820TIP3   OH235950   3.731   5.412  16.033  0.1206  0.4724  0.3720
 4820TIP3    H135951   3.761   5.325  16.006  0.5917  1.0368 -1.0404
 4820TIP3    H235952   3.791   5.437  16.103  0.0846 -0.2569  0.6775
 4821TIP3   OH235953   0.406   1.529  14.987 -0.4701 -0.4405  0.1811
 4821TIP3    H135954   0.320   1.490  15.000 -0.2018 -0.8425  0.8005
 4821TIP3    H235955   0.404   1.611  15.035 -1.0170  0.3121 -1.0779
 4822TIP3   OH235956   6.492   0.904   0.506  0.2558 -0.4292  0.2588
 4822TIP3    H135957   6.527   0.821   0.473  0.1491 -0.2922 -0.2181
 4822TIP3    H235958   6.401   0.905   0.476 -1.0306 -1.9467  3.6172
 4823TIP3   OH235959   2.916   3.578  16.941 -0.0638 -0.0094  0.1793
 4823TIP3    H135960   2.918   3.485  16.965 -0.1566  0.2583  1.2979
 4823TIP3    H235961   2.881   3.579  16.852  0.0168 -1.0542  0.1227
 4824TIP3   OH235962   4.068   1.423   0.365 -0.3589 -0.3128  0.7472
 4824TIP3    H135963   4.136   1.375   0.317  0.0104  0.5675  0.3700
 4824TIP3    H235964   4.086   1.405   0.457  0.9545  0.6248  0.7008
 4825TIP3   OH235965   6.553   6.048   5.425  0.5687 -0.3487  0.1893
 4825TIP3    H135966   6.633   6.040   5.477  0.9578 -0.5522 -0.4389
 4825TIP3    H235967   6.581   6.033   5.335 -0.0279  0.4163 -0.1324
 4826TIP3   OH235968   6.588   5.347  14.368 -0.2165  0.3756  0.9210
 4826TIP3    H135969   6.682   5.351  14.350 -0.4479  1.5680 -0.1606
 4826TIP3    H235970   6.581   5.368  14.461  0.4556  2.6808  0.5116
 4827TIP3   OH235971   4.833   0.424  14.541 -0.4062  0.8176 -0.2360
 4827TIP3    H135972   4.830   0.366  14.465 -0.9544 -0.0108  0.3947
 4827TIP3    H235973   4.905   0.484  14.522  0.0880  0.0285 -0.9799
 4828TIP3   OH235974   1.765   5.548  12.903 -0.1471 -0.0097  0.0413
 4828TIP3    H135975   1.820   5.500  12.841 -1.5155  0.5786 -1.7202
 4828TIP3    H235976   1.788   5.511  12.988  1.1656 -1.4936 -0.8815
 4829TIP3   OH235977   3.982   2.505  16.550 -0.8250 -0.4826 -0.5385
 4829TIP3    H135978   3.920   2.454  16.498 -1.2097 -0.5239 -0.0501
 4829TIP3    H235979   4.068   2.469  16.527 -1.0087 -0.6561 -0.9633
 4830TIP3   OH235980   3.420   3.570   0.436  0.4291  0.0312  0.0937
 4830TIP3    H135981   3.331   3.584   0.401  0.6824  1.6020 -0.0330
 4830TIP3    H235982   3.437   3.649   0.487  0.8446 -1.3368  2.1809
 4831TIP3   OH235983   2.084   6.594  14.062 -0.2195  0.4389 -0.3796
 4831TIP3    H135984   2.132   6.557  13.988 -1.1843  0.0932 -0.8560
 4831TIP3    H235985   2.076   6.521  14.123  0.0234  0.5471 -0.2188
 4832TIP3   OH235986   1.962   6.235  16.778 -1.2357 -0.5133 -0.0328
 4832TIP3    H135987   1.975   6.241  16.684  0.6227 -2.9412 -0.0213
 4832TIP3    H235988   1.926   6.148  16.792 -0.7531 -0.4936  1.5628
 4833TIP3   OH235989   6.787   1.978   4.608  0.0615  0.6268 -0.6835
 4833TIP3    H135990   6.850   1.967   4.679  0.2376 -2.1528 -1.1614
 4833TIP3    H235991   6.788   1.894   4.562 -3.0416  0.9216 -1.5115
 4834TIP3   OH235992   6.492   0.695  16.737  0.6667  0.0608  0.3468
 4834TIP3    H135993   6.524   0.639  16.667 -0.6287 -1.3573  0.8392
 4834TIP3    H235994   6.569   0.710  16.792  1.4158  0.1957 -0.7160
 4835TIP3   OH235995   6.014   2.514  11.950  0.2533 -0.2366 -0.2404
 4835TIP3    H135996   6.019   2.463  11.869 -1.4872  1.1127 -1.2816
 4835TIP3    H235997   6.003   2.449  12.019  1.5238 -1.4023 -1.0934
 4836TIP3   OH235998   0.741   0.377   1.688 -0.1396 -0.0926 -0.0833
 4836TIP3    H135999   0.776   0.291   1.709 -0.4592 -0.9531 -2.6565
 4836TIP3    H236000   0.764   0.432   1.763 -2.0697 -2.9089  2.8500
 4837TIP3   OH236001   0.884   1.783  13.334  0.3772  0.2889 -0.5507
 4837TIP3    H136002   0.831   1.760  13.411 -0.6116  0.0353 -1.2816
 4837TIP3    H236003   0.822   1.828  13.276  0.8080 -0.5624 -1.6943
 4838TIP3   OH236004   5.613   6.499  14.206 -0.5659 -0.2762  0.7044
 4838TIP3    H136005   5.649   6.572  14.256 -2.8710 -0.7184  3.1954
 4838TIP3    H236006   5.594   6.431  14.271 -2.7790 -1.2851 -0.8718
 4839TIP3   OH236007   3.593   3.853  14.006  0.1451  0.1155 -0.2177
 4839TIP3    H136008   3.552   3.882  14.087  1.1106 -1.3212  0.8404
 4839TIP3    H236009   3.682   3.887  14.010  0.4731 -0.7148 -0.2249
 4840TIP3   OH236010   2.089   4.629   5.840  0.3969  0.1309 -0.0826
 4840TIP3    H136011   2.073   4.568   5.913  1.4412 -0.1148 -0.0411
 4840TIP3    H236012   2.093   4.715   5.882 -0.4342  0.1646 -0.0535
 4841TIP3   OH236013   2.857   6.189  14.947  0.1559  0.0409 -0.7995
 4841TIP3    H136014   2.824   6.186  15.037  0.4616  1.1489 -0.6317
 4841TIP3    H236015   2.950   6.167  14.954 -0.1014 -1.2140 -1.0366
 4842TIP3   OH236016   6.318   0.933  11.369  0.2204 -0.2547 -0.0701
 4842TIP3    H136017   6.279   0.939  11.282 -1.2490 -0.6884  0.5163
 4842TIP3    H236018   6.303   0.843  11.396  0.0456  0.0482  0.8951
 4843TIP3   OH236019   5.028   3.794   4.373 -0.1214 -0.1569  0.6871
 4843TIP3    H136020   5.043   3.731   4.443  1.4858  1.5652  1.9890
 4843TIP3    H236021   4.950   3.843   4.400  0.1070  0.0622  0.9573
 4844TIP3   OH236022   6.019   4.868   5.707  0.0275  0.3147  0.4303
 4844TIP3    H136023   5.961   4.912   5.645  0.3578  0.7673  0.4337
 4844TIP3    H236024   6.008   4.917   5.789  0.6119  0.5784  0.3571
 4845TIP3   OH236025   2.917   6.582  12.003  0.1098 -0.2826  0.5577
 4845TIP3    H136026   2.935   6.657  12.060  0.3330  0.5938 -0.6304
 4845TIP3    H236027   2.835   6.604  11.960 -2.3157 -2.7858  3.5011
 4846TIP3   OH236028   6.718   2.810   3.146 -0.3529 -0.3467  0.4600
 4846TIP3    H136029   6.749   2.844   3.062  0.7149  0.2162  1.0596
 4846TIP3    H236030   6.697   2.888   3.197  1.4732 -0.5375  1.6167
 4847TIP3   OH236031   6.139   5.764  10.593  0.2937  0.0995 -0.5930
 4847TIP3    H136032   6.182   5.683  10.621  1.6783  0.3792 -1.7654
 4847TIP3    H236033   6.100   5.799  10.673  0.0795 -1.4600  0.0323
 4848TIP3   OH236034   4.095   3.564   4.852 -0.1621  0.3468  0.3483
 4848TIP3    H136035   4.168   3.625   4.861  0.2984 -0.0312 -0.6625
 4848TIP3    H236036   4.077   3.534   4.941  0.4882  0.9291  0.6821
 4849TIP3   OH236037   5.507   2.344  16.590  0.1281 -0.2607 -0.0553
 4849TIP3    H136038   5.587   2.348  16.537 -0.6844 -0.4969 -1.3373
 4849TIP3    H236039   5.444   2.398  16.542 -0.2603  0.6182  1.3755
 4850TIP3   OH236040   1.594   0.263  11.424  0.4471 -0.3352  0.4916
 4850TIP3    H136041   1.557   0.254  11.336  3.1876  0.8827 -0.9131
 4850TIP3    H236042   1.613   0.173  11.451  0.2598 -0.6884 -0.4932
 4851TIP3   OH236043   1.717   4.422  12.895  0.2452  0.0260 -0.3622
 4851TIP3    H136044   1.792   4.433  12.837  0.4988  0.1402 -0.0126
 4851TIP3    H236045   1.731   4.337  12.936  0.3599  0.2002 -0.0395
 4852TIP3   OH236046   3.227   3.520   5.756  1.0444  0.9515 -0.2315
 4852TIP3    H136047   3.230   3.604   5.803  0.1449  0.4860  0.7044
 4852TIP3    H236048   3.234   3.454   5.825 -0.2442  0.2483 -0.7474
 4853TIP3   OH236049   1.357   6.584  14.611  0.8514 -0.1304 -0.0690
 4853TIP3    H136050   1.387   6.629  14.690  1.7785 -1.5541  0.4287
 4853TIP3    H236051   1.436   6.575  14.558  0.3053  0.4852 -1.0241
 4854TIP3   OH236052   6.868   6.195  15.577  0.6856 -0.4146  0.4213
 4854TIP3    H136053   6.809   6.140  15.629 -1.4994  2.1788  0.9144
 4854TIP3    H236054   6.955   6.177  15.613 -0.1840 -1.9922  1.8972
 4855TIP3   OH236055   6.787   0.244   3.170 -0.2942 -0.2057 -0.6610
 4855TIP3    H136056   6.795   0.281   3.258  1.8642  2.3849 -1.8166
 4855TIP3    H236057   6.719   0.296   3.127  0.3521  0.1774 -1.2466
 4856TIP3   OH236058   2.658   6.880   3.888  0.2672 -0.1253  0.2126
 4856TIP3    H136059   2.651   6.786   3.898  0.2577 -0.0854  0.5762
 4856TIP3    H236060   2.708   6.892   3.807 -1.1891 -0.4194 -0.7606
 4857TIP3   OH236061   1.852   1.723  15.536 -0.0261  0.2863 -0.6351
 4857TIP3    H136062   1.806   1.774  15.603 -0.6837  2.6284 -2.7278
 4857TIP3    H236063   1.944   1.727  15.562 -0.2007  1.6121 -0.1355
 4858TIP3   OH236064   3.687   1.913   1.836  0.4443 -0.3221 -0.5646
 4858TIP3    H136065   3.673   1.942   1.926 -1.9492  0.4392 -1.1247
 4858TIP3    H236066   3.766   1.959   1.808  1.9115 -1.4621  1.4603
 4859TIP3   OH236067   2.551   6.463   4.132  0.1487  0.0763  0.7657
 4859TIP3    H136068   2.562   6.499   4.220  0.0968  0.3496  0.6627
 4859TIP3    H236069   2.456   6.455   4.122  0.1099  0.8275  0.4306
 4860TIP3   OH236070   4.465   1.212   6.323  0.0989 -0.8847 -0.2045
 4860TIP3    H136071   4.388   1.258   6.356  0.0310 -1.0121 -0.1864
 4860TIP3    H236072   4.491   1.154   6.395 -0.1662 -1.3113 -0.4490
 4861TIP3   OH236073   1.065   0.104  13.762 -0.3203  0.3606 -0.4907
 4861TIP3    H136074   0.996   0.115  13.697 -0.8037  0.5338  0.0491
 4861TIP3    H236075   1.142   0.145  13.722 -0.5693  0.3231 -1.0179
 4862TIP3   OH236076   3.809   3.872  13.365 -0.6201  0.2289  0.0595
 4862TIP3    H136077   3.824   3.965  13.379  0.5352 -0.0328  0.7383
 4862TIP3    H236078   3.845   3.855  13.278 -1.0832  0.4595 -0.1815
 4863TIP3   OH236079   4.580   0.650  15.465 -0.1464 -0.3262 -0.6603
 4863TIP3    H136080   4.608   0.712  15.532  1.7964  0.0627 -1.7645
 4863TIP3    H236081   4.485   0.644  15.477  0.0490  0.2014  1.6753
 4864TIP3   OH236082   2.326   5.173   5.407 -0.0798  0.3542 -0.0563
 4864TIP3    H136083   2.286   5.089   5.385 -0.9715  0.0265  2.4686
 4864TIP3    H236084   2.396   5.151   5.469  0.4859  1.3949 -0.2891
 4865TIP3   OH236085   6.604   6.258   1.345  0.1265  0.1606 -0.0400
 4865TIP3    H136086   6.531   6.242   1.405 -0.1813 -1.0417 -0.6968
 4865TIP3    H236087   6.681   6.258   1.401 -0.4064  2.2227  0.7774
 4866TIP3   OH236088   3.880   5.427  16.571 -0.2571 -0.5905 -0.3668
 4866TIP3    H136089   3.916   5.494  16.628 -0.5988 -0.9912  0.3304
 4866TIP3    H236090   3.817   5.473  16.516 -0.4194 -0.3254  0.0416
 4867TIP3   OH236091   2.890   2.751   3.543  0.2283 -0.3875  0.1398
 4867TIP3    H136092   2.940   2.827   3.514  0.5230 -1.2014 -1.6056
 4867TIP3    H236093   2.947   2.676   3.524 -0.7976 -1.1825  0.1040
 4868TIP3   OH236094   4.579   3.101   4.959 -0.0644  0.2362  0.3523
 4868TIP3    H136095   4.542   3.020   4.923  0.8028  1.4392 -3.8045
 4868TIP3    H236096   4.665   3.108   4.918 -1.3130  4.6575 -2.1376
 4869TIP3   OH236097   5.694   2.836  12.529 -0.5323 -0.1802 -0.0759
 4869TIP3    H136098   5.682   2.762  12.589  1.4386  0.2976  0.9828
 4869TIP3    H236099   5.788   2.835  12.509 -0.8597  0.7277 -1.8020
 4870TIP3   OH236100   3.742   5.640   4.607  0.0693 -0.0837  0.5596
 4870TIP3    H136101   3.741   5.687   4.524  0.8441  1.1596  1.2146
 4870TIP3    H236102   3.745   5.710   4.673  0.4781 -1.0524  1.5893
 4871TIP3   OH236103   4.995   6.736   1.695  0.5488 -0.9449 -0.6821
 4871TIP3    H136104   4.924   6.673   1.703  0.2902 -0.4576  1.8845
 4871TIP3    H236105   4.971   6.790   1.620 -1.1727 -1.5632 -0.6235
 4872TIP3   OH236106   0.143   6.537  13.057 -0.4647  0.0416 -0.1264
 4872TIP3    H136107   0.219   6.555  13.112 -0.8082 -1.8515  1.0357
 4872TIP3    H236108   0.152   6.599  12.984  1.6116  0.5805  0.5071
 4873TIP3   OH236109   2.642   3.037  15.696 -0.2132 -0.2394 -0.2592
 4873TIP3    H136110   2.629   2.954  15.742  1.7410 -0.7824 -0.5979
 4873TIP3    H236111   2.674   3.012  15.609  1.2612  0.8360 -0.0798
 4874TIP3   OH236112   4.322   0.651  15.350 -0.3813 -1.1523 -0.1019
 4874TIP3    H136113   4.349   0.714  15.283 -1.3002  0.0311  0.5971
 4874TIP3    H236114   4.263   0.591  15.305 -1.0187 -0.3499 -0.3629
 4875TIP3   OH236115   3.614   6.260  13.654 -0.2059  0.5723  0.3457
 4875TIP3    H136116   3.607   6.259  13.558 -0.6903  1.1413  0.3634
 4875TIP3    H236117   3.700   6.298  13.672  1.0745 -2.0525  0.1333
 4876TIP3   OH236118   6.011   6.495   1.202  0.3422  0.1941  0.0482
 4876TIP3    H136119   5.961   6.554   1.145  0.5628 -0.7430 -1.1790
 4876TIP3    H236120   6.102   6.523   1.190  0.6687 -1.4221 -1.9564
 4877TIP3   OH236121   0.384   4.974  13.011  0.2202  0.2091 -0.0790
 4877TIP3    H136122   0.460   4.955  13.065  0.3863  1.8844  0.3515
 4877TIP3    H236123   0.350   4.889  12.986  0.3614 -0.6423  2.3663
 4878TIP3   OH236124   1.049   6.176  11.371 -0.1612  0.0790  0.3090
 4878TIP3    H136125   1.056   6.245  11.437  1.5719 -0.0335  0.3043
 4878TIP3    H236126   0.966   6.132  11.390  0.1062  0.3149  2.1707
 4879TIP3   OH236127   3.947   6.134   1.475 -0.3101  0.0142 -0.1164
 4879TIP3    H136128   3.910   6.089   1.551  1.7434  0.5117  1.2639
 4879TIP3    H236129   3.997   6.067   1.429 -0.5705 -0.0153 -0.3594
 4880TIP3   OH236130   3.740   2.806   3.581 -0.1915 -0.1644  0.0214
 4880TIP3    H136131   3.732   2.756   3.662 -1.8782  1.3884  0.9044
 4880TIP3    H236132   3.675   2.876   3.590  0.7691  1.0771 -1.9348
 4881TIP3   OH236133   0.468   5.615  12.777  0.4618 -0.0064  0.4048
 4881TIP3    H136134   0.512   5.690  12.737  1.5985 -0.3410  1.0051
 4881TIP3    H236135   0.525   5.541  12.758 -0.5155 -0.6791  0.0557
 4882TIP3   OH236136   3.032   1.353   1.141  0.3544 -0.3073  0.0135
 4882TIP3    H136137   2.982   1.364   1.222  0.5349 -2.9172  0.5652
 4882TIP3    H236138   2.995   1.417   1.081  0.5424  2.0776  2.2547
 4883TIP3   OH236139   3.535   1.750  12.886 -0.2345  0.9513 -0.2725
 4883TIP3    H136140   3.591   1.682  12.847  2.1110  1.7205  1.5126
 4883TIP3    H236141   3.496   1.795  12.811 -1.5545 -2.0184 -1.5141
 4884TIP3   OH236142   4.592   6.870   2.824 -0.2789 -0.3824  0.3467
 4884TIP3    H136143   4.611   6.964   2.813 -0.5042 -0.3878 -0.0961
 4884TIP3    H236144   4.503   6.868   2.859 -1.0970 -0.4819 -1.6205
 4885TIP3   OH236145   6.241   6.328  12.139  0.0877  0.5303  0.1989
 4885TIP3    H136146   6.225   6.416  12.104  0.9480  0.1788 -1.0991
 4885TIP3    H236147   6.283   6.344  12.224 -0.5797  1.3646  0.3955
 4886TIP3   OH236148   2.890   0.236  16.981  0.5482 -0.4045 -0.5912
 4886TIP3    H136149   2.890   0.328  17.005  0.5487 -0.5245 -0.1263
 4886TIP3    H236150   2.924   0.190  17.058  1.0483 -0.7471 -1.0085
 4887TIP3   OH236151   0.832   1.785   0.182  0.1992  0.0436  0.0303
 4887TIP3    H136152   0.778   1.849   0.136  1.9129  1.1903 -0.4773
 4887TIP3    H236153   0.866   1.728   0.113 -0.6343 -0.9167  0.3879
 4888TIP3   OH236154   2.493   0.963  16.763  0.2385  0.3029 -0.7792
 4888TIP3    H136155   2.527   1.051  16.747 -1.8091  0.8824 -2.4956
 4888TIP3    H236156   2.438   0.945  16.686 -1.6846 -1.3091  0.8618
 4889TIP3   OH236157   3.932   4.336  10.930 -0.1539  0.4796 -0.3763
 4889TIP3    H136158   3.987   4.257  10.931  0.6075  0.9795 -0.9007
 4889TIP3    H236159   3.946   4.373  10.843 -0.6280  1.1084 -0.1933
 4890TIP3   OH236160   5.259   3.257  15.610 -0.6001 -0.0860 -0.2478
 4890TIP3    H136161   5.234   3.172  15.645 -0.8248  0.2705  0.4869
 4890TIP3    H236162   5.332   3.285  15.665 -1.5930  0.9204  0.6019
 4891TIP3   OH236163   3.538   6.826   2.053 -0.2073 -0.2326  0.5386
 4891TIP3    H136164   3.452   6.820   2.010 -0.2209  0.4963  0.4489
 4891TIP3    H236165   3.554   6.921   2.061  0.3900 -0.3646  0.9508
 4892TIP3   OH236166   1.206   2.030   5.398 -0.2141 -0.8852  0.2003
 4892TIP3    H136167   1.167   2.098   5.454  2.5392  1.8936 -0.9159
 4892TIP3    H236168   1.250   1.971   5.458  1.5031  1.2427  1.1738
 4893TIP3   OH236169   4.742   1.593  16.012  0.3502  0.0674  0.3057
 4893TIP3    H136170   4.734   1.682  16.046  2.4726  0.3478  0.2105
 4893TIP3    H236171   4.711   1.599  15.922 -3.2261 -0.2091  1.3583
 4894TIP3   OH236172   6.720   4.322   0.711 -0.3472  0.1584 -0.2246
 4894TIP3    H136173   6.671   4.271   0.776  1.1917  0.3008  1.1282
 4894TIP3    H236174   6.703   4.413   0.736 -0.9053  0.2518 -0.9349
 4895TIP3   OH236175   4.698   1.469   1.964  0.0915  0.1798  0.1292
 4895TIP3    H136176   4.675   1.380   1.989  1.6519 -0.3553 -0.2161
 4895TIP3    H236177   4.638   1.490   1.893  0.9438 -1.3597 -1.1165
 4896TIP3   OH236178   1.313   2.575   3.911  0.6071 -0.4083  0.0121
 4896TIP3    H136179   1.321   2.558   3.817 -0.3611 -0.0890 -0.1341
 4896TIP3    H236180   1.376   2.646   3.928  0.8593 -0.5378 -0.3714
 4897TIP3   OH236181   5.057   6.833  16.455  0.0630  0.5218 -0.1578
 4897TIP3    H136182   5.035   6.895  16.525 -1.4714  0.0770 -0.2267
 4897TIP3    H236183   5.057   6.747  16.498 -0.6783  0.2682 -0.6483
 4898TIP3   OH236184   0.557   1.514  12.638  0.4967 -0.1293  0.3557
 4898TIP3    H136185   0.594   1.597  12.608 -0.3068 -0.5471 -2.0055
 4898TIP3    H236186   0.489   1.539  12.701  1.7954  0.8337  1.4437
 4899TIP3   OH236187   4.567   3.257   2.563  0.2311  0.0373  0.1502
 4899TIP3    H136188   4.504   3.284   2.630  0.4964 -1.7502  1.2050
 4899TIP3    H236189   4.651   3.292   2.594  0.1544  0.2441  0.1201
 4900TIP3   OH236190   4.921   3.108  10.882  0.5593  0.3576 -0.4137
 4900TIP3    H136191   4.830   3.136  10.870 -0.0761 -1.0159  0.9017
 4900TIP3    H236192   4.939   3.122  10.975  2.0494  1.5345 -0.8488
 4901TIP3   OH236193   4.617   1.396  13.784  0.0447  0.5831  0.6637
 4901TIP3    H136194   4.698   1.371  13.740  0.2333 -0.6184  1.6520
 4901TIP3    H236195   4.619   1.492  13.785 -0.1149  0.6888 -2.1399
 4902TIP3   OH236196   4.441   6.562   1.948  0.4093  0.2739 -0.3734
 4902TIP3    H136197   4.379   6.508   1.997  0.6300  0.0483 -0.3389
 4902TIP3    H236198   4.418   6.547   1.856  0.7465 -0.2201 -0.3811
 4903TIP3   OH236199   3.331   5.507  12.232 -0.1438 -0.0174 -1.0604
 4903TIP3    H136200   3.412   5.518  12.183  2.5777 -3.1530  2.1203
 4903TIP3    H236201   3.318   5.591  12.277  1.1949  0.6355 -1.8562
 4904TIP3   OH236202   4.053   6.435   2.219 -0.3119  0.1858 -0.3588
 4904TIP3    H136203   3.964   6.445   2.187 -1.1617 -0.3786  1.6448
 4904TIP3    H236204   4.083   6.525   2.234 -0.0638  0.4334 -2.1585
 4905TIP3   OH236205   5.142   5.964  12.081 -0.2729 -0.1011  0.1558
 4905TIP3    H136206   5.167   5.877  12.113 -1.0723 -0.1113  0.7525
 4905TIP3    H236207   5.113   6.012  12.158 -1.5550  0.1058 -0.4247
 4906TIP3   OH236208   0.719   4.912  15.567  0.3197  0.0697  0.6803
 4906TIP3    H136209   0.796   4.917  15.511  0.0535 -0.4085  0.2597
 4906TIP3    H236210   0.742   4.850  15.635  0.9714  1.3301  1.6436
 4907TIP3   OH236211   6.401   2.447  13.834  0.1930  0.2624  0.0651
 4907TIP3    H136212   6.443   2.368  13.866 -1.0684  0.1864  1.6523
 4907TIP3    H236213   6.388   2.431  13.740 -2.7617 -2.7998  0.8046
 4908TIP3   OH236214   0.995   3.848  13.376 -0.1634  0.2360 -0.2805
 4908TIP3    H136215   1.045   3.870  13.297 -0.8889 -0.4867 -0.9642
 4908TIP3    H236216   0.905   3.873  13.355 -0.6193 -1.2672 -0.2489
 4909TIP3   OH236217   3.993   1.481   3.406  0.5527  0.2602 -0.2545
 4909TIP3    H136218   3.951   1.561   3.373 -0.4418 -0.0253  0.2810
 4909TIP3    H236219   3.992   1.421   3.331  0.9126  0.5982 -0.5342
 4910TIP3   OH236220   4.523   0.351  13.755 -0.0504  0.3494 -0.8199
 4910TIP3    H136221   4.453   0.354  13.821  0.3169  0.6267 -0.4333
 4910TIP3    H236222   4.526   0.440  13.720  1.3319  0.8581  0.4822
 4911TIP3   OH236223   0.238   2.406  13.105  0.1424  0.0439  0.1057
 4911TIP3    H136224   0.273   2.320  13.082 -0.1282 -0.7320  2.3167
 4911TIP3    H236225   0.311   2.451  13.148 -0.4327 -0.0764  1.2339
 4912TIP3   OH236226   6.033   6.817   6.179 -0.6997  0.2023 -0.8169
 4912TIP3    H136227   5.978   6.777   6.112 -0.5231 -1.4811  0.0022
 4912TIP3    H236228   6.003   6.779   6.261 -0.6993  1.9960  0.0587
 4913TIP3   OH236229   2.981   5.490   4.632 -0.5747  0.0355  0.0980
 4913TIP3    H136230   3.063   5.538   4.624 -1.0204  0.8146  0.1480
 4913TIP3    H236231   2.982   5.455   4.721 -0.3958  0.2162  0.1662
 4914TIP3   OH236232   1.961   5.783  16.696  0.1640 -0.0707  0.1660
 4914TIP3    H136233   1.881   5.775  16.643  1.5862  0.3667 -2.1774
 4914TIP3    H236234   1.957   5.707  16.755 -1.6930 -0.3707 -0.2610
 4915TIP3   OH236235   5.875   6.349  12.063 -0.1954  0.2541 -0.6602
 4915TIP3    H136236   5.861   6.255  12.054  2.0291 -0.1658 -0.4388
 4915TIP3    H236237   5.906   6.360  12.153 -0.7178  1.2478 -0.5949
 4916TIP3   OH236238   2.509   5.163  15.375  0.0774  0.2933  0.3525
 4916TIP3    H136239   2.574   5.148  15.306 -0.7212  1.1916 -0.6290
 4916TIP3    H236240   2.533   5.101  15.444  1.5291  0.0916 -0.2837
 4917TIP3   OH236241   5.239   1.665   1.060 -0.2194 -0.5100 -0.3810
 4917TIP3    H136242   5.258   1.571   1.063 -1.6692 -0.8646 -1.4292
 4917TIP3    H236243   5.175   1.675   0.990  0.7626  1.4422 -1.0778
 4918TIP3   OH236244   6.074   2.814  14.994 -0.5987 -0.1524  0.0628
 4918TIP3    H136245   6.007   2.789  14.930 -0.4752 -2.1453  0.6310
 4918TIP3    H236246   6.045   2.899  15.027 -0.2136  1.4271 -3.2036
 4919TIP3   OH236247   5.076   0.418   0.765  0.5375  0.2827  0.0433
 4919TIP3    H136248   5.034   0.444   0.848  2.7661  0.1095  1.3166
 4919TIP3    H236249   5.085   0.323   0.772 -0.6311  0.0555 -1.1403
 4920TIP3   OH236250   6.579   3.615  15.186  0.3037  0.2771 -0.2094
 4920TIP3    H136251   6.519   3.582  15.253 -0.0932 -0.1105 -0.7472
 4920TIP3    H236252   6.654   3.556  15.190  0.8033  0.9568  0.6856
 4921TIP3   OH236253   3.681   4.012   1.631  0.7232  0.0424  0.2362
 4921TIP3    H136254   3.726   3.954   1.570 -2.6551 -1.3759 -1.1705
 4921TIP3    H236255   3.596   4.030   1.589 -0.7388  1.1591  3.3438
 4922TIP3   OH236256   4.495   1.806  12.558 -0.9192  0.0080  0.3382
 4922TIP3    H136257   4.403   1.821  12.536 -1.6275 -1.1507  2.1902
 4922TIP3    H236258   4.531   1.893  12.576 -2.0765  0.3607  1.0274
 4923TIP3   OH236259   6.648   1.733   3.882  0.9711 -0.4197  0.0979
 4923TIP3    H136260   6.730   1.781   3.874  1.7008 -1.3292  1.7582
 4923TIP3    H236261   6.674   1.643   3.899 -0.3859 -1.2800 -1.9252
 4924TIP3   OH236262   6.222   6.269  15.402  0.5805 -0.5579 -0.0518
 4924TIP3    H136263   6.233   6.324  15.479 -2.0114  1.3412 -0.9210
 4924TIP3    H236264   6.167   6.196  15.432  0.3224 -0.3022  0.0928
 4925TIP3   OH236265   2.958   5.070   1.583 -0.2519  0.3593  0.1568
 4925TIP3    H136266   2.975   5.134   1.653 -1.3779  0.4378  0.3811
 4925TIP3    H236267   2.927   4.992   1.629  3.1701 -1.2000  0.0682
 4926TIP3   OH236268   4.464   3.770   2.380  0.7010 -0.4765 -0.0628
 4926TIP3    H136269   4.516   3.755   2.301 -0.5737 -2.6642 -0.5625
 4926TIP3    H236270   4.462   3.686   2.424 -0.2344  0.2225  1.2991
 4927TIP3   OH236271   5.952   2.701  15.870  0.2141  0.1387  0.2446
 4927TIP3    H136272   5.883   2.667  15.813  0.7125 -0.3643 -0.0808
 4927TIP3    H236273   5.942   2.796  15.867 -0.4244  0.0732  0.1625
 4928TIP3   OH236274   6.283   6.611   0.412 -0.4842 -0.2725 -0.0547
 4928TIP3    H136275   6.242   6.544   0.357  0.1813  0.2381 -1.2196
 4928TIP3    H236276   6.216   6.678   0.422 -0.5468 -0.2788 -0.4145
 4929TIP3   OH236277   2.319   4.360  14.492  0.4784  0.3279  0.0152
 4929TIP3    H136278   2.309   4.417  14.568 -0.2664 -0.7098  0.7192
 4929TIP3    H236279   2.387   4.298  14.517 -0.3614 -0.5472  0.1910
 4930TIP3   OH236280   3.354   4.520   0.630  0.6498 -0.4003  0.6284
 4930TIP3    H136281   3.414   4.577   0.676  1.8208  0.4838 -1.8177
 4930TIP3    H236282   3.365   4.434   0.671  0.0742  0.6919  3.2606
 4931TIP3   OH236283   5.802   3.616   3.077 -0.3446 -0.2233  0.4683
 4931TIP3    H136284   5.865   3.678   3.115  1.1863 -0.3726 -1.6730
 4931TIP3    H236285   5.821   3.533   3.121  3.0737 -0.9940 -2.0400
 4932TIP3   OH236286   2.760   1.584  10.425  0.5473  0.1010  0.6224
 4932TIP3    H136287   2.784   1.492  10.439  1.0271  0.4103  2.0856
 4932TIP3    H236288   2.827   1.617  10.365  0.7758 -0.3339  0.6334
 4933TIP3   OH236289   3.652   4.179  14.970 -0.5020 -0.1953 -0.3965
 4933TIP3    H136290   3.581   4.244  14.967 -0.5518 -0.2382 -0.1557
 4933TIP3    H236291   3.671   4.169  15.063  1.9051  2.0930 -0.5392
 4934TIP3   OH236292   0.725   3.939  12.352 -0.4959 -0.2069  0.6366
 4934TIP3    H136293   0.807   3.906  12.314 -1.3504 -1.0452 -0.5525
 4934TIP3    H236294   0.746   3.954  12.444  1.4873  1.3190  0.0280
 4935TIP3   OH236295   3.245   4.376  13.974  0.4927  0.3211 -0.1998
 4935TIP3    H136296   3.284   4.291  13.952  0.4872  0.2965 -0.1139
 4935TIP3    H236297   3.168   4.382  13.918 -0.7605 -0.7065  1.3265
 4936TIP3   OH236298   2.225   2.717  10.731  0.4210  0.2669  0.0303
 4936TIP3    H136299   2.223   2.763  10.647 -1.9914  2.1168  0.9894
 4936TIP3    H236300   2.149   2.659  10.729  1.6937 -1.4570  0.0553
 4937TIP3   OH236301   0.697   3.591   4.665 -0.8015  0.6595 -0.3369
 4937TIP3    H136302   0.679   3.510   4.713  2.1842 -1.3620 -2.2289
 4937TIP3    H236303   0.688   3.567   4.572  0.3585  2.4008 -0.9737
 4938TIP3   OH236304   3.775   3.361  14.347 -0.0344 -0.5316 -0.0177
 4938TIP3    H136305   3.795   3.335  14.437  1.6563 -2.6614 -0.9277
 4938TIP3    H236306   3.756   3.279  14.302 -2.5943  0.6471 -1.2839
 4939TIP3   OH236307   5.603   2.325  13.899 -0.5902 -0.5079  0.2048
 4939TIP3    H136308   5.673   2.378  13.860 -1.4953  0.3641 -0.2807
 4939TIP3    H236309   5.639   2.237  13.902 -0.2608 -0.5094 -2.0895
 4940TIP3   OH236310   2.320   6.054  11.386  0.5915  0.5424 -0.2094
 4940TIP3    H136311   2.373   5.975  11.398  0.6096  0.4315 -0.9563
 4940TIP3    H236312   2.270   6.062  11.467 -2.4238 -2.5037 -1.5453
 4941TIP3   OH236313   0.412   1.949  15.053 -0.1925  0.8438 -0.5762
 4941TIP3    H136314   0.370   1.900  15.124  0.3868  0.0033 -0.7974
 4941TIP3    H236315   0.349   2.016  15.029 -0.5237  0.9473  0.5332
 4942TIP3   OH236316   1.445   1.361  16.897  0.1765 -0.1668  0.1404
 4942TIP3    H136317   1.453   1.318  16.812 -0.4443 -0.9355  0.4471
 4942TIP3    H236318   1.352   1.383  16.904  0.6551  2.2776 -0.4719
 4943TIP3   OH236319   0.101   5.467   2.643 -0.0225 -0.0117 -0.4429
 4943TIP3    H136320   0.021   5.418   2.622  0.4476 -1.2238  0.5617
 4943TIP3    H236321   0.142   5.418   2.713  0.4992  1.8068  0.5718
 4944TIP3   OH236322   5.322   6.454   1.171 -0.4040  0.6965  0.1853
 4944TIP3    H136323   5.308   6.365   1.138 -1.4181 -0.4645  3.3779
 4944TIP3    H236324   5.395   6.487   1.119 -0.5478 -1.6280 -1.7112
 4945TIP3   OH236325   6.510   0.744   1.769  0.5541 -0.4578  0.5327
 4945TIP3    H136326   6.491   0.671   1.828  4.2468  0.0011  2.5922
 4945TIP3    H236327   6.479   0.822   1.816  1.0715 -0.3218  0.6587
 4946TIP3   OH236328   0.561   2.321   5.994 -0.4981 -0.9186  0.5165
 4946TIP3    H136329   0.485   2.332   5.937  1.1435 -2.5829 -2.1985
 4946TIP3    H236330   0.553   2.392   6.058 -2.7375  0.7928 -1.4738
 4947TIP3   OH236331   4.174   6.286  14.424  0.0945 -0.0747  0.2030
 4947TIP3    H136332   4.140   6.329  14.345 -0.4461 -0.8009  0.0288
 4947TIP3    H236333   4.171   6.192  14.404  0.6341 -0.2320  0.8193
 4948TIP3   OH236334   1.880   3.463   4.048 -0.5132  0.3351 -0.1479
 4948TIP3    H136335   1.893   3.541   3.994 -2.2225 -0.0096 -1.1605
 4948TIP3    H236336   1.785   3.459   4.062 -0.2964 -0.6357  1.3369
 4949TIP3   OH236337   3.100   2.641  14.293  0.0293  0.1926 -0.6847
 4949TIP3    H136338   3.143   2.725  14.311 -0.7932  1.2205 -3.1298
 4949TIP3    H236339   3.050   2.656  14.213 -1.7981 -2.0735 -0.0894
 4950TIP3   OH236340   5.334   4.340  11.437 -0.6313  0.4741  0.1200
 4950TIP3    H136341   5.403   4.311  11.496 -0.1645  0.0121 -0.6441
 4950TIP3    H236342   5.374   4.409  11.384 -0.7248  0.1380 -0.3923
 4951TIP3   OH236343   4.202   1.937   1.538 -0.6185 -0.1345 -0.2766
 4951TIP3    H136344   4.251   1.927   1.620  0.0120  2.3432 -0.2730
 4951TIP3    H236345   4.251   1.885   1.475 -1.4370 -2.5667  0.9783
 4952TIP3   OH236346   1.607   4.021  12.469 -0.4288  0.4370  0.4198
 4952TIP3    H136347   1.637   4.107  12.440  0.9215  0.1922  1.0155
 4952TIP3    H236348   1.554   3.988  12.396 -0.1598  1.3617 -0.2082
 4953TIP3   OH236349   4.202   0.677  10.885 -0.3236 -0.5445 -0.2912
 4953TIP3    H136350   4.294   0.665  10.861 -0.7584 -1.9024 -1.3913
 4953TIP3    H236351   4.177   0.760  10.843  0.0012 -0.9060 -1.2154
 4954TIP3   OH236352   5.689   3.919   5.034 -0.2301  0.0322  0.4577
 4954TIP3    H136353   5.645   3.900   4.952  0.4797  1.4504 -0.2905
 4954TIP3    H236354   5.653   4.003   5.062 -0.1294 -0.2136  1.3640
 4955TIP3   OH236355   5.283   5.032   6.049  0.1422  0.2149  0.5177
 4955TIP3    H136356   5.309   5.121   6.073  0.6651  0.5197 -1.0356
 4955TIP3    H236357   5.362   4.992   6.014 -0.5069 -0.2258 -0.5044
 4956TIP3   OH236358   6.864   1.011   1.650  0.1983 -0.3621  0.1925
 4956TIP3    H136359   6.952   1.004   1.612  0.2061  2.0037 -0.3614
 4956TIP3    H236360   6.809   1.040   1.577 -0.4915  0.8246  1.1658
 4957TIP3   OH236361   2.737   2.029   2.021  0.0951 -0.2074 -0.5772
 4957TIP3    H136362   2.717   1.998   2.110  0.9373  1.2519  0.1415
 4957TIP3    H236363   2.811   2.088   2.032 -0.7301  1.1641 -2.0492
 4958TIP3   OH236364   5.771   5.149   5.092 -0.5396  0.1571 -0.1381
 4958TIP3    H136365   5.772   5.080   5.026  1.1706 -1.1757  1.1653
 4958TIP3    H236366   5.686   5.138   5.136  0.3789 -2.4401  1.2406
 4959TIP3   OH236367   4.221   2.434  14.489 -0.4632 -0.0357  0.3077
 4959TIP3    H136368   4.135   2.468  14.513 -0.1441  0.6688  0.4651
 4959TIP3    H236369   4.228   2.453  14.395 -0.4955 -0.1346  0.2849
 4960TIP3   OH236370   5.317   5.081   3.981  0.3492  0.0497  0.8817
 4960TIP3    H136371   5.299   5.146   4.050 -0.2419  1.7518 -0.7764
 4960TIP3    H236372   5.320   5.132   3.900 -1.3631 -2.1219 -0.6995
 4961TIP3   OH236373   1.344   4.776  12.699  0.1379 -0.5829  0.1243
 4961TIP3    H136374   1.263   4.795  12.747  0.0919  1.0698 -0.5251
 4961TIP3    H236375   1.405   4.744  12.765 -1.3347 -2.9046  0.4538
 4962TIP3   OH236376   3.925   5.404   1.576 -0.3193 -0.4438  0.5582
 4962TIP3    H136377   3.994   5.341   1.597  0.9058  1.0304  1.1382
 4962TIP3    H236378   3.909   5.391   1.482 -0.9633 -2.3887  0.8844
 4963TIP3   OH236379   4.032   5.874   2.710 -0.2386 -0.1195  0.0829
 4963TIP3    H136380   4.053   5.781   2.695  1.7709  0.1330  0.9428
 4963TIP3    H236381   3.948   5.873   2.755  0.3092 -1.6259  1.1807
 4964TIP3   OH236382   6.867   4.281   3.308 -0.0612 -0.2778 -0.3850
 4964TIP3    H136383   6.818   4.205   3.339 -0.2530  0.4507  1.1608
 4964TIP3    H236384   6.857   4.346   3.377  1.0640  0.7559 -1.1610
 4965TIP3   OH236385   2.978   2.277  14.493 -0.4319 -0.1260  0.2186
 4965TIP3    H136386   3.038   2.242  14.427  0.2093  0.2632  0.5720
 4965TIP3    H236387   2.986   2.217  14.567 -1.5061 -0.8256 -0.2235
 4966TIP3   OH236388   1.458   6.136   5.380  0.7859 -0.4533  0.5450
 4966TIP3    H136389   1.489   6.213   5.428 -0.2770  0.0525  0.4438
 4966TIP3    H236390   1.364   6.132   5.400  0.9801 -2.2164  1.2262
 4967TIP3   OH236391   2.100   2.848   3.833  0.2015 -0.5138 -0.2984
 4967TIP3    H136392   2.053   2.823   3.912  0.1688 -0.3454 -0.2627
 4967TIP3    H236393   2.043   2.821   3.761 -0.6087  0.9055 -0.2437
 4968TIP3   OH236394   1.657   4.337  11.985  0.2065 -0.2701 -0.6113
 4968TIP3    H136395   1.658   4.375  11.897  2.2881  1.3981  0.0250
 4968TIP3    H236396   1.732   4.279  11.987  1.3314  1.1486  0.5664
 4969TIP3   OH236397   2.662   2.660  11.496  0.3223  0.3608 -0.3755
 4969TIP3    H136398   2.724   2.726  11.527  0.9947 -0.4597  0.0944
 4969TIP3    H236399   2.716   2.596  11.450 -0.2244 -0.1611 -0.3091
 4970TIP3   OH236400   4.541   1.907  11.112  0.6128 -0.3749  0.0887
 4970TIP3    H136401   4.558   1.824  11.158  1.2980 -0.1448  0.2688
 4970TIP3    H236402   4.556   1.974  11.178 -0.8689 -0.1308  0.2051
 4971TIP3   OH236403   2.348   1.429   2.629  0.9770  1.0938  0.2051
 4971TIP3    H136404   2.442   1.443   2.623  1.1458  0.1080  0.4942
 4971TIP3    H236405   2.322   1.402   2.541  1.0832  0.6626  0.3058
 4972TIP3   OH236406   6.208   1.244  14.619  0.3787  0.3530  0.2009
 4972TIP3    H136407   6.231   1.155  14.593 -1.8123  0.0832 -1.0263
 4972TIP3    H236408   6.192   1.291  14.537 -1.2358  1.0630  0.8660
 4973TIP3   OH236409   1.568   4.875   6.781 -0.0994  0.3320 -0.6298
 4973TIP3    H136410   1.575   4.803   6.719  0.4661  1.4116 -1.8632
 4973TIP3    H236411   1.489   4.855   6.832 -1.0916 -0.1332 -2.2822
 4974TIP3   OH236412   5.721   0.798  11.341 -0.6081  0.1376  0.7427
 4974TIP3    H136413   5.726   0.764  11.251 -0.4052 -2.1857  1.5622
 4974TIP3    H236414   5.813   0.808  11.367 -0.6635  1.5896  0.4545
 4975TIP3   OH236415   5.531   1.898   0.067  0.0089  0.2928  0.0316
 4975TIP3    H136416   5.459   1.847   0.105 -1.0464  0.6330 -1.3989
 4975TIP3    H236417   5.564   1.843  -0.004 -0.4755  1.1454 -0.8765
 4976TIP3   OH236418   3.713   0.190  16.749 -0.5639  0.2952  0.2043
 4976TIP3    H136419   3.748   0.198  16.660  2.1196  1.7753  1.2848
 4976TIP3    H236420   3.779   0.139  16.796 -0.0307  2.6404  2.1841
 4977TIP3   OH236421   1.127   1.159   4.661 -0.0005 -0.0069  0.4355
 4977TIP3    H136422   1.109   1.076   4.616 -1.2973  0.0836  0.7725
 4977TIP3    H236423   1.053   1.172   4.720  0.8652  0.7106  1.4069
 4978TIP3   OH236424   1.338   5.386   0.946  0.0984 -0.1150 -0.6969
 4978TIP3    H136425   1.344   5.479   0.967 -0.5080  0.0224 -1.1227
 4978TIP3    H236426   1.412   5.371   0.886 -0.2829  0.2714 -1.2669
 4979TIP3   OH236427   4.609   2.921   0.706  0.4208  0.0737 -0.3024
 4979TIP3    H136428   4.699   2.939   0.734  0.0110  2.3655 -0.3188
 4979TIP3    H236429   4.618   2.880   0.620  1.4473 -0.5511  0.0802
 4980TIP3   OH236430   0.220   2.695  14.557 -0.0145 -0.3899 -0.6428
 4980TIP3    H136431   0.252   2.785  14.551  1.1519 -0.8547 -2.1925
 4980TIP3    H236432   0.256   2.652  14.479 -3.5731 -1.2737 -2.0016
 4981TIP3   OH236433   1.496   5.206  13.226  0.6148  0.6225  0.1445
 4981TIP3    H136434   1.494   5.169  13.314  0.2373  1.4532  0.4923
 4981TIP3    H236435   1.441   5.147  13.174 -1.5876  1.6894  1.1149
 4982TIP3   OH236436   4.577   6.649   4.193 -0.2215  0.3608 -0.2812
 4982TIP3    H136437   4.584   6.592   4.117 -1.1595  1.2943 -1.1023
 4982TIP3    H236438   4.663   6.644   4.235  0.6950  0.6737 -2.0231
 4983TIP3   OH236439   4.983   3.740   1.708  0.5663 -0.1606  0.7260
 4983TIP3    H136440   4.897   3.717   1.674  0.1043 -0.0480  1.7935
 4983TIP3    H236441   4.990   3.835   1.692  1.2182 -0.4329 -0.8898
 4984TIP3   OH236442   4.710   3.315  13.015  0.2302  0.1838  0.1348
 4984TIP3    H136443   4.648   3.273  12.957 -0.6938  0.7016  0.7206
 4984TIP3    H236444   4.764   3.244  13.050 -0.7781 -0.4133  0.4923
 4985TIP3   OH236445   1.474   2.970  15.385 -0.5064  0.1771  0.3770
 4985TIP3    H136446   1.479   3.010  15.298 -0.4285  0.1759  0.3805
 4985TIP3    H236447   1.523   2.888  15.376 -0.4860  0.1837  0.4255
 4986TIP3   OH236448   0.513   1.913   2.758  0.6158  0.0125 -0.0393
 4986TIP3    H136449   0.565   1.938   2.834  2.0111  0.9473 -1.2559
 4986TIP3    H236450   0.534   1.821   2.743 -0.5088 -0.4992  1.3164
 4987TIP3   OH236451   2.486   3.107  11.908  0.1256 -0.1972 -0.1057
 4987TIP3    H136452   2.476   3.084  12.000 -0.8873 -2.3661 -0.6906
 4987TIP3    H236453   2.563   3.163  11.905  0.5280 -0.5686  1.9736
 4988TIP3   OH236454   3.975   2.577  14.495 -0.1862 -0.6997  0.4454
 4988TIP3    H136455   3.914   2.510  14.524 -1.5481 -0.3125 -1.3847
 4988TIP3    H236456   3.925   2.632  14.435  1.7733  0.0190 -0.6475
 4989TIP3   OH236457   4.386   3.811  15.166 -0.5281 -0.2024 -0.1933
 4989TIP3    H136458   4.389   3.864  15.245 -0.6300 -0.6582  0.1224
 4989TIP3    H236459   4.301   3.832  15.126 -1.1275 -1.0247  0.5785
 4990TIP3   OH236460   5.841   5.097  14.912 -0.3605  0.6831 -0.1532
 4990TIP3    H136461   5.760   5.146  14.924 -0.6922  0.2478 -0.5901
 4990TIP3    H236462   5.822   5.009  14.946 -0.5496  0.1469 -1.5976
 4991TIP3   OH236463   0.206   2.909   6.047 -0.0190  0.0958  0.5763
 4991TIP3    H136464   0.128   2.869   6.010  1.0685 -1.4915 -0.0958
 4991TIP3    H236465   0.200   3.001   6.023 -1.6723 -0.0001  0.5447
 4992TIP3   OH236466   3.766   1.755   4.240 -0.9210 -0.8373  0.0299
 4992TIP3    H136467   3.758   1.849   4.223  2.0207 -0.4855  0.1801
 4992TIP3    H236468   3.745   1.714   4.156 -0.4788  0.0733 -0.5432
 4993TIP3   OH236469   3.454   3.482   3.770 -0.5106  0.5345  0.2481
 4993TIP3    H136470   3.413   3.556   3.725  0.0386  1.4370  1.1932
 4993TIP3    H236471   3.380   3.429   3.802 -0.9879  2.1041  1.8781
 4994TIP3   OH236472   6.364   2.228  11.636  0.2880  0.0930 -0.8466
 4994TIP3    H136473   6.300   2.157  11.646  0.6476 -0.0235  1.1774
 4994TIP3    H236474   6.415   2.204  11.560 -0.9786 -0.7029 -1.4887
 4995TIP3   OH236475   5.432   5.868   5.305  0.4653  0.3215  0.2489
 4995TIP3    H136476   5.407   5.955   5.337  0.3871  0.3912 -0.0014
 4995TIP3    H236477   5.353   5.815   5.318  0.4545  0.3340  0.2355
 4996TIP3   OH236478   0.740   1.489   2.527 -0.2457  0.0082 -0.5412
 4996TIP3    H136479   0.740   1.393   2.532  0.5317  0.0425  0.4713
 4996TIP3    H236480   0.752   1.508   2.434 -1.4825 -0.8562 -0.8992
 4997TIP3   OH236481   2.690   4.449  13.654  0.2737 -0.1748 -0.4741
 4997TIP3    H136482   2.784   4.437  13.667  0.1713 -0.6471 -0.1157
 4997TIP3    H236483   2.650   4.379  13.705 -0.3317  0.9868  0.7010
 4998TIP3   OH236484   2.154   0.097   0.220  0.2372  0.5233 -0.2378
 4998TIP3    H136485   2.120   0.146   0.145  1.0108  0.0370 -0.9297
 4998TIP3    H236486   2.234   0.142   0.244  0.9195 -0.3308 -0.8383
 4999TIP3   OH236487   5.350   1.175  14.973 -0.0099  0.3875 -0.7223
 4999TIP3    H136488   5.362   1.080  14.981 -1.2771  0.3325  1.0523
 4999TIP3    H236489   5.262   1.192  15.006  0.7810  2.3614  0.5699
 5000TIP3   OH236490   1.904   5.516   3.481 -0.0199  0.2509  0.0538
 5000TIP3    H136491   1.824   5.549   3.441 -0.4982 -1.2535 -0.3076
 5000TIP3    H236492   1.887   5.517   3.575 -1.1612 -1.6049 -0.0748
 5001TIP3   OH236493   1.433   0.869  12.424  0.1365 -0.7870  0.6475
 5001TIP3    H136494   1.401   0.888  12.512 -0.9711 -0.0416  0.1139
 5001TIP3    H236495   1.485   0.945  12.399 -1.5704  0.1528 -0.2351
 5002TIP3   OH236496   5.028   0.379  16.920  0.5238 -0.0360  0.5143
 5002TIP3    H136497   5.064   0.301  16.962  0.1440 -0.4233  0.1236
 5002TIP3    H236498   5.083   0.392  16.842  2.3520  1.6844  1.9698
 5003TIP3   OH236499   5.028   1.049   1.675 -0.1592 -0.5800  0.0557
 5003TIP3    H136500   5.031   1.131   1.723 -0.3245 -0.0011 -0.8872
 5003TIP3    H236501   5.101   0.998   1.709  0.0180  0.0061  0.5650
 5004TIP3   OH236502   4.155   2.826  12.153  0.2117 -0.1756 -0.0437
 5004TIP3    H136503   4.175   2.870  12.236 -1.6839  1.7014 -0.5070
 5004TIP3    H236504   4.240   2.794  12.122  1.1811  0.4100  1.8613
 5005TIP3   OH236505   6.526   2.832   6.207  0.0918  0.7414  0.0239
 5005TIP3    H136506   6.499   2.901   6.268 -0.0091  0.0552  0.7750
 5005TIP3    H236507   6.616   2.854   6.185 -0.7699  2.6550 -1.9424
 5006TIP3   OH236508   5.332   3.179  16.613  0.1291  0.1331 -0.0283
 5006TIP3    H136509   5.251   3.210  16.573 -0.1667 -0.9551 -0.2877
 5006TIP3    H236510   5.323   3.201  16.706  0.0458  1.0343 -0.2342
 5007TIP3   OH236511   0.748   1.325   1.301  0.5910 -0.0142 -0.0971
 5007TIP3    H136512   0.674   1.264   1.302  1.3226 -0.9564 -1.0786
 5007TIP3    H236513   0.823   1.271   1.275  1.1880  1.4045 -1.4716
 5008TIP3   OH236514   6.158   1.469   3.756  0.0157  0.1065  0.7555
 5008TIP3    H136515   6.228   1.435   3.812  0.4659  2.2710  1.6053
 5008TIP3    H236516   6.180   1.561   3.743 -0.9263  0.0501 -1.7413
 5009TIP3   OH236517   4.867   0.314   3.694 -0.4580  0.4179  0.0113
 5009TIP3    H136518   4.953   0.321   3.653  0.0343  1.9943  1.2373
 5009TIP3    H236519   4.805   0.336   3.624  0.2742  1.5485 -0.3056
 5010TIP3   OH236520   0.370   4.631   0.166 -0.1159 -0.0390  0.1624
 5010TIP3    H136521   0.455   4.669   0.188 -0.3272  1.5162 -1.5031
 5010TIP3    H236522   0.354   4.658   0.076 -1.9446 -1.1299  0.1147
 5011TIP3   OH236523   2.437   1.686  14.364  0.1305  0.0670 -0.0175
 5011TIP3    H136524   2.428   1.780  14.347 -1.4659 -0.1068 -0.2786
 5011TIP3    H236525   2.374   1.645  14.305 -0.5369 -1.0415  1.4316
 5012TIP3   OH236526   0.405   0.655  16.386  0.2377  0.7853 -0.2234
 5012TIP3    H136527   0.379   0.591  16.320  1.2464  0.2602 -0.1326
 5012TIP3    H236528   0.445   0.726  16.335  3.5369 -0.8015 -0.1510
 5013TIP3   OH236529   2.601   3.666  15.978 -0.4346 -0.2670  0.4826
 5013TIP3    H136530   2.515   3.652  15.938  0.1735 -0.8605 -0.6587
 5013TIP3    H236531   2.604   3.606  16.052 -0.5905 -1.0250 -0.1223
 5014TIP3   OH236532   4.757   1.822   5.423 -0.1304 -0.2591  0.0031
 5014TIP3    H136533   4.786   1.775   5.501 -0.8384 -1.5795 -0.4952
 5014TIP3    H236534   4.674   1.862   5.449  0.5499  0.9068  0.4762
 5015TIP3   OH236535   2.973   0.061   1.199 -0.1242 -0.0847  0.1164
 5015TIP3    H136536   2.958   0.144   1.153 -0.6449 -0.4488 -0.3786
 5015TIP3    H236537   2.923   0.070   1.280  0.1776  0.2563  0.2699
 5016TIP3   OH236538   6.246   6.119   3.136 -0.3474  0.1341 -0.1105
 5016TIP3    H136539   6.289   6.174   3.202  1.0433 -0.3789 -0.5685
 5016TIP3    H236540   6.159   6.102   3.173  1.0601 -1.8649  2.6424
 5017TIP3   OH236541   1.824   1.723   5.449 -0.3677  0.3618  0.0203
 5017TIP3    H136542   1.794   1.726   5.539 -0.9796  1.0814 -0.1990
 5017TIP3    H236543   1.884   1.649   5.446 -0.8276 -0.0547  0.8682
 5018TIP3   OH236544   2.499   0.236   5.270  0.2460  0.0239 -0.4506
 5018TIP3    H136545   2.447   0.162   5.239  1.1940 -0.4876 -0.8671
 5018TIP3    H236546   2.439   0.286   5.325 -0.2731 -1.3114  0.2289
 5019TIP3   OH236547   1.438   2.206   2.610 -0.3079  0.1203  0.0546
 5019TIP3    H136548   1.476   2.287   2.576  1.6488  0.1147  1.9502
 5019TIP3    H236549   1.346   2.226   2.624 -0.0075  1.7884 -0.2037
 5020TIP3   OH236550   1.839   5.833  13.079 -0.0769 -0.1679 -0.0360
 5020TIP3    H136551   1.796   5.763  13.030 -1.6937 -0.8809  2.2454
 5020TIP3    H236552   1.793   5.836  13.163  1.7338  1.8211  0.9934
 5021TIP3   OH236553   3.977   3.415   0.069  0.7905  0.2086  0.1881
 5021TIP3    H136554   4.030   3.489   0.041 -1.2961  2.2063  1.1848
 5021TIP3    H236555   3.900   3.418   0.011  0.3450 -0.7495  0.7073
 5022TIP3   OH236556   1.940   3.386   5.664  0.0777  0.1903 -0.2704
 5022TIP3    H136557   1.954   3.430   5.748 -0.4246  0.6253 -0.4114
 5022TIP3    H236558   1.867   3.325   5.681  0.0617  0.1850 -0.3563
 5023TIP3   OH236559   0.888   6.142   1.881 -0.2406  0.3685 -0.2986
 5023TIP3    H136560   0.853   6.230   1.872  0.8768  0.6170 -2.7549
 5023TIP3    H236561   0.981   6.150   1.858  0.3572 -1.1408  1.3128
 5024TIP3   OH236562   3.224   3.594   2.929 -0.4759 -0.0259 -0.1044
 5024TIP3    H136563   3.271   3.571   2.849 -1.6582 -0.9219 -0.5740
 5024TIP3    H236564   3.160   3.660   2.902  0.3433  1.0509  0.4911
 5025TIP3   OH236565   4.779   3.446  15.290 -0.3903 -0.0758  0.4047
 5025TIP3    H136566   4.730   3.510  15.237  0.7003  0.4287 -0.0229
 5025TIP3    H236567   4.800   3.493  15.370  2.4080  0.9771 -0.8238
 5026TIP3   OH236568   3.802   3.560  16.518  0.1817  0.2920 -0.1543
 5026TIP3    H136569   3.853   3.556  16.437 -0.7289 -1.6842 -0.7034
 5026TIP3    H236570   3.862   3.595  16.583  1.3355  0.7115 -1.3983
 5027TIP3   OH236571   4.735   2.298  14.152 -1.2537  0.5192  0.3853
 5027TIP3    H136572   4.795   2.247  14.097 -0.3124  1.0982  0.8517
 5027TIP3    H236573   4.757   2.273  14.242 -0.1408  2.3869  0.6807
 5028TIP3   OH236574   0.675   3.635   1.339  0.1102  0.8285 -0.2558
 5028TIP3    H136575   0.725   3.563   1.379  1.2733  2.0046  0.4888
 5028TIP3    H236576   0.593   3.637   1.388  0.4807  0.6229  0.3888
 5029TIP3   OH236577   6.324   3.848   2.136 -0.5351  0.2245  0.1427
 5029TIP3    H136578   6.296   3.826   2.047 -1.1541 -0.6594  0.5535
 5029TIP3    H236579   6.419   3.834   2.135 -0.7020 -1.0146 -0.0405
 5030TIP3   OH236580   3.823   5.728   0.547 -0.4472 -0.2536  0.3012
 5030TIP3    H136581   3.871   5.799   0.590  0.6228 -0.4953 -0.4399
 5030TIP3    H236582   3.731   5.749   0.559 -0.1484  1.3190  0.0131
 5031TIP3   OH236583   1.397   0.469  16.214  0.5953  0.2099  0.6687
 5031TIP3    H136584   1.482   0.426  16.223  0.5995  0.0750  0.0517
 5031TIP3    H236585   1.359   0.467  16.302  0.5326 -1.1777  0.6190
 5032TIP3   OH236586   2.870   1.785   0.210 -0.3633  0.1305  0.1173
 5032TIP3    H136587   2.837   1.777   0.120 -2.3217 -1.5510  0.8965
 5032TIP3    H236588   2.796   1.820   0.260  0.3628  0.1168  1.2472
 5033TIP3   OH236589   5.755   2.727   0.818  0.2908  0.0529  0.5803
 5033TIP3    H136590   5.825   2.663   0.803 -0.8744 -0.7815 -1.9761
 5033TIP3    H236591   5.721   2.746   0.730 -1.2320  2.1045  1.5317
 5034TIP3   OH236592   5.269   5.483  13.491 -0.0384 -0.0016  0.2531
 5034TIP3    H136593   5.220   5.446  13.417 -0.0072 -1.6147  0.9937
 5034TIP3    H236594   5.294   5.571  13.462 -0.9685 -0.1857 -1.2147
 5035TIP3   OH236595   3.458   5.899  16.904 -0.1508 -0.1167  0.2935
 5035TIP3    H136596   3.439   5.992  16.894  2.6376  0.3074 -2.4303
 5035TIP3    H236597   3.548   5.889  16.876 -0.5520 -3.7808 -0.2181
 5036TIP3   OH236598   2.276   5.388   5.705  0.1953 -0.5536  0.1223
 5036TIP3    H136599   2.316   5.444   5.640  0.3356  0.7135  1.2436
 5036TIP3    H236600   2.263   5.304   5.661 -2.0705  0.9564 -2.3475
 5037TIP3   OH236601   2.015   2.579  11.876 -0.2477 -0.1018  0.0437
 5037TIP3    H136602   2.037   2.653  11.820 -0.2775  0.7398  1.1082
 5037TIP3    H236603   1.950   2.614  11.937 -0.2898 -1.0148  0.5401
 5038TIP3   OH236604   2.867   1.067   5.870  0.2366  0.4846  0.2077
 5038TIP3    H136605   2.888   1.006   5.940 -1.8275 -2.9368 -1.8632
 5038TIP3    H236606   2.899   1.025   5.790 -1.1949  2.1550 -1.3428
 5039TIP3   OH236607   3.742   3.344   4.694 -0.1750 -0.2247  0.2097
 5039TIP3    H136608   3.744   3.393   4.611  0.1281 -2.2361 -1.0492
 5039TIP3    H236609   3.651   3.316   4.702 -0.0376 -0.6994  0.1292
 5040TIP3   OH236610   5.682   4.998   2.911  0.3542 -0.8813  0.7639
 5040TIP3    H136611   5.714   5.082   2.944  1.0127 -0.8935  0.1780
 5040TIP3    H236612   5.744   4.933   2.945  0.1731 -1.0650  0.7472
 5041TIP3   OH236613   3.610   1.175   0.924 -0.5596  0.2709 -0.2330
 5041TIP3    H136614   3.599   1.233   0.999 -2.3769  0.5685 -0.6630
 5041TIP3    H236615   3.687   1.122   0.945 -0.9281  0.4431  1.7694
 5042TIP3   OH236616   2.932   0.835  15.615 -0.4357 -0.5131  0.1176
 5042TIP3    H136617   2.922   0.762  15.676 -0.9620  0.5796  1.3884
 5042TIP3    H236618   3.018   0.821  15.575  2.5741  1.3813  4.9406
 5043TIP3   OH236619   3.245   5.764   6.114  0.1117  0.0527  0.1828
 5043TIP3    H136620   3.194   5.734   6.189 -0.2251 -2.1516 -0.8328
 5043TIP3    H236621   3.207   5.848   6.090 -1.5402 -0.4630  0.8717
 5044TIP3   OH236622   5.569   5.730   3.496  1.0219 -0.4533  0.3670
 5044TIP3    H136623   5.581   5.770   3.409  0.5735  0.9854  0.9340
 5044TIP3    H236624   5.497   5.669   3.484  0.9012 -0.2026 -0.2608
 5045TIP3   OH236625   1.901   3.734  12.337 -0.3627  0.1143 -0.2197
 5045TIP3    H136626   1.907   3.817  12.288 -0.3345  0.8978  1.0563
 5045TIP3    H236627   1.874   3.761  12.425  0.7556 -1.1385  0.5250
 5046TIP3   OH236628   3.914   4.871   5.055  0.3225  0.2229  0.6433
 5046TIP3    H136629   3.918   4.880   4.960 -0.5818 -1.5125  0.4089
 5046TIP3    H236630   3.821   4.859   5.074  0.6724 -1.3375  1.5374
 5047TIP3   OH236631   0.935   0.359  15.640 -0.1946 -0.0017  0.4352
 5047TIP3    H136632   0.851   0.314  15.648  0.4160 -1.8466 -2.2004
 5047TIP3    H236633   0.993   0.313  15.701 -0.6217  0.0048  0.8462
 5048TIP3   OH236634   3.934   5.987  13.096  0.1211  0.0744 -0.1005
 5048TIP3    H136635   3.993   5.912  13.097  0.1797  0.1155  1.3190
 5048TIP3    H236636   3.859   5.960  13.148 -0.1181  0.8032 -0.0529
 5049TIP3   OH236637   2.508   1.817  11.665 -0.7305 -0.4371  0.2060
 5049TIP3    H136638   2.510   1.723  11.645 -2.0967 -0.1712 -1.4663
 5049TIP3    H236639   2.451   1.824  11.742 -0.9740 -0.9561  0.0788
 5050TIP3   OH236640   3.052   2.625  15.879  0.2740 -0.1649 -0.4655
 5050TIP3    H136641   3.042   2.690  15.810 -0.4503  0.1580 -0.0643
 5050TIP3    H236642   3.046   2.541  15.834  0.6842  0.0416 -0.9097
 5051TIP3   OH236643   4.713   2.146  15.264  0.8989 -0.1501  0.1850
 5051TIP3    H136644   4.642   2.085  15.247  0.1538  0.7755 -0.0919
 5051TIP3    H236645   4.717   2.202  15.186  0.2066  1.4565  1.2401
 5052TIP3   OH236646   3.103   1.308  11.643 -0.7820 -0.1829 -0.0438
 5052TIP3    H136647   3.147   1.350  11.716 -1.1829 -2.6068  1.7233
 5052TIP3    H236648   3.076   1.380  11.586  0.3548  1.7310  1.7210
 5053TIP3   OH236649   3.051   6.142  14.221 -0.8099  0.5869 -0.2771
 5053TIP3    H136650   3.052   6.159  14.126  4.1772 -2.8419 -1.2975
 5053TIP3    H236651   2.999   6.063  14.230  0.3972 -0.2968 -0.6622
 5054TIP3   OH236652   1.487   0.599  12.556  0.3645  0.4373  0.1263
 5054TIP3    H136653   1.393   0.598  12.536  0.1816  0.6798  0.9144
 5054TIP3    H236654   1.524   0.662  12.494 -0.2790  1.6468  0.9259
 5055TIP3   OH236655   2.682   2.655  14.260  0.6618 -0.1206 -0.0241
 5055TIP3    H136656   2.664   2.562  14.245 -0.1881  0.1395 -0.7123
 5055TIP3    H236657   2.620   2.681  14.327 -1.8054  0.8002 -2.4693
 5056TIP3   OH236658   3.186   2.636  13.920  0.4728  0.1083  0.0520
 5056TIP3    H136659   3.171   2.604  13.831 -3.4456  1.0073  0.1785
 5056TIP3    H236660   3.192   2.557  13.973 -0.6071 -0.4639 -0.6355
 5057TIP3   OH236661   6.749   2.289  11.059  0.4508 -0.5769  0.0866
 5057TIP3    H136662   6.771   2.349  10.988  1.6576 -0.5714  0.4292
 5057TIP3    H236663   6.757   2.202  11.020  1.3426 -0.5821  0.2469
 5058TIP3   OH236664   0.695   3.767   2.221  0.1008 -0.5689  0.2142
 5058TIP3    H136665   0.711   3.722   2.138  0.1339  0.3125 -0.2662
 5058TIP3    H236666   0.717   3.858   2.204 -1.5505 -0.0444  0.7009
 5059TIP3   OH236667   3.426   1.316  12.198  0.5132 -0.5411 -0.3337
 5059TIP3    H136668   3.407   1.223  12.186  1.7621 -1.0024  0.9373
 5059TIP3    H236669   3.474   1.320  12.281  1.3602  1.1184 -0.8491
 5060TIP3   OH236670   6.496   4.602  12.414 -0.2877 -0.5988  0.0749
 5060TIP3    H136671   6.402   4.603  12.431 -0.0627  0.1119  1.4641
 5060TIP3    H236672   6.512   4.521  12.367 -1.1468 -2.4217  2.7243
 5061TIP3   OH236673   6.156   5.405   2.080 -0.1188  0.1353  0.1606
 5061TIP3    H136674   6.199   5.484   2.113  2.3047 -0.9258 -0.2577
 5061TIP3    H236675   6.131   5.429   1.990  0.1109  0.5921  0.2117
 5062TIP3   OH236676   6.339   0.602   2.501 -0.2870 -0.0993 -0.5098
 5062TIP3    H136677   6.399   0.577   2.571  0.9119 -0.7676 -1.7303
 5062TIP3    H236678   6.272   0.534   2.502 -0.3285 -0.0610  0.0107
 5063TIP3   OH236679   6.818   2.686   5.062 -0.4430  0.0312 -0.8280
 5063TIP3    H136680   6.826   2.602   5.107  1.3926  0.6339  0.0591
 5063TIP3    H236681   6.772   2.665   4.981 -0.1436 -1.8090 -0.5700
 5064TIP3   OH236682   0.627   0.400   4.819  0.0717 -0.2348 -0.2954
 5064TIP3    H136683   0.713   0.401   4.777  0.6697 -0.2214  0.9026
 5064TIP3    H236684   0.576   0.464   4.769  1.7715  2.2992  0.9907
 5065TIP3   OH236685   0.433   1.812  12.358 -0.8630 -0.3416 -0.6875
 5065TIP3    H136686   0.511   1.854  12.393 -1.8949 -0.1049  1.5073
 5065TIP3    H236687   0.466   1.739  12.306  0.7926 -0.2989  0.2382
 5066TIP3   OH236688   2.387   6.662  16.991  0.2357  0.2180  0.5012
 5066TIP3    H136689   2.427   6.579  17.017 -0.8532  0.1087  1.9109
 5066TIP3    H236690   2.324   6.682  17.060  0.3815  2.1703  0.1395
 5067TIP3   OH236691   5.374   1.604  13.023 -0.4162 -0.1814  0.0422
 5067TIP3    H136692   5.365   1.535  12.958  1.4905  0.1270 -0.6112
 5067TIP3    H236693   5.384   1.684  12.971 -0.5623  0.3109  0.7547
 5068TIP3   OH236694   3.911   0.022   6.005  0.2612 -0.2555 -0.8862
 5068TIP3    H136695   3.871   0.020   5.918  0.7115  1.9798 -1.2070
 5068TIP3    H236696   3.931   0.114   6.020 -0.0766 -0.5317  1.7327
 5069TIP3   OH236697   5.327   3.540  13.550 -0.1539 -0.2222  0.1981
 5069TIP3    H136698   5.294   3.556  13.639 -0.4009 -0.3711  0.1344
 5069TIP3    H236699   5.321   3.445  13.540 -0.7433 -0.1461 -0.2150
 5070TIP3   OH236700   0.485   4.274   1.414  0.1084  0.6127  0.6318
 5070TIP3    H136701   0.559   4.293   1.472  1.1196 -0.6576 -0.1509
 5070TIP3    H236702   0.523   4.218   1.346 -1.7993 -0.9741  0.7739
 5071TIP3   OH236703   3.007   1.056  11.711 -0.1787 -0.2057  0.2238
 5071TIP3    H136704   3.041   1.145  11.698  0.6752 -0.6255 -0.5422
 5071TIP3    H236705   3.041   1.030  11.797  1.9457 -0.7984 -0.7354
 5072TIP3   OH236706   6.264   2.688   5.838  0.1173  0.1347 -0.6916
 5072TIP3    H136707   6.170   2.704   5.843  0.3289  1.2614 -0.0155
 5072TIP3    H236708   6.271   2.594   5.821 -1.1031 -0.4795  1.7860
 5073TIP3   OH236709   2.616   3.714   2.920  0.1414 -0.0179  0.1281
 5073TIP3    H136710   2.630   3.805   2.944 -1.8589  0.5218 -0.5466
 5073TIP3    H236711   2.613   3.715   2.824 -1.4723 -0.4704  0.1336
 5074TIP3   OH236712   4.377   6.828  16.324 -0.4954 -0.1274  0.0385
 5074TIP3    H136713   4.310   6.759  16.320 -1.7123  0.9829  0.5921
 5074TIP3    H236714   4.460   6.782  16.308 -1.3118 -1.6454  0.0044
 5075TIP3   OH236715   1.840   6.413  12.200 -0.7138  0.1060  0.0317
 5075TIP3    H136716   1.878   6.364  12.128  0.0848 -0.4487  0.8219
 5075TIP3    H236717   1.879   6.376  12.279 -0.4842  1.6384  0.6882
 5076TIP3   OH236718   1.832   4.961  11.076  0.1017  0.6510 -0.2968
 5076TIP3    H136719   1.801   4.899  11.010  1.8877  1.1199 -1.6633
 5076TIP3    H236720   1.863   5.036  11.025 -0.3272  1.9124  1.2178
 5077TIP3   OH236721   0.956   0.094   6.013 -0.0597 -0.1211 -0.0921
 5077TIP3    H136722   1.018   0.030   6.049  1.3229  0.4188 -1.3695
 5077TIP3    H236723   0.931   0.149   6.087 -0.6841 -1.6566  0.8718
 5078TIP3   OH236724   4.645   6.818   0.496  0.5012  0.2441  0.2640
 5078TIP3    H136725   4.640   6.911   0.478  1.2118  0.4001  0.8000
 5078TIP3    H236726   4.637   6.811   0.591 -0.2244 -0.2987  0.1698
 5079TIP3   OH236727   1.178   1.308   2.035  0.0210 -0.0265  1.2818
 5079TIP3    H136728   1.186   1.260   1.953 -0.8512  0.0615  1.1353
 5079TIP3    H236729   1.165   1.240   2.102  1.4702 -0.1450  1.4667
 5080TIP3   OH236730   0.260   5.648   4.497  0.3513 -0.0549 -0.0070
 5080TIP3    H136731   0.281   5.555   4.488  0.2528 -0.4991  3.1779
 5080TIP3    H236732   0.190   5.650   4.564  1.0160  2.3428  0.7106
 5081TIP3   OH236733   1.749   3.816  15.802  0.3348 -0.2880  0.3890
 5081TIP3    H136734   1.791   3.874  15.866  0.3272  1.0493 -0.7573
 5081TIP3    H236735   1.659   3.849  15.796  0.7329  0.5817 -1.3581
 5082TIP3   OH236736   0.458   3.485   6.233  0.5777  0.2630  0.1612
 5082TIP3    H136737   0.376   3.444   6.206  0.5499  0.3180  0.1616
 5082TIP3    H236738   0.522   3.458   6.168  0.4281  0.7057 -0.1753
 5083TIP3   OH236739   0.045   4.136  11.451 -0.1403  0.0453 -0.4684
 5083TIP3    H136740  -0.029   4.101  11.502 -0.3539 -1.0855 -1.5179
 5083TIP3    H236741   0.090   4.195  11.512 -2.5142  1.6436 -0.1180
 5084TIP3   OH236742   2.582   1.699  15.911 -0.2563 -0.2682 -0.0841
 5084TIP3    H136743   2.528   1.655  15.976 -0.5056  1.7423  1.1494
 5084TIP3    H236744   2.528   1.773  15.880  1.4521  1.3852  0.6792
 5085TIP3   OH236745   6.577   1.049   0.719 -0.2912  0.3415 -0.2571
 5085TIP3    H136746   6.623   1.121   0.677  2.2937 -1.6615 -1.1551
 5085TIP3    H236747   6.554   0.990   0.648  0.0690 -0.9579  0.6697
 5086TIP3   OH236748   4.718   4.468  15.707 -1.0626  0.2133  0.4303
 5086TIP3    H136749   4.741   4.375  15.702 -0.5975  0.4061 -1.6865
 5086TIP3    H236750   4.676   4.477  15.793  1.0987 -1.4351  1.7607
 5087TIP3   OH236751   5.056   4.899   0.874 -0.7096 -0.0752 -0.0930
 5087TIP3    H136752   5.146   4.925   0.891 -1.5018  3.8975 -0.9634
 5087TIP3    H236753   5.051   4.894   0.778 -1.5348  0.4988 -0.0896
 5088TIP3   OH236754   3.902   1.469  16.223  0.2337 -0.2952 -0.0937
 5088TIP3    H136755   3.879   1.530  16.293 -0.4836 -0.6807  0.0160
 5088TIP3    H236756   3.939   1.524  16.154 -1.9439  0.5321 -0.7006
 5089TIP3   OH236757   3.940   5.897   4.031 -0.2014 -0.0369  0.5883
 5089TIP3    H136758   3.891   5.827   4.075 -1.1506  1.1436  1.4997
 5089TIP3    H236759   3.960   5.959   4.101  2.2285 -0.2302  0.1444
 5090TIP3   OH236760   5.825   4.387   1.283  0.7764  0.2748 -0.1741
 5090TIP3    H136761   5.785   4.472   1.302 -0.2495 -0.4078  0.8805
 5090TIP3    H236762   5.776   4.354   1.208  1.1172  0.5741 -0.5299
 5091TIP3   OH236763   0.861   5.305  13.063 -0.1111 -0.1586  0.1511
 5091TIP3    H136764   0.765   5.308  13.068 -0.1496  0.9527 -0.7542
 5091TIP3    H236765   0.891   5.353  13.140 -0.2571 -1.2982  0.9298
 5092TIP3   OH236766   2.849   2.907  14.773  0.2473 -0.3201  0.1656
 5092TIP3    H136767   2.939   2.903  14.741  0.5514  0.5185  0.8805
 5092TIP3    H236768   2.816   2.818  14.762  0.5252 -0.2158 -1.8501
 5093TIP3   OH236769   4.195   0.716  16.313 -0.1104  0.0748 -0.4250
 5093TIP3    H136770   4.155   0.798  16.281  0.2614 -0.4159 -2.3044
 5093TIP3    H236771   4.286   0.738  16.328 -0.3759  0.4139  0.7863
 5094TIP3   OH236772   5.485   2.659   5.301 -0.5600 -0.7003  0.4741
 5094TIP3    H136773   5.578   2.639   5.297  0.0323  1.7284  0.5658
 5094TIP3    H236774   5.473   2.699   5.387 -0.9935  1.7841 -0.6407
 5095TIP3   OH236775   4.159   4.884  14.219  0.1885 -0.0388  0.2615
 5095TIP3    H136776   4.101   4.902  14.145 -0.3234 -1.0112  0.4149
 5095TIP3    H236777   4.196   4.970  14.241 -0.3413  0.4117 -0.5391
 5096TIP3   OH236778   5.661   5.256  13.651 -0.0039 -0.1218 -0.5152
 5096TIP3    H136779   5.706   5.253  13.566 -0.7224  1.0006 -0.9588
 5096TIP3    H236780   5.730   5.277  13.714  1.0767 -3.5450 -0.3548
 5097TIP3   OH236781   2.340   6.768  11.311 -0.7818  0.1140  0.0338
 5097TIP3    H136782   2.253   6.731  11.297 -1.4288  0.7517  2.0472
 5097TIP3    H236783   2.345   6.842  11.251 -1.3925 -0.2974 -0.5321
 5098TIP3   OH236784   5.165   2.700   1.813  0.5181 -0.6212 -0.7689
 5098TIP3    H136785   5.179   2.657   1.897  0.1789 -1.4553 -1.1359
 5098TIP3    H236786   5.120   2.781   1.836  2.1745  0.1362  0.0315
 5099TIP3   OH236787   2.319   1.368   3.574 -0.0908  0.7720 -0.0387
 5099TIP3    H136788   2.254   1.299   3.563 -1.2670  1.7216  0.6350
 5099TIP3    H236789   2.402   1.329   3.547 -1.0284 -0.2935 -1.4920
 5100TIP3   OH236790   3.771   0.065   4.549  0.2632  0.0118 -0.1145
 5100TIP3    H136791   3.751   0.150   4.510  0.7663  0.0256 -0.3537
 5100TIP3    H236792   3.722   0.064   4.631  1.3301  1.1010  0.5719
 5101TIP3   OH236793   5.533   2.762  14.260  0.1229  0.0918  0.1466
 5101TIP3    H136794   5.438   2.759  14.246  0.2463 -1.8588 -0.6029
 5101TIP3    H236795   5.547   2.711  14.340  0.7111 -1.9111 -1.1627
 5102TIP3   OH236796   5.828   1.038  16.903 -0.1405 -0.6015  0.0648
 5102TIP3    H136797   5.817   1.059  16.810  0.9603 -0.0135  0.0519
 5102TIP3    H236798   5.739   1.037  16.938 -0.5590 -0.7533 -0.9830
 5103TIP3   OH236799   1.033   3.961  15.326  0.2803  0.1276 -0.2402
 5103TIP3    H136800   1.045   3.927  15.415 -0.1544 -0.7318 -0.4928
 5103TIP3    H236801   0.959   3.911  15.291 -1.4941  2.4772 -0.0966
 5104TIP3   OH236802   5.225   0.222   2.018  0.3318 -0.1117  0.1709
 5104TIP3    H136803   5.201   0.136   1.984  2.2509 -0.1535 -1.2650
 5104TIP3    H236804   5.294   0.252   1.960  1.6724  1.1809  2.2759
 5105TIP3   OH236805   3.370   5.775  13.593  1.1884 -0.1007 -0.0022
 5105TIP3    H136806   3.294   5.720  13.574  1.0473 -0.2706  0.9848
 5105TIP3    H236807   3.387   5.822  13.512  1.0735 -1.3099 -0.7556
 5106TIP3   OH236808   0.642   1.635  15.439 -0.6792 -0.2219 -0.0941
 5106TIP3    H136809   0.677   1.588  15.364  2.0933  1.9877 -0.3435
 5106TIP3    H236810   0.576   1.576  15.475 -0.7756 -2.1907 -3.0816
 5107TIP3   OH236811   2.587   5.396  11.920 -0.2419 -0.7972 -0.0143
 5107TIP3    H136812   2.609   5.379  12.012 -0.6320 -2.8918 -0.2555
 5107TIP3    H236813   2.493   5.375  11.914 -0.8160  1.6393 -0.4052
 5108TIP3   OH236814   2.398   6.260   2.578 -0.2832 -0.6362 -0.2492
 5108TIP3    H136815   2.382   6.171   2.548  0.0435 -0.6112 -0.5083
 5108TIP3    H236816   2.400   6.254   2.673  1.4817 -1.2399 -0.2797
 5109TIP3   OH236817   4.829   5.759  16.254 -0.2476  0.0743 -0.0510
 5109TIP3    H136818   4.822   5.812  16.174 -0.9721  0.2847  0.1447
 5109TIP3    H236819   4.866   5.676  16.224 -3.7170 -1.2225 -1.2947
 5110TIP3   OH236820   6.448   0.207   4.619  0.2087 -0.6396  0.9407
 5110TIP3    H136821   6.439   0.120   4.579  1.3121 -0.2379 -0.2682
 5110TIP3    H236822   6.513   0.195   4.688 -1.1695 -1.1848  2.1875
 5111TIP3   OH236823   5.278   2.971  15.789  0.4423  0.5021  0.2101
 5111TIP3    H136824   5.303   2.884  15.821  0.0299 -0.4276 -1.7816
 5111TIP3    H236825   5.192   2.958  15.750 -0.6725  2.3740  1.8808
 5112TIP3   OH236826   4.982   0.068  14.142 -0.7917 -0.1572  0.1049
 5112TIP3    H136827   4.973  -0.013  14.092 -1.0142  0.0632 -0.2221
 5112TIP3    H236828   5.059   0.054  14.197 -0.3638 -0.3031 -0.5096
 5113TIP3   OH236829   3.438   5.777   4.588  0.5460 -0.8533  0.2979
 5113TIP3    H136830   3.478   5.856   4.624 -0.0438 -0.5741  0.3512
 5113TIP3    H236831   3.448   5.787   4.493 -0.7961 -0.0037  0.2143
 5114TIP3   OH236832   5.306   4.947  15.881 -0.1731  0.5308 -0.3774
 5114TIP3    H136833   5.390   4.973  15.844 -0.5823  1.3084 -0.7782
 5114TIP3    H236834   5.317   4.961  15.975  1.1011 -2.1036 -0.0464
 5115TIP3   OH236835   5.755   5.614  11.877 -0.1907  0.0477  0.3120
 5115TIP3    H136836   5.775   5.623  11.970  1.5660 -0.0201 -0.0265
 5115TIP3    H236837   5.681   5.673  11.862  0.6805  1.4552  1.3766
 5116TIP3   OH236838   1.685   3.364  13.289 -0.6079 -0.0865  0.3466
 5116TIP3    H136839   1.705   3.424  13.360 -1.6118 -1.3488  1.7696
 5116TIP3    H236840   1.737   3.395  13.215 -1.6264  2.9214  0.7821
 5117TIP3   OH236841   0.611   2.383   5.233 -0.2962  0.3333  0.2842
 5117TIP3    H136842   0.598   2.462   5.285  1.2937  0.9237 -0.1684
 5117TIP3    H236843   0.694   2.397   5.187 -0.2420 -1.3716 -0.2241
 5118TIP3   OH236844   4.291   6.325  16.838  0.4468  0.0142  0.7146
 5118TIP3    H136845   4.384   6.346  16.832  0.3883  0.0387 -0.1538
 5118TIP3    H236846   4.254   6.396  16.892  0.4829  1.4826 -1.1053
 5119TIP3   OH236847   1.271   5.914   1.855 -0.0074 -0.0167  0.1215
 5119TIP3    H136848   1.232   5.997   1.830  0.7480  0.0417 -0.8875
 5119TIP3    H236849   1.363   5.934   1.872 -0.0322 -0.4668  0.8637
 5120TIP3   OH236850   0.242   5.064  13.284  0.0946 -0.4995 -0.1791
 5120TIP3    H136851   0.197   4.979  13.289 -0.0636 -0.4672 -0.8853
 5120TIP3    H236852   0.334   5.043  13.300 -0.0131 -0.7267  0.1713
 5121TIP3   OH236853   2.676   3.257   5.707  0.6545  0.3552 -0.6702
 5121TIP3    H136854   2.666   3.257   5.612 -0.1992  2.2700 -0.6269
 5121TIP3    H236855   2.593   3.224   5.740  1.3872 -1.4731 -0.5806
 5122TIP3   OH236856   0.296   3.644  16.210  0.5771  0.0347  0.4702
 5122TIP3    H136857   0.299   3.693  16.128  0.2421  1.5551  1.3187
 5122TIP3    H236858   0.387   3.621  16.227  1.0454  2.0154  0.9471
 5123TIP3   OH236859   4.203   1.806  13.498 -0.6409 -0.6235  0.0292
 5123TIP3    H136860   4.227   1.716  13.476 -0.6915 -0.0150 -2.9583
 5123TIP3    H236861   4.261   1.830  13.570  1.8147 -1.9786 -1.3690
 5124TIP3   OH236862   6.342   0.853  15.564 -0.2826 -0.3455  0.1673
 5124TIP3    H136863   6.363   0.760  15.556  0.9200  0.0379 -2.4147
 5124TIP3    H236864   6.427   0.897  15.561 -0.8905  0.8803  0.2443
 5125TIP3   OH236865   1.548   0.382   4.127 -0.8280  0.0372 -0.3411
 5125TIP3    H136866   1.477   0.354   4.185 -0.2045 -0.6904  0.0975
 5125TIP3    H236867   1.600   0.303   4.113  0.9498  0.8993  0.8587
 5126TIP3   OH236868   2.912   5.496   2.883  0.3149  0.0498  0.0103
 5126TIP3    H136869   2.924   5.544   2.801 -0.9702  1.1530  0.4275
 5126TIP3    H236870   2.963   5.545   2.947 -0.4147  0.4597  0.2904
 5127TIP3   OH236871   5.830   4.463   2.636 -0.0189  0.4099 -0.4698
 5127TIP3    H136872   5.922   4.491   2.636  0.3484 -0.7260 -0.0761
 5127TIP3    H236873   5.803   4.471   2.727  0.4379 -1.4938 -0.1207
 5128TIP3   OH236874   5.364   0.052  12.513  0.2408 -0.3199 -0.2055
 5128TIP3    H136875   5.327   0.027  12.428  2.8882 -0.5761 -1.3931
 5128TIP3    H236876   5.376   0.146  12.506 -1.7713  0.0671  0.9024
 5129TIP3   OH236877   3.892   1.229   4.171  0.1073 -0.2610  0.3113
 5129TIP3    H136878   3.810   1.220   4.220 -1.0769  1.8649 -1.0789
 5129TIP3    H236879   3.954   1.265   4.234 -0.7485  0.3674  0.8226
 5130TIP3   OH236880   6.692   3.600  12.862  0.4871  0.1560 -0.1994
 5130TIP3    H136881   6.660   3.595  12.953  0.8237  1.1814 -0.0150
 5130TIP3    H236882   6.663   3.686  12.832 -0.7708 -0.6917 -1.5153
 5131TIP3   OH236883   2.955   6.455   5.673  0.1437  0.6300 -0.2301
 5131TIP3    H136884   2.893   6.388   5.702 -0.3601  1.0861 -0.2479
 5131TIP3    H236885   2.914   6.538   5.696  0.0424  0.9851 -1.6268
 5132TIP3   OH236886   2.814   2.665  12.832 -0.0418  0.2901 -0.3910
 5132TIP3    H136887   2.876   2.653  12.760  1.0906 -2.2277  0.8623
 5132TIP3    H236888   2.767   2.582  12.837 -2.7717  1.7114 -0.5163
 5133TIP3   OH236889   5.585   1.817  13.429  0.5943  0.2737  0.0808
 5133TIP3    H136890   5.591   1.809  13.333 -0.3914  0.7153 -0.0307
 5133TIP3    H236891   5.674   1.840  13.456  0.6269  1.3871 -0.8756
 5134TIP3   OH236892   6.567   2.959  13.351 -0.1146  0.0798  0.0287
 5134TIP3    H136893   6.492   2.900  13.352 -0.1299  0.0852  1.4700
 5134TIP3    H236894   6.534   3.039  13.393  0.7926 -0.0795  1.0994
 5135TIP3   OH236895   1.507   1.070   3.391  0.4356 -0.3879  0.4788
 5135TIP3    H136896   1.580   1.093   3.449 -0.2555  2.3804  0.3841
 5135TIP3    H236897   1.445   1.025   3.448  0.6328  0.5296  1.4568
 5136TIP3   OH236898   2.824   6.556  16.883 -0.7526 -0.1149  0.4912
 5136TIP3    H136899   2.772   6.561  16.964 -0.0060 -1.0403  1.0518
 5136TIP3    H236900   2.868   6.641  16.877  0.9179 -0.7704  2.2927
 5137TIP3   OH236901   1.291   5.242  14.038 -0.2628 -0.5653  0.0503
 5137TIP3    H136902   1.350   5.314  14.013 -1.1442  0.6481  1.3117
 5137TIP3    H236903   1.293   5.183  13.963 -0.5102  1.4482 -1.6441
 5138TIP3   OH236904   5.142   2.920   0.877 -0.6086 -0.0955 -0.1626
 5138TIP3    H136905   5.145   2.825   0.890 -0.7283 -0.2254 -1.0799
 5138TIP3    H236906   5.220   2.940   0.826  1.0182  0.7067  2.4036
 5139TIP3   OH236907   1.488   1.156   5.208  0.3187  0.0670 -0.2898
 5139TIP3    H136908   1.469   1.095   5.137 -1.0102  1.0831 -0.8558
 5139TIP3    H236909   1.407   1.159   5.259  0.4869  1.0520 -0.0519
 5140TIP3   OH236910   6.278   2.660   2.853  0.3246  0.0996  0.2241
 5140TIP3    H136911   6.280   2.690   2.943  0.7420 -1.4372  0.7639
 5140TIP3    H236912   6.357   2.606   2.844 -2.3932 -4.5498  0.7667
 5141TIP3   OH236913   1.009   4.829  12.305 -0.1069  0.3070 -0.5038
 5141TIP3    H136914   1.018   4.924  12.312  0.4324  0.2703 -0.6309
 5141TIP3    H236915   0.941   4.815  12.240  1.3312  0.6053 -2.1455
 5142TIP3   OH236916   0.530   3.172  14.151  0.1218  0.7550  0.5417
 5142TIP3    H136917   0.541   3.246  14.092  3.6157 -1.2371 -1.6741
 5142TIP3    H236918   0.579   3.195  14.230  0.4767  1.1216  0.2119
 5143TIP3   OH236919   6.469   6.822  16.140 -0.9291 -0.5118 -0.0254
 5143TIP3    H136920   6.465   6.915  16.162  1.1562 -0.7750  1.8711
 5143TIP3    H236921   6.545   6.815  16.082 -2.0390 -0.8603 -1.4875
 5144TIP3   OH236922   2.977   4.970  12.033  0.6523  0.0775  0.6389
 5144TIP3    H136923   3.005   5.050  12.077  2.1363  0.3303 -0.6840
 5144TIP3    H236924   3.053   4.912  12.040  0.3268 -0.4595 -0.1810
 5145TIP3   OH236925   2.197   1.128  12.587  0.5018  0.0690 -0.2274
 5145TIP3    H136926   2.132   1.058  12.589  0.5584  0.0388  1.1741
 5145TIP3    H236927   2.177   1.176  12.506 -0.9833 -0.2097 -0.0636
 5146TIP3   OH236928   6.316   5.349  14.976  0.4201 -0.3894  0.0670
 5146TIP3    H136929   6.233   5.390  15.000  0.7518 -0.2725  1.0206
 5146TIP3    H236930   6.383   5.411  15.004  0.8787 -1.0495  0.4522
 5147TIP3   OH236931   0.757   1.553   2.236  0.4818  0.1977 -0.1595
 5147TIP3    H136932   0.697   1.479   2.229  2.7446 -1.9429  1.2179
 5147TIP3    H236933   0.821   1.538   2.166 -1.7130  3.8434 -3.3334
 5148TIP3   OH236934   3.559   0.292   3.324 -0.1253  0.2499  0.1060
 5148TIP3    H136935   3.623   0.247   3.269 -1.9261 -1.8583 -0.3940
 5148TIP3    H236936   3.543   0.375   3.279  1.1623  0.1986 -0.4991
 5149TIP3   OH236937   0.625   0.181  13.134 -0.5245  0.3603 -1.0483
 5149TIP3    H136938   0.649   0.127  13.208 -1.3244  1.2678 -0.0920
 5149TIP3    H236939   0.702   0.235  13.116 -0.5750  0.6562 -0.3918
 5150TIP3   OH236940   5.171   5.327  14.593  0.6807 -0.9498 -0.5029
 5150TIP3    H136941   5.226   5.343  14.516  1.1303 -0.5916 -0.1136
 5150TIP3    H236942   5.103   5.268  14.562 -0.2393  0.6337 -1.6571
 5151TIP3   OH236943   0.574   6.437  15.711 -0.7634  0.1572  0.1910
 5151TIP3    H136944   0.593   6.424  15.618  0.3528 -0.0122  0.4289
 5151TIP3    H236945   0.577   6.349  15.749  1.3107  0.4446  0.8217
 5152TIP3   OH236946   5.531   3.108   4.312  0.2207 -0.2542 -0.1305
 5152TIP3    H136947   5.578   3.034   4.276  0.7762 -0.1066  0.2846
 5152TIP3    H236948   5.468   3.132   4.244  0.4672 -0.7058 -0.5211
 5153TIP3   OH236949   3.432   5.619   4.799  0.2087 -0.0154 -0.3864
 5153TIP3    H136950   3.462   5.681   4.732  0.0244  2.5511  1.7293
 5153TIP3    H236951   3.337   5.629   4.800 -0.1391 -2.3775 -1.7641
 5154TIP3   OH236952   1.376   0.256   4.662 -0.4559  0.1288 -0.4206
 5154TIP3    H136953   1.409   0.344   4.646 -2.4101  0.5197 -2.8879
 5154TIP3    H236954   1.304   0.268   4.724  0.1826  0.0456  0.3532
 5155TIP3   OH236955   4.371   2.320   0.211 -0.0914 -0.6300 -0.7351
 5155TIP3    H136956   4.429   2.249   0.239  0.4704  0.5392  1.2448
 5155TIP3    H236957   4.342   2.294   0.124  1.3547 -2.5057 -0.7204
 5156TIP3   OH236958   1.978   3.380   5.958 -0.7493 -0.0526  0.3330
 5156TIP3    H136959   1.894   3.362   6.001 -1.4158 -1.8598 -1.5686
 5156TIP3    H236960   1.992   3.305   5.901  1.5354  0.8495 -0.3892
 5157TIP3   OH236961   0.011   4.686   4.053  0.4070  0.0065 -0.2312
 5157TIP3    H136962   0.098   4.701   4.089  0.1743 -1.0868  0.8158
 5157TIP3    H236963  -0.037   4.641   4.122 -0.6821 -0.3153 -1.1659
 5158TIP3   OH236964   4.634   2.922   6.471 -0.1142  0.0724 -0.4218
 5158TIP3    H136965   4.591   2.928   6.386  0.7145 -0.0433 -0.8624
 5158TIP3    H236966   4.583   2.858   6.520  0.1851 -0.8852 -1.3327
 5159TIP3   OH236967   1.261   0.103   3.264  0.7898 -0.0628 -0.0842
 5159TIP3    H136968   1.241   0.013   3.242 -1.3303  0.9524 -2.9301
 5159TIP3    H236969   1.201   0.126   3.335  0.8087 -0.6496  0.1203
 5160TIP3   OH236970   2.639   1.915  12.856 -0.4130 -0.2059 -0.2749
 5160TIP3    H136971   2.655   2.001  12.817  1.5516 -0.6497 -0.5352
 5160TIP3    H236972   2.630   1.856  12.782 -1.4679 -0.3020 -0.0899
 5161TIP3   OH236973   6.462   3.007  16.301 -0.0802 -0.4564  0.8084
 5161TIP3    H136974   6.423   2.921  16.285 -1.8165  0.3160  0.6982
 5161TIP3    H236975   6.405   3.047  16.366  0.5580  0.7323  0.6570
 5162TIP3   OH236976   2.663   2.310  12.094  0.6258  0.0691  0.4738
 5162TIP3    H136977   2.612   2.376  12.142  0.3430 -0.4610  0.9125
 5162TIP3    H236978   2.603   2.236  12.084  0.7749  0.0560 -0.4493
 5163TIP3   OH236979   3.933   1.504  14.734 -0.2934  0.0811 -0.3295
 5163TIP3    H136980   3.872   1.516  14.661 -0.8275 -0.2073  0.0642
 5163TIP3    H236981   3.880   1.467  14.804  0.6135 -1.4401 -0.4060
 5164TIP3   OH236982   0.343   3.166  11.256 -0.5104 -0.2415  0.2894
 5164TIP3    H136983   0.376   3.077  11.271  0.1203 -0.2708 -1.1229
 5164TIP3    H236984   0.420   3.222  11.270 -0.7430  0.0249  0.5125
 5165TIP3   OH236985   1.074   6.344   4.134  0.7704  0.1371  0.1672
 5165TIP3    H136986   1.004   6.395   4.092  0.6293  1.4786  1.9232
 5165TIP3    H236987   1.076   6.262   4.085 -0.5174  0.9438 -1.3479
 5166TIP3   OH236988   6.253   6.305  10.651 -0.3681  0.1445 -0.5655
 5166TIP3    H136989   6.177   6.287  10.596 -0.1911 -0.0215 -0.7593
 5166TIP3    H236990   6.317   6.239  10.625 -0.3362 -0.0271 -0.0552
 5167TIP3   OH236991   1.958   0.536   4.062  0.2593  0.2156  0.1111
 5167TIP3    H136992   1.891   0.525   4.130 -0.4276  0.5501 -0.5041
 5167TIP3    H236993   1.909   0.550   3.981  1.0737  0.6241 -0.3279
 5168TIP3   OH236994   3.697   4.325   1.450  0.5020 -0.1707 -0.1496
 5168TIP3    H136995   3.732   4.413   1.466  1.0409 -0.4282  0.1282
 5168TIP3    H236996   3.675   4.291   1.537  0.0886 -0.2282 -0.2748
 5169TIP3   OH236997   1.230   4.333   0.916 -0.1749  0.5637 -0.3413
 5169TIP3    H136998   1.291   4.260   0.924 -1.5671 -0.4930  1.3348
 5169TIP3    H236999   1.186   4.319   0.833  0.2015  0.0113 -0.4509
 5170TIP3   OH237000   1.515   2.124   1.995  0.4814 -0.0256  0.0912
 5170TIP3    H137001   1.579   2.053   1.998 -0.1808 -0.6956  3.7284
 5170TIP3    H237002   1.563   2.200   2.027  0.0247 -0.0117  0.7550
 5171TIP3   OH237003   2.983   0.444   5.228  0.2581  0.9705 -0.0727
 5171TIP3    H137004   2.987   0.527   5.275 -0.0861  1.1212 -0.3082
 5171TIP3    H237005   3.063   0.398   5.254  0.3597  1.2982  0.1989
 5172TIP3   OH237006   4.115   0.629   2.831  0.4722 -0.1325  0.0587
 5172TIP3    H137007   4.134   0.632   2.924  0.6042 -1.7361  0.1087
 5172TIP3    H237008   4.193   0.591   2.790 -0.6382 -2.2601 -0.2953
 5173TIP3   OH237009   1.593   4.969   1.693 -0.1614  0.4949 -0.0296
 5173TIP3    H137010   1.503   4.945   1.672 -0.1342  1.1058 -0.9002
 5173TIP3    H237011   1.607   5.052   1.647  0.7254  0.6012  0.4048
 5174TIP3   OH237012   6.665   5.096   4.588  0.0597 -0.2910  0.0189
 5174TIP3    H137013   6.676   5.169   4.526 -2.8000  0.4282  0.2136
 5174TIP3    H237014   6.709   5.022   4.546  1.4739  1.0794 -1.0407
 5175TIP3   OH237015   5.207   0.533  11.145  0.0590  0.8131  0.4920
 5175TIP3    H137016   5.215   0.602  11.079  0.2287  0.0132 -0.3544
 5175TIP3    H237017   5.268   0.558  11.214  0.2112  1.4393  0.1395
 5176TIP3   OH237018   3.095   4.986  12.282 -0.0605 -0.1386 -0.8454
 5176TIP3    H137019   3.047   4.974  12.364 -0.5763 -0.5278 -1.1956
 5176TIP3    H237020   3.183   5.009  12.309  0.0501 -1.2931 -0.1482
 5177TIP3   OH237021   1.550   0.710  15.542  0.6039 -0.3058 -0.0635
 5177TIP3    H137022   1.592   0.636  15.586  2.0599 -0.3150 -1.4069
 5177TIP3    H237023   1.549   0.687  15.450 -2.7540 -0.4504 -0.1126
 5178TIP3   OH237024   0.908   2.377  16.407 -0.5481  0.5368  0.4175
 5178TIP3    H137025   0.865   2.327  16.337  1.6905  1.3246 -1.6614
 5178TIP3    H237026   0.989   2.329  16.425 -0.4212  1.1210  1.4841
 5179TIP3   OH237027   0.094   4.210   0.649 -0.4746  0.3232 -0.5010
 5179TIP3    H137028   0.088   4.115   0.660  1.0515  0.3387  0.7879
 5179TIP3    H237029   0.005   4.237   0.623 -1.1056 -1.3537 -0.1836
 5180TIP3   OH237030   0.973   6.367   3.602  0.3993  0.1690 -0.3191
 5180TIP3    H137031   0.900   6.312   3.571  1.3423  0.5494 -3.5746
 5180TIP3    H237032   1.051   6.317   3.579  1.2187  1.1704  0.2614
 5181TIP3   OH237033   5.109   3.491   5.708  0.0369 -0.0019 -0.1492
 5181TIP3    H137034   5.156   3.574   5.694 -2.1629  1.1206 -1.5353
 5181TIP3    H237035   5.122   3.471   5.800  0.3234  2.1452  0.3372
 5182TIP3   OH237036   4.751   1.350  15.504  0.3162 -0.4275 -0.6155
 5182TIP3    H137037   4.755   1.381  15.414 -0.4433  0.0590 -0.4930
 5182TIP3    H237038   4.813   1.406  15.551 -0.2287  0.1755 -0.6039
 5183TIP3   OH237039   5.949   5.372   0.784 -0.7422  0.6455  0.2075
 5183TIP3    H137040   6.012   5.335   0.722  0.4380  0.0721  1.6722
 5183TIP3    H237041   5.868   5.324   0.767 -0.2835  0.0940 -0.5038
 5184TIP3   OH237042   6.423   0.998  13.564 -0.4499 -0.2469 -0.3767
 5184TIP3    H137043   6.384   1.066  13.618  2.1368  0.8699  0.2480
 5184TIP3    H237044   6.430   0.923  13.623 -2.7746 -0.9733 -0.9031
 5185TIP3   OH237045   0.068   4.940   3.425 -0.2411 -0.4113  0.1521
 5185TIP3    H137046   0.105   5.023   3.396 -2.1198 -0.4076 -2.5024
 5185TIP3    H237047   0.113   4.874   3.373 -0.1292 -0.9217  0.8708
 5186TIP3   OH237048   0.372   3.781   0.941 -0.5306 -0.7503  0.3450
 5186TIP3    H137049   0.409   3.730   1.013  0.2595 -0.1541  0.3860
 5186TIP3    H237050   0.442   3.784   0.876  0.5585  2.5204  1.4510
 5187TIP3   OH237051   4.856   4.194   5.222 -0.0065  0.0089  0.5258
 5187TIP3    H137052   4.825   4.278   5.188 -1.2668 -0.1528  1.1902
 5187TIP3    H237053   4.775   4.145   5.240  0.7058 -1.6258 -0.5294
 5188TIP3   OH237054   3.269   3.411   4.451  0.2037 -0.0731 -0.2756
 5188TIP3    H137055   3.243   3.356   4.525 -1.8942  1.1614 -0.0187
 5188TIP3    H237056   3.222   3.376   4.376  0.7751 -0.1112 -0.6205
 5189TIP3   OH237057   3.264   6.664  11.401 -0.1887  0.0099  0.6443
 5189TIP3    H137058   3.295   6.605  11.332  0.2894  0.8324  0.1346
 5189TIP3    H237059   3.182   6.701  11.366  1.2474  2.2574 -0.6074
 5190TIP3   OH237060   3.430   4.229  11.272  0.0749 -0.3689  0.4222
 5190TIP3    H137061   3.521   4.258  11.266 -0.1905  0.6067  0.9528
 5190TIP3    H237062   3.381   4.295  11.224 -0.3018 -1.2318 -0.4133
 5191TIP3   OH237063   2.291   1.212   4.743  0.0261 -0.3554  0.1846
 5191TIP3    H137064   2.337   1.151   4.802 -1.5970 -0.1340  1.7681
 5191TIP3    H237065   2.278   1.162   4.663 -0.5449 -1.8455  1.1520
 5192TIP3   OH237066   6.872   4.252   5.180  0.2504  0.0533 -0.0844
 5192TIP3    H137067   6.959   4.263   5.143 -0.2793 -0.0068 -1.4374
 5192TIP3    H237068   6.868   4.160   5.207  0.9289  0.3086  0.9171
 5193TIP3   OH237069   3.673   4.083  11.779 -0.0978  0.0651  0.2378
 5193TIP3    H137070   3.724   4.067  11.699  0.0461  1.6023 -0.0128
 5193TIP3    H237071   3.628   4.166  11.762 -1.8943 -0.7328  0.8654
 5194TIP3   OH237072   0.190   1.937   0.669 -0.0955 -0.3518 -0.2871
 5194TIP3    H137073   0.272   1.947   0.622  0.3322 -0.6289  0.3783
 5194TIP3    H237074   0.151   2.024   0.668  0.9983  0.1836  0.7889
 5195TIP3   OH237075   1.519   2.409  15.049 -0.3939 -0.1288 -0.5971
 5195TIP3    H137076   1.525   2.318  15.079 -1.3075 -0.4645 -1.3815
 5195TIP3    H237077   1.594   2.420  14.992 -1.3648 -1.0518 -2.1235
 5196TIP3   OH237078   1.496   0.447  13.741  0.0746 -0.5567  0.0460
 5196TIP3    H137079   1.545   0.526  13.718 -0.4580 -0.2858 -0.1858
 5196TIP3    H237080   1.423   0.479  13.794 -0.3280 -0.8513 -0.3182
 5197TIP3   OH237081   6.679   3.127   0.183  0.2967 -0.0387 -0.6157
 5197TIP3    H137082   6.709   3.169   0.102  1.5394  1.2962  0.4936
 5197TIP3    H237083   6.603   3.178   0.210  1.1083  0.8120  0.1149
 5198TIP3   OH237084   6.808   1.538   3.126 -0.1062  0.1780 -0.8653
 5198TIP3    H137085   6.846   1.455   3.156 -0.1430 -0.0097 -1.3211
 5198TIP3    H237086   6.780   1.582   3.206  2.4808  1.0436 -0.3609
 5199TIP3   OH237087   5.639   4.252  13.198  0.0766 -0.4360 -0.6766
 5199TIP3    H137088   5.619   4.281  13.109 -0.0884 -1.0785 -0.8534
 5199TIP3    H237089   5.594   4.168  13.207 -1.8833  0.6893  0.8226
 5200TIP3   OH237090   2.310   2.252  13.634 -0.9932 -0.2800  0.9984
 5200TIP3    H137091   2.229   2.302  13.629 -0.6644  0.2859  1.1337
 5200TIP3    H237092   2.371   2.310  13.680  0.8242  1.1462 -2.8006
 5201TIP3   OH237093   2.170   0.320  14.317 -0.3520  0.5884 -0.0264
 5201TIP3    H137094   2.149   0.232  14.346  3.4684 -0.3682  0.3976
 5201TIP3    H237095   2.261   0.315  14.289 -0.0150  4.3770 -0.1758
 5202TIP3   OH237096   4.678   0.238  12.020 -0.3728 -0.3645 -0.2021
 5202TIP3    H137097   4.653   0.236  11.928  2.0174 -0.5870 -0.9232
 5202TIP3    H237098   4.771   0.260  12.019 -0.4105  0.1960  2.2084
 5203TIP3   OH237099   2.550   2.228   6.063  0.6512 -0.4307  0.3670
 5203TIP3    H137100   2.621   2.290   6.081  0.7202 -0.0590 -1.0777
 5203TIP3    H237101   2.574   2.188   5.979 -0.2715 -1.1581  0.4358
 5204TIP3   OH237102   6.249   6.081   5.852 -0.1822  0.0374  0.5241
 5204TIP3    H137103   6.201   6.095   5.770 -1.3522 -1.4025  0.8987
 5204TIP3    H237104   6.181   6.084   5.920  0.5197 -0.3415  1.2597
 5205TIP3   OH237105   1.110   0.181  16.011  0.5032  0.7627  0.2177
 5205TIP3    H137106   1.081   0.151  15.924  0.3948  0.9645  0.1833
 5205TIP3    H237107   1.196   0.142  16.022  0.1562  0.0176  0.3887
 5206TIP3   OH237108   1.978   2.243   3.682  0.3289 -0.5325 -0.0850
 5206TIP3    H137109   1.912   2.280   3.623 -1.8232 -2.3608  1.0433
 5206TIP3    H237110   2.004   2.161   3.641  0.5308 -0.7063  0.3850
 5207TIP3   OH237111   1.649   5.994  16.413  0.0413 -0.0063 -0.1226
 5207TIP3    H137112   1.581   6.002  16.479 -1.1996 -2.7717 -0.9130
 5207TIP3    H237113   1.611   6.032  16.334 -0.3632 -0.9192 -0.3850
 5208TIP3   OH237114   6.519   2.012   5.351 -0.6960 -0.4506 -0.2348
 5208TIP3    H137115   6.507   2.054   5.436  0.4609  0.9308 -0.7240
 5208TIP3    H237116   6.607   1.973   5.356  0.2520  1.4006 -1.4742
 5209TIP3   OH237117   0.280   2.645   1.907 -0.4311 -0.1021 -0.7574
 5209TIP3    H137118   0.372   2.620   1.911  0.0231  1.4706 -0.7397
 5209TIP3    H237119   0.265   2.698   1.985 -2.2669 -2.9973  1.0710
 5210TIP3   OH237120   1.325   2.549   5.773 -0.1523 -0.5252  0.0722
 5210TIP3    H137121   1.249   2.608   5.775 -0.1741 -0.3592 -2.4209
 5210TIP3    H237122   1.400   2.608   5.768  0.0569 -0.7040  1.0008
 5211TIP3   OH237123   6.756   2.091  16.804  0.2161  0.0813  0.2423
 5211TIP3    H137124   6.692   2.141  16.853  0.1946 -0.4161  0.7345
 5211TIP3    H237125   6.818   2.156  16.772  0.4352  0.3859  1.2482
 5212TIP3   OH237126   5.571   2.791   2.200 -0.0223 -0.4461 -0.3578
 5212TIP3    H137127   5.654   2.759   2.165 -0.1792  1.9041 -3.2476
 5212TIP3    H237128   5.592   2.878   2.234 -1.1936 -0.1312 -0.4282
 5213TIP3   OH237129   3.460   6.062  15.792  0.8766 -0.4097  0.2010
 5213TIP3    H137130   3.477   6.141  15.741  2.9110 -0.9997 -0.1185
 5213TIP3    H237131   3.382   6.083  15.843  1.5359  1.9274  0.3622
 5214TIP3   OH237132   0.271   4.997  14.319  0.9982  0.4770  0.7486
 5214TIP3    H137133   0.328   4.959  14.251  1.0221  0.3087  0.8617
 5214TIP3    H237134   0.331   5.044  14.377  1.4268 -1.9451  2.4322
 5215TIP3   OH237135   3.987   2.213   1.090 -0.5542 -0.7157  0.2793
 5215TIP3    H137136   3.951   2.203   1.178 -0.6471  0.0814  0.3373
 5215TIP3    H237137   3.963   2.132   1.044  0.9405 -1.9072  1.4769
 5216TIP3   OH237138   3.491   2.507  15.888 -0.5701  0.2223  0.0514
 5216TIP3    H137139   3.397   2.495  15.879 -0.8784  2.0477  0.3027
 5216TIP3    H237140   3.529   2.468  15.810 -1.6815  0.7837 -0.7944
 5217TIP3   OH237141   4.016   6.023  16.586 -0.0326  0.2051 -0.0999
 5217TIP3    H137142   3.993   6.089  16.650  0.3163 -0.8030  1.1124
 5217TIP3    H237143   4.112   6.020  16.587  0.0040  0.6010 -1.1305
 5218TIP3   OH237144   0.785   0.603   3.769 -0.4561  0.1677 -0.1312
 5218TIP3    H137145   0.714   0.541   3.787 -0.5527  0.0994 -0.7231
 5218TIP3    H237146   0.775   0.670   3.836 -0.5464 -0.2893  0.3224
 5219TIP3   OH237147   0.769   5.424   4.157  0.1703 -0.1863  0.6756
 5219TIP3    H137148   0.844   5.374   4.190  1.1413  1.0736  0.4660
 5219TIP3    H237149   0.752   5.489   4.225 -0.5086 -0.2207  0.5466
 5220TIP3   OH237150   6.437   2.483   3.117  0.0944  0.5302 -0.0338
 5220TIP3    H137151   6.490   2.477   3.038  0.5398  3.8811 -0.1245
 5220TIP3    H237152   6.362   2.424   3.101  1.3164 -0.5994 -1.9177
 5221TIP3   OH237153   3.645   4.890  10.336 -0.6489  0.4023  0.1216
 5221TIP3    H137154   3.604   4.826  10.278 -1.2812  1.3888 -0.5560
 5221TIP3    H237155   3.687   4.838  10.404  1.0221 -0.8691 -1.7530
 5222TIP3   OH237156   0.780   3.889   3.300  0.6078  0.0624  0.3052
 5222TIP3    H137157   0.706   3.910   3.357 -0.9479 -2.1483 -0.7460
 5222TIP3    H237158   0.844   3.848   3.358  0.8800  1.6069  1.1481
 5223TIP3   OH237159   5.805   0.864   6.519  0.0266  0.3369 -0.0685
 5223TIP3    H137160   5.891   0.907   6.519  0.3943 -0.3635 -0.7546
 5223TIP3    H237161   5.824   0.773   6.541 -0.3120 -0.1990 -1.8271
 5224TIP3   OH237162   1.239   3.947  10.268  0.0042 -1.2781  0.5854
 5224TIP3    H137163   1.298   4.005  10.315 -1.2684  0.4833  0.1255
 5224TIP3    H237164   1.254   3.860  10.306  2.1500 -0.7311  1.1217
 5225TIP3   OH237165   6.465   2.566  16.789 -0.1411 -0.6454 -0.3712
 5225TIP3    H137166   6.557   2.560  16.762  0.3164 -0.6720  1.1077
 5225TIP3    H237167   6.469   2.604  16.876 -1.6412  0.6329 -0.8312
 5226TIP3   OH237168   5.499   4.417   0.094  0.4795 -0.9850 -0.2709
 5226TIP3    H137169   5.463   4.338   0.053  0.1298 -0.6094 -0.6886
 5226TIP3    H237170   5.591   4.396   0.108  0.7796 -0.8795 -1.8760
 5227TIP3   OH237171   3.752   6.775   1.867  0.4902  0.1065  0.1490
 5227TIP3    H137172   3.681   6.804   1.925  0.9726 -1.6419  1.7182
 5227TIP3    H237173   3.832   6.804   1.911  0.8217 -0.1202 -0.2998
 5228TIP3   OH237174   5.424   3.280   0.682  0.1250 -0.4388  0.2792
 5228TIP3    H137175   5.504   3.333   0.682 -1.5661  2.3182 -0.1870
 5228TIP3    H237176   5.374   3.313   0.607 -1.4149 -2.1922  0.4691
 5229TIP3   OH237177   5.743   5.254  14.543 -0.6985  0.0251  0.0899
 5229TIP3    H137178   5.826   5.240  14.589 -0.3102  0.5081 -0.4570
 5229TIP3    H237179   5.684   5.191  14.583  0.1961 -1.0329 -0.1858
 5230TIP3   OH237180   2.740   4.425  15.383  0.9610  0.0691  0.6733
 5230TIP3    H137181   2.778   4.352  15.334  0.4285 -1.4432  2.4255
 5230TIP3    H237182   2.749   4.500  15.324  0.8142 -1.5290 -1.5063
 5231TIP3   OH237183   4.434   2.544   1.334 -0.3763 -0.1577  0.0629
 5231TIP3    H137184   4.436   2.563   1.240 -0.0859 -1.1486 -0.1349
 5231TIP3    H237185   4.389   2.620   1.372 -0.3748  0.3197 -0.8531
 5232TIP3   OH237186   4.854   2.987  14.729  0.0933  0.4814  0.3758
 5232TIP3    H137187   4.860   2.963  14.822  0.1253  0.7724  0.4499
 5232TIP3    H237188   4.943   3.015  14.706  0.7586 -2.0869 -0.4431
 5233TIP3   OH237189   3.328   3.454   0.186  0.1259 -0.2684  0.0938
 5233TIP3    H137190   3.375   3.509   0.122 -1.2795  0.8407 -0.0305
 5233TIP3    H237191   3.398   3.406   0.231  1.3107  0.5492 -0.7847
 5234TIP3   OH237192   0.515   0.446   1.191 -0.5845 -0.2130  0.0419
 5234TIP3    H137193   0.498   0.450   1.285  0.0834  0.6469  0.1453
 5234TIP3    H237194   0.563   0.364   1.179 -0.5326 -0.2495  0.4812
 5235TIP3   OH237195   3.995   0.446   0.709  0.3481 -0.0279  0.1400
 5235TIP3    H137196   4.047   0.490   0.776  0.4920  0.3748 -0.2298
 5235TIP3    H237197   3.911   0.427   0.753  0.6621 -0.3268  0.6169
 5236TIP3   OH237198   1.130   3.414   4.127  0.6235 -0.2240 -0.1829
 5236TIP3    H137199   1.126   3.493   4.074  3.4481  0.1143 -0.0147
 5236TIP3    H237200   1.114   3.444   4.217  0.9195  0.0238 -0.2145
 5237TIP3   OH237201   2.758   1.227  15.508  0.6618 -0.8971 -0.1640
 5237TIP3    H137202   2.735   1.137  15.487 -0.4596 -0.5292 -0.5885
 5237TIP3    H237203   2.779   1.226  15.601 -1.8411 -1.1397  0.4538
 5238TIP3   OH237204   0.978   4.802  11.377  0.4419 -0.0968  0.4419
 5238TIP3    H137205   1.066   4.828  11.404  0.2831 -0.4211  1.2751
 5238TIP3    H237206   0.974   4.708  11.391 -0.3111  0.0344  1.2227
 5239TIP3   OH237207   5.635   5.845  11.754 -0.1628 -0.0342  0.0340
 5239TIP3    H137208   5.571   5.774  11.741  0.3323 -0.3185 -0.9172
 5239TIP3    H237209   5.629   5.898  11.675 -1.1094  1.4970  1.0685
 5240TIP3   OH237210   4.494   4.699   3.647 -0.1915  0.2229 -0.2825
 5240TIP3    H137211   4.539   4.777   3.616  0.2868  0.2258  0.4074
 5240TIP3    H237212   4.411   4.732   3.682 -0.1877  0.3637 -0.4042
 5241TIP3   OH237213   1.635   6.269  14.861  0.1259 -0.1927 -0.4076
 5241TIP3    H137214   1.693   6.262  14.785  2.0579 -0.2740  1.0032
 5241TIP3    H237215   1.627   6.363  14.876 -0.1024 -0.1814 -0.6044
 5242TIP3   OH237216   0.873   2.527  14.154 -0.1584 -0.1864 -0.4849
 5242TIP3    H137217   0.787   2.568  14.148  0.3371  0.7756 -1.4188
 5242TIP3    H237218   0.874   2.463  14.082 -0.3663 -0.7414  0.0021
 5243TIP3   OH237219   5.391   3.111   1.380 -0.2138  0.2578  0.6935
 5243TIP3    H137220   5.321   3.058   1.418 -0.3923  0.6551  0.9282
 5243TIP3    H237221   5.355   3.200   1.379 -0.4069  0.1891 -0.8516
 5244TIP3   OH237222   4.518   0.623  14.023  0.0175 -0.1458 -0.1050
 5244TIP3    H137223   4.511   0.533  14.057 -2.2865 -0.9055 -2.2722
 5244TIP3    H237224   4.610   0.647  14.038  0.3372 -2.2393  1.9393
 5245TIP3   OH237225   5.408   0.609   5.996 -0.2651 -0.7059 -0.5475
 5245TIP3    H137226   5.379   0.682   5.941 -1.5996 -1.8321 -1.4135
 5245TIP3    H237227   5.451   0.549   5.934  2.4913  0.1114  0.4272
 5246TIP3   OH237228   0.767   1.233  15.668  0.9996 -0.0236 -0.5541
 5246TIP3    H137229   0.698   1.212  15.605  1.3508 -0.7624 -0.6983
 5246TIP3    H237230   0.806   1.148  15.690 -0.9380 -0.2329  2.7892
 5247TIP3   OH237231   6.125   5.791   1.617 -0.0526 -0.1152  0.3507
 5247TIP3    H137232   6.035   5.768   1.640 -0.6143  1.2041 -0.3968
 5247TIP3    H237233   6.142   5.743   1.536  0.4831 -1.5499  1.2737
 5248TIP3   OH237234   3.139   2.470   1.503  0.4351  0.2820 -0.5509
 5248TIP3    H137235   3.091   2.463   1.586  1.7922  0.5214  0.2895
 5248TIP3    H237236   3.074   2.503   1.441  0.1141  3.1986  1.1482
 5249TIP3   OH237237   5.042   0.089   5.155 -0.6980  0.9391  0.3171
 5249TIP3    H137238   5.089   0.046   5.084 -1.4547  0.7278 -0.0589
 5249TIP3    H237239   5.030   0.179   5.124 -3.0356  0.3026 -0.8640
 5250TIP3   OH237240   1.375   4.168   6.090  0.2856 -0.0075  0.0268
 5250TIP3    H137241   1.341   4.156   6.001  1.0433 -0.9093 -0.1552
 5250TIP3    H237242   1.318   4.114   6.145  0.2852 -0.0518 -0.0168
 5251TIP3   OH237243   5.274   6.354  15.937 -0.0877 -0.0535 -0.2378
 5251TIP3    H137244   5.272   6.444  15.970 -1.3256 -0.0652 -0.2369
 5251TIP3    H237245   5.327   6.307  16.001 -0.6052  0.3884  0.5279
 5252TIP3   OH237246   6.010   1.316  14.401  0.3246  0.2017  0.0146
 5252TIP3    H137247   6.021   1.222  14.388 -0.3128  0.3649 -2.2112
 5252TIP3    H237248   6.095   1.354  14.379 -0.1453  0.2979 -1.8370
 5253TIP3   OH237249   1.546   0.036  15.093  0.4405  0.0015 -0.4811
 5253TIP3    H137250   1.479   0.087  15.048  0.3531 -0.8089 -1.3116
 5253TIP3    H237251   1.498  -0.037  15.133 -0.1487  2.5743  4.3044
 5254TIP3   OH237252   4.167   5.036   4.976  0.5680 -0.5699  0.2022
 5254TIP3    H137253   4.115   5.110   5.007  0.9587  0.5676 -1.6707
 5254TIP3    H237254   4.102   4.972   4.946  0.1979  0.3309 -1.0030
 5255TIP3   OH237255   3.752   0.823   4.412  0.1604  0.2366  0.1391
 5255TIP3    H137256   3.701   0.901   4.391 -0.4420 -0.2772 -0.3344
 5255TIP3    H237257   3.826   0.856   4.463  0.1111  1.1566 -0.3625
 5256TIP3   OH237258   0.480   1.598   5.701 -0.0709  0.0566 -0.2169
 5256TIP3    H137259   0.477   1.693   5.711 -1.1438  0.0355 -0.2012
 5256TIP3    H237260   0.456   1.564   5.788 -1.2604 -0.1930 -0.6120
 5257TIP3   OH237261   0.879   2.594   5.101 -0.8675  0.5753 -0.1292
 5257TIP3    H137262   0.910   2.524   5.043  1.6013  1.4345  0.0167
 5257TIP3    H237263   0.930   2.671   5.075 -2.8908  2.1470  0.2770
 5258TIP3   OH237264   4.205   1.771   1.312 -0.2208  0.2417 -0.3238
 5258TIP3    H137265   4.240   1.840   1.255  0.0188  0.1347 -0.3062
 5258TIP3    H237266   4.253   1.693   1.286  0.3177  0.3135  0.4450
 5259TIP3   OH237267   4.277   3.386  16.026 -0.5278 -0.0892  0.2824
 5259TIP3    H137268   4.336   3.354  16.094 -0.7274  0.5780  0.7700
 5259TIP3    H237269   4.198   3.412  16.072 -1.4422 -1.4611 -0.4158
 5260TIP3   OH237270   4.632   6.277  14.266  0.3988  0.1347 -0.3884
 5260TIP3    H137271   4.612   6.188  14.239  0.1244  0.5795 -1.7045
 5260TIP3    H237272   4.685   6.267  14.345 -0.4142 -1.1673  0.0241
 5261TIP3   OH237273   5.609   1.891   1.782 -0.0259 -0.4051  0.3662
 5261TIP3    H137274   5.617   1.843   1.864 -0.2791 -0.0924  0.5794
 5261TIP3    H237275   5.540   1.955   1.798 -0.0129 -0.2768 -0.0600
 5262TIP3   OH237276   5.524   3.584  16.680  0.2643 -0.3004 -0.2233
 5262TIP3    H137277   5.492   3.672  16.663  1.3057  0.4220  1.3517
 5262TIP3    H237278   5.549   3.585  16.773  1.7655 -1.7658 -0.5641
 5263TIP3   OH237279   3.945   2.563   6.402  0.2712  0.2844 -0.0128
 5263TIP3    H137280   3.929   2.469   6.394  0.2869  0.1205  1.6334
 5263TIP3    H237281   3.890   2.602   6.334 -0.0978 -0.8708 -0.4073
 5264TIP3   OH237282   4.986   4.780   1.105 -0.3938 -0.1722  0.0787
 5264TIP3    H137283   4.892   4.766   1.097 -0.2866 -0.8606 -0.0011
 5264TIP3    H237284   5.009   4.832   1.028 -0.7762  0.3779  0.3274
 5265TIP3   OH237285   1.973   6.872  12.526  0.3439 -0.5633  0.3670
 5265TIP3    H137286   1.969   6.792  12.473  2.0846 -0.0797 -0.5510
 5265TIP3    H237287   2.061   6.872  12.565 -0.1505  0.1747  1.5721
 5266TIP3   OH237288   3.017   3.496   0.237 -0.5925  0.0129 -0.1197
 5266TIP3    H137289   3.111   3.480   0.240 -0.5768  0.2324  0.8531
 5266TIP3    H237290   2.986   3.472   0.324 -1.4285  0.0202 -0.4082
 5267TIP3   OH237291   5.233   0.362   3.901  0.3351 -0.1524 -0.3510
 5267TIP3    H137292   5.217   0.404   3.985  0.0932  1.1529 -1.0275
 5267TIP3    H237293   5.185   0.279   3.905 -1.7739  1.0135 -0.1215
 5268TIP3   OH237294   6.110   2.111   0.388 -0.1264  0.2732  0.9120
 5268TIP3    H137295   6.059   2.147   0.316  0.3462  2.5986  1.6589
 5268TIP3    H237296   6.194   2.087   0.349 -0.3409  0.2551  0.4588
 5269TIP3   OH237297   1.738   3.741  16.262 -0.4791 -0.0662  0.6380
 5269TIP3    H137298   1.677   3.815  16.260  1.3938  1.5560  0.7455
 5269TIP3    H237299   1.752   3.725  16.355 -1.3589 -0.9969  0.6216
 5270TIP3   OH237300   0.366   6.638  10.535 -0.1737 -0.6485 -0.1011
 5270TIP3    H137301   0.433   6.577  10.503  1.7120  1.4094 -0.3891
 5270TIP3    H237302   0.321   6.668  10.456 -0.4159 -0.9076 -0.0631
 5271TIP3   OH237303   4.340   2.235  14.634  0.1203  0.0374  0.0942
 5271TIP3    H137304   4.301   2.309  14.587 -0.0700 -0.1046  0.0252
 5271TIP3    H237305   4.330   2.161  14.573  2.6128  0.4563 -0.9212
 5272TIP3   OH237306   5.353   3.144   4.097  0.0183  0.5007  0.2379
 5272TIP3    H137307   5.352   3.082   4.024 -2.9595  1.5051 -0.6869
 5272TIP3    H237308   5.356   3.230   4.056  2.0005  1.1079  1.4713
 5273TIP3   OH237309   3.637   0.161  16.374  0.1471 -0.3246  0.1503
 5273TIP3    H137310   3.724   0.130  16.399 -0.4415 -0.0423  2.8682
 5273TIP3    H237311   3.630   0.248  16.413 -1.7971 -0.8800  1.2310
 5274TIP3   OH237312   0.130   4.793  15.301 -0.3394 -0.6399 -0.5583
 5274TIP3    H137313   0.046   4.834  15.323  0.1717 -0.6696  1.7083
 5274TIP3    H237314   0.113   4.699  15.308 -0.2707 -0.6604 -0.6812
 5275TIP3   OH237315   4.113   0.661   4.132 -0.4261 -0.0680 -0.0258
 5275TIP3    H137316   4.130   0.596   4.064 -1.3233 -0.4982  0.1325
 5275TIP3    H237317   4.042   0.715   4.096  2.1474  2.7156 -1.3758
 5276TIP3   OH237318   1.564   0.718   3.693 -0.6554  0.2943 -0.4621
 5276TIP3    H137319   1.611   0.689   3.615 -0.9915  1.7897 -1.2608
 5276TIP3    H237320   1.619   0.788   3.729 -1.0953  0.4340 -0.0565
 5277TIP3   OH237321   0.485   2.894   3.942 -0.0726  0.1970  0.2274
 5277TIP3    H137322   0.438   2.962   3.990 -0.8805  0.3339 -0.7168
 5277TIP3    H237323   0.576   2.903   3.969 -0.5193  0.1925  1.7912
 5278TIP3   OH237324   6.101   3.156  12.911 -0.0547 -0.0277 -0.1406
 5278TIP3    H137325   6.084   3.080  12.855 -1.3396 -1.2632  1.8087
 5278TIP3    H237326   6.189   3.140  12.945 -0.2151 -0.5194  0.0553
 5279TIP3   OH237327   1.906   1.464   0.892  0.1459  0.3327 -0.5219
 5279TIP3    H137328   1.981   1.423   0.848 -0.1745  0.1812 -0.9331
 5279TIP3    H237329   1.830   1.433   0.844 -0.2247  0.0819  0.2030
 5280TIP3   OH237330   5.074   4.025  11.572  0.0333 -0.4202 -0.6429
 5280TIP3    H137331   5.100   4.008  11.662 -0.0880 -0.0259 -0.5318
 5280TIP3    H237332   5.043   3.941  11.539  0.8971 -0.7690 -0.5935
 5281TIP3   OH237333   0.191   5.495  13.178  0.2364 -0.5191 -0.4000
 5281TIP3    H137334   0.213   5.470  13.089 -2.4894  0.2544 -1.3964
 5281TIP3    H237335   0.212   5.588  13.184  0.1764 -0.5104 -0.3087
 5282TIP3   OH237336   2.322   3.189  12.783  0.5996  0.0463  0.3546
 5282TIP3    H137337   2.327   3.279  12.815  2.4938 -0.2011  0.8559
 5282TIP3    H237338   2.379   3.187  12.706 -0.8091 -0.3265 -0.7243
 5283TIP3   OH237339   1.710   2.993   5.229 -0.4383  0.4551 -0.2422
 5283TIP3    H137340   1.640   2.930   5.212  0.5885 -0.6206 -0.6411
 5283TIP3    H237341   1.683   3.072   5.183 -2.3316  0.7600  1.2412
 5284TIP3   OH237342   4.342   1.177  10.965  0.1920  0.0836 -0.0897
 5284TIP3    H137343   4.293   1.223  10.897  0.0617  0.9392  0.5663
 5284TIP3    H237344   4.340   1.235  11.040  0.2432 -0.8927  0.6958
 5285TIP3   OH237345   3.134   3.728  16.733 -0.1144 -0.2823  0.6489
 5285TIP3    H137346   3.133   3.741  16.828 -0.9003 -1.3953  0.8131
 5285TIP3    H237347   3.071   3.657  16.718 -0.8059  0.5995 -0.8191
 5286TIP3   OH237348   4.254   6.194   1.031 -0.2397  0.0369  0.0520
 5286TIP3    H137349   4.160   6.204   1.020 -0.5203  1.1529  2.7420
 5286TIP3    H237350   4.284   6.156   0.948 -3.0082 -0.2854 -0.8992
 5287TIP3   OH237351   6.255   3.157   3.464 -0.4522 -0.0959 -0.5672
 5287TIP3    H137352   6.342   3.196   3.458  0.3041 -1.7825 -1.0325
 5287TIP3    H237353   6.270   3.063   3.466 -2.2540 -0.4260 -0.1997
 5288TIP3   OH237354   1.808   4.501  14.995 -0.0651 -0.6000 -0.0076
 5288TIP3    H137355   1.842   4.565  15.057  1.1850  0.2125 -1.4663
 5288TIP3    H237356   1.717   4.529  14.980  0.5957  1.1775 -0.9891
 5289TIP3   OH237357   3.690   5.549   5.732  0.3715 -0.2834 -1.0348
 5289TIP3    H137358   3.626   5.506   5.675 -1.6861  0.7926  0.3223
 5289TIP3    H237359   3.643   5.625   5.767  1.4920 -0.9106  2.1044
 5290TIP3   OH237360   2.053   2.598   5.690 -0.2690  0.1066 -0.1191
 5290TIP3    H137361   1.984   2.569   5.749  0.8795 -3.1718 -0.2152
 5290TIP3    H237362   2.125   2.625   5.747 -0.3712  0.2251 -0.0448
 5291TIP3   OH237363   0.814   4.278   1.780 -0.4746  0.1121 -0.3493
 5291TIP3    H137364   0.872   4.211   1.817 -0.7185 -0.3741 -0.8300
 5291TIP3    H237365   0.732   4.267   1.829 -0.0185  1.1410  0.6881
 5292TIP3   OH237366   5.948   3.319  16.693  0.8028 -0.0772 -0.2590
 5292TIP3    H137367   5.874   3.374  16.669 -0.5779 -1.1619  1.3728
 5292TIP3    H237368   5.995   3.370  16.759  0.6681 -0.0237 -0.2049
 5293TIP3   OH237369   3.306   2.406  14.693  1.0355 -0.1700  0.2470
 5293TIP3    H137370   3.279   2.441  14.608  1.4031 -0.1174  0.1510
 5293TIP3    H237371   3.237   2.344  14.716  0.2892  0.7279  0.4978
 5294TIP3   OH237372   4.800   3.896   1.389 -0.9050 -0.4618 -0.7548
 5294TIP3    H137373   4.769   3.985   1.372 -1.3259 -0.3561  0.4663
 5294TIP3    H237374   4.893   3.899   1.367 -1.1272  0.0096 -1.6597
 5295TIP3   OH237375   2.679   1.267   5.806  0.0339 -0.0693  0.2757
 5295TIP3    H137376   2.678   1.243   5.713  2.5451  0.7522 -0.0498
 5295TIP3    H237377   2.760   1.229   5.840 -0.4705  0.2666  1.9599
 5296TIP3   OH237378   3.108   6.713   1.964 -0.2554  0.0474  0.1030
 5296TIP3    H137379   3.105   6.726   2.059  2.0921  1.8061  0.0289
 5296TIP3    H237380   3.016   6.701   1.938 -1.1343  1.2332  2.3746
 5297TIP3   OH237381   6.306   3.755  15.657  0.9002  0.6304 -0.6817
 5297TIP3    H137382   6.282   3.806  15.580  0.6832 -0.5382 -1.4201
 5297TIP3    H237383   6.230   3.761  15.715  1.3897  2.2103 -0.1500
 5298TIP3   OH237384   2.611   3.131   3.389 -0.4444  0.0414 -0.3773
 5298TIP3    H137385   2.633   3.040   3.412  0.3790  0.3163 -0.0269
 5298TIP3    H237386   2.695   3.177   3.393 -0.9825  0.9941  0.2775
 5299TIP3   OH237387   5.045   6.023  14.767 -0.0281  0.2926 -0.1823
 5299TIP3    H137388   4.969   6.050  14.819  0.3482 -1.5389  1.4206
 5299TIP3    H237389   5.015   6.032  14.676 -1.4247  1.6037  0.3548
 5300TIP3   OH237390   2.271   5.277   3.396  0.1083 -0.6937  0.3984
 5300TIP3    H137391   2.341   5.302   3.336 -0.1562 -3.0103 -1.0079
 5300TIP3    H237392   2.252   5.357   3.445  1.4910  0.8783 -1.4381
 5301TIP3   OH237393   6.493   2.948   3.551 -0.2522  0.9066 -0.4754
 5301TIP3    H137394   6.399   2.933   3.540 -0.4261  1.3430  0.3610
 5301TIP3    H237395   6.526   2.864   3.583 -0.1422  0.3813 -1.8800
 5302TIP3   OH237396   4.235   4.696  12.841  0.7393  0.0988 -0.2068
 5302TIP3    H137397   4.255   4.759  12.910 -0.5380 -0.6844  0.9505
 5302TIP3    H237398   4.271   4.613  12.874 -1.3332 -0.6323  0.3734
 5303TIP3   OH237399   0.822   1.007  14.975 -0.1106 -0.0370  0.0302
 5303TIP3    H137400   0.728   1.014  14.986 -0.3353 -1.6577 -0.6389
 5303TIP3    H237401   0.841   1.051  14.892 -0.0124  1.7367  0.9396
 5304TIP3   OH237402   6.289   3.775   2.832 -0.2795 -0.8386  0.0982
 5304TIP3    H137403   6.363   3.742   2.782  1.7263 -0.7249  2.7890
 5304TIP3    H237404   6.272   3.708   2.898 -0.7908  0.3267  1.1921
 5305TIP3   OH237405   0.741   0.623   5.476  0.0704 -0.4618 -0.3075
 5305TIP3    H137406   0.837   0.619   5.479  0.0403 -2.2809 -0.6026
 5305TIP3    H237407   0.722   0.678   5.400  0.8615  0.0724 -0.1396
 5306TIP3   OH237408   5.644   3.014   2.333  0.4232 -0.0882  0.1891
 5306TIP3    H137409   5.654   2.983   2.423 -0.2654  0.2799  0.3989
 5306TIP3    H237410   5.595   3.096   2.341  2.1290  1.0668 -0.3536
 5307TIP3   OH237411   4.642   4.018   5.204  0.3280  0.6591 -0.4301
 5307TIP3    H137412   4.583   4.024   5.129 -0.2357 -0.8788 -0.1441
 5307TIP3    H237413   4.664   3.925   5.211  2.0338  1.0515  0.0683
 5308TIP3   OH237414   4.759   2.341   2.342 -0.5516  0.6799 -0.4338
 5308TIP3    H137415   4.786   2.347   2.251 -0.6162  0.9491 -0.4357
 5308TIP3    H237416   4.683   2.399   2.349 -2.5525 -1.7350 -0.9472
 5309TIP3   OH237417   5.620   1.643   0.324  0.2400 -0.1437 -0.4075
 5309TIP3    H137418   5.677   1.680   0.392 -0.6620  0.4628  0.0329
 5309TIP3    H237419   5.617   1.549   0.343  1.7619 -0.3244 -0.9419
 5310TIP3   OH237420   4.101   4.476  13.668 -0.2424  0.1462 -0.0129
 5310TIP3    H137421   4.118   4.558  13.622  0.5076 -0.4827 -0.8976
 5310TIP3    H237422   4.188   4.447  13.699 -0.2658 -1.0013 -0.9370
 5311TIP3   OH237423   6.478   4.098  12.663 -0.0426 -0.4426 -0.1273
 5311TIP3    H137424   6.522   4.165  12.610 -0.0818 -0.6223 -0.3832
 5311TIP3    H237425   6.455   4.144  12.744 -1.0971  0.1708 -0.7597
 5312TIP3   OH237426   6.319   5.409   2.592 -0.6404 -0.2932 -0.1836
 5312TIP3    H137427   6.305   5.366   2.507 -1.3757  0.8998 -0.6849
 5312TIP3    H237428   6.264   5.487   2.589  0.1366  0.3277  0.9790
 5313TIP3   OH237429   1.784   2.803  12.183 -0.6006  0.0365 -0.2646
 5313TIP3    H137430   1.768   2.721  12.136 -0.3031 -1.0169  1.3755
 5313TIP3    H237431   1.874   2.826  12.161  0.8550 -2.4169  2.4793
 5314TIP3   OH237432   3.461   3.928   4.518 -0.4416  0.7101 -0.0065
 5314TIP3    H137433   3.399   3.892   4.455  0.6044 -2.5331  0.6474
 5314TIP3    H237434   3.546   3.918   4.476  0.4028 -2.4995  2.1098
 5315TIP3   OH237435   4.974   2.647   2.571 -0.3735  0.2371  0.2221
 5315TIP3    H137436   4.934   2.710   2.631 -0.4393 -0.0411  0.4726
 5315TIP3    H237437   5.003   2.700   2.497 -0.5829  0.5387  0.3520
 5316TIP3   OH237438   4.837   1.256   1.455  0.5144 -0.1196  0.2668
 5316TIP3    H137439   4.792   1.213   1.528 -1.6442 -0.6451 -1.2742
 5316TIP3    H237440   4.927   1.222   1.460 -0.4009 -2.7041  0.7564
 5317TIP3   OH237441   5.153   5.571  16.656 -0.0808 -0.1658 -0.3770
 5317TIP3    H137442   5.235   5.544  16.697  0.3765  0.5564 -0.7867
 5317TIP3    H237443   5.099   5.492  16.655  0.2172 -0.4022  0.8180
 5318TIP3   OH237444   5.529   4.817  16.016  0.4148  0.1970 -0.2947
 5318TIP3    H137445   5.456   4.804  16.076  0.1952  0.3885 -0.5174
 5318TIP3    H237446   5.572   4.896  16.047  1.1699 -0.4925  0.4749
 5319TIP3   OH237447   6.226   0.623  10.792  0.0884  0.2174  0.0871
 5319TIP3    H137448   6.138   0.654  10.815  0.4335  0.8593  0.5638
 5319TIP3    H237449   6.259   0.689  10.730  0.4880  0.3403  0.4257
 5320TIP3   OH237450   3.859   0.318   5.985 -0.1950 -0.2589 -0.4692
 5320TIP3    H137451   3.916   0.381   5.941 -0.9453  0.1563 -0.8796
 5320TIP3    H237452   3.774   0.331   5.944 -0.3986 -1.4429 -0.4418
 5321TIP3   OH237453   3.383   0.370  16.915 -0.1450 -0.0523 -0.0137
 5321TIP3    H137454   3.418   0.293  16.959  0.6667 -0.4994 -1.3827
 5321TIP3    H237455   3.343   0.336  16.835 -1.2256  0.7814  0.1449
 5322TIP3   OH237456   5.829   4.074  12.819 -0.1354 -0.2616 -0.3604
 5322TIP3    H137457   5.918   4.045  12.837 -0.4494 -1.5130 -0.7208
 5322TIP3    H237458   5.816   4.057  12.726 -0.7309 -0.0517 -0.3211
 5323TIP3   OH237459   1.128   4.360   1.262 -0.0836 -0.2454  0.9831
 5323TIP3    H137460   1.206   4.330   1.214 -1.5346 -2.0087 -0.4349
 5323TIP3    H237461   1.142   4.329   1.351 -0.0504 -2.5488  0.2622
 5324TIP3   OH237462   6.654   5.293   0.106 -0.0113  0.7696  0.6839
 5324TIP3    H137463   6.697   5.327   0.184  1.3847  2.0969 -0.5691
 5324TIP3    H237464   6.624   5.372   0.060  1.7516  0.2966 -1.4695
 5325TIP3   OH237465   3.612   6.605  15.774 -0.1099 -0.0044  0.2151
 5325TIP3    H137466   3.665   6.645  15.843 -1.2021  1.3219  0.3110
 5325TIP3    H237467   3.597   6.675  15.711  0.1623 -0.9781 -0.9685
 5326TIP3   OH237468   5.420   5.767   2.258 -0.1272 -0.0499  0.3935
 5326TIP3    H137469   5.510   5.792   2.276  0.4847 -0.9390 -1.2125
 5326TIP3    H237470   5.425   5.673   2.240 -1.1566  0.1279 -0.9719
 5327TIP3   OH237471   2.043   3.212   1.336  0.4422  0.4458  0.5343
 5327TIP3    H137472   2.072   3.166   1.414 -1.3266 -1.9794 -0.1203
 5327TIP3    H237473   1.962   3.257   1.363  0.1419  0.0762  0.2615
 5328TIP3   OH237474   3.143   6.476   0.575  0.3371  0.1792 -0.0817
 5328TIP3    H137475   3.155   6.542   0.507  0.2038  0.6680  0.3682
 5328TIP3    H237476   3.231   6.446   0.596  0.3042 -1.1390 -1.5960
 5329TIP3   OH237477   4.255   4.620  15.489 -0.1647 -0.3496 -0.0048
 5329TIP3    H137478   4.206   4.644  15.568  0.7094  2.4045 -0.1891
 5329TIP3    H237479   4.337   4.582  15.522  0.6498  1.7245  0.5427
 5330TIP3   OH237480   0.343   3.793  11.058 -0.2215  0.8004  0.0520
 5330TIP3    H137481   0.407   3.811  10.989  0.3956  0.2476  0.4664
 5330TIP3    H237482   0.359   3.702  11.082  0.3990  1.3108  1.7499
 5331TIP3   OH237483   3.797   6.328  15.899  0.0563 -0.3396 -0.2509
 5331TIP3    H137484   3.801   6.309  15.993  0.5131 -2.6969 -0.6663
 5331TIP3    H237485   3.704   6.316  15.877  0.0253 -0.2304 -0.1811
 5332TIP3   OH237486   4.851   4.168   0.273  0.3643  0.0231 -0.1443
 5332TIP3    H137487   4.820   4.094   0.222  0.4656 -0.6272  0.7168
 5332TIP3    H237488   4.788   4.238   0.256  1.0249  0.2048 -2.0522
 5333TIP3   OH237489   0.111   4.645  13.668 -0.0972 -0.0866  0.2556
 5333TIP3    H137490   0.122   4.693  13.750  1.2200  1.4724 -0.7728
 5333TIP3    H237491   0.189   4.591  13.661  0.4520  0.7873 -0.5788
 5334TIP3   OH237492   3.087   3.455   1.576 -0.0427  0.2370 -0.7518
 5334TIP3    H137493   3.042   3.396   1.636 -1.0248  3.2496  1.7638
 5334TIP3    H237494   3.150   3.502   1.630 -0.0382  2.1830 -2.3074
 5335TIP3   OH237495   4.856   4.397   2.845 -0.2795 -0.3934  0.1224
 5335TIP3    H137496   4.889   4.481   2.815 -0.7457  0.0890  0.9366
 5335TIP3    H237497   4.935   4.344   2.860 -0.0085 -0.4215 -1.2328
 5336TIP3   OH237498   3.416   2.619   5.293 -0.2188  0.0439 -0.0838
 5336TIP3    H137499   3.443   2.553   5.357  1.7915 -1.9074 -2.6781
 5336TIP3    H237500   3.498   2.648   5.252 -1.3259  1.9514 -1.0719
 5337TIP3   OH237501   0.318   3.349   4.977 -0.0746  0.4168 -1.0102
 5337TIP3    H137502   0.333   3.318   4.888 -1.7123  0.7718 -1.4364
 5337TIP3    H237503   0.281   3.437   4.966  1.5498  1.2879  0.0936
 5338TIP3   OH237504   0.880   5.091   3.483  0.1907 -0.4993 -0.2592
 5338TIP3    H137505   0.867   5.053   3.396 -0.3276 -1.1650  0.1039
 5338TIP3    H237506   0.884   5.186   3.467  0.7094 -0.6458 -1.0758
 5339TIP3   OH237507   6.567   2.773   5.165 -0.4451  0.7171 -0.6724
 5339TIP3    H137508   6.657   2.740   5.162 -0.6566  0.1787 -2.4029
 5339TIP3    H237509   6.574   2.864   5.135 -0.5926  0.2978 -2.0592
 5340TIP3   OH237510   4.971   3.605   0.614 -0.8769  0.6168  0.2220
 5340TIP3    H137511   4.900   3.549   0.643 -1.2470  0.5976 -0.6917
 5340TIP3    H237512   4.965   3.605   0.518  1.1110 -0.3780  0.0501
 5341TIP3   OH237513   2.261   3.486   3.554 -0.3898 -0.2495 -0.0319
 5341TIP3    H137514   2.202   3.454   3.486  0.0881 -1.2553  0.0061
 5341TIP3    H237515   2.220   3.566   3.586 -0.1331  0.8349 -2.1975
 5342TIP3   OH237516   0.326   4.356  14.312  0.0874 -0.0923  0.3976
 5342TIP3    H137517   0.270   4.431  14.333 -0.6620 -0.9739  1.7168
 5342TIP3    H237518   0.370   4.335  14.394 -1.7377 -2.7040  0.8298
 5343TIP3   OH237519   1.036   1.676   6.058 -0.4056  0.0740 -0.1355
 5343TIP3    H137520   1.093   1.751   6.042  0.0832 -0.6477 -2.1117
 5343TIP3    H237521   0.954   1.698   6.015 -0.9977  0.3034  1.0601
 5344TIP3   OH237522   2.954   3.649  16.190  0.2146  0.2349  0.0646
 5344TIP3    H137523   2.904   3.620  16.114  0.9232 -0.8566 -0.0196
 5344TIP3    H237524   3.023   3.705  16.154  0.4249 -0.1148 -0.0859
 5345TIP3   OH237525   5.673   5.548  13.767  0.5393  0.5860 -0.9407
 5345TIP3    H137526   5.767   5.565  13.760  0.7730 -0.7625 -1.4354
 5345TIP3    H237527   5.665   5.481  13.835 -0.0451  0.5833 -1.0034
 5346TIP3   OH237528   5.638   2.253  11.235 -0.2665  0.6126 -0.0820
 5346TIP3    H137529   5.698   2.238  11.162 -1.0869  1.1572 -0.8896
 5346TIP3    H237530   5.552   2.263  11.194 -1.2949 -2.0476  1.1548
 5347TIP3   OH237531   2.041   0.601   5.053 -0.0987 -0.0991  0.2642
 5347TIP3    H137532   2.062   0.648   4.972 -1.3376 -0.4132 -0.2717
 5347TIP3    H237533   2.064   0.662   5.123  3.5281 -0.7966 -0.1306
 5348TIP3   OH237534   3.445   3.634   3.090 -0.1304  0.2089  0.2237
 5348TIP3    H137535   3.357   3.621   3.055 -0.1473  1.1113 -0.1086
 5348TIP3    H237536   3.503   3.603   3.021 -0.1708  1.6821 -0.5153
 5349TIP3   OH237537   3.465   3.227  11.673 -0.5388 -0.4571  0.3057
 5349TIP3    H137538   3.476   3.132  11.678  2.2814 -0.1815  1.1652
 5349TIP3    H237539   3.524   3.254  11.603  0.0413  0.7938  1.2281
 5350TIP3   OH237540   5.092   2.753  11.215 -0.2949 -0.2543 -0.1652
 5350TIP3    H137541   5.036   2.675  11.218 -0.7696  0.0239 -1.3065
 5350TIP3    H237542   5.168   2.727  11.163 -1.5053  0.6460 -2.5250
 5351TIP3   OH237543   1.793   0.006   3.173 -0.0605  0.3907 -0.1984
 5351TIP3    H137544   1.762  -0.059   3.236  0.6228 -0.0751 -0.3264
 5351TIP3    H237545   1.885  -0.016   3.159 -0.7498 -1.1192 -3.2518
 5352TIP3   OH237546   4.490   2.928   6.243  0.0459  0.7059 -0.2458
 5352TIP3    H137547   4.472   2.985   6.168 -1.4082  1.3155  0.5316
 5352TIP3    H237548   4.404   2.909   6.281  0.5427 -1.4521 -0.0424
 5353TIP3   OH237549   3.103   4.907   4.243  0.0473  0.6237  0.5741
 5353TIP3    H137550   3.123   4.814   4.231  1.9623  1.1685 -1.2856
 5353TIP3    H237551   3.038   4.926   4.175 -0.6744  0.5741  1.2407
 5354TIP3   OH237552   1.643   3.043   0.501  0.2816 -0.5208  0.0367
 5354TIP3    H137553   1.669   3.015   0.414 -0.2574  0.3168 -0.4117
 5354TIP3    H237554   1.718   3.093   0.533  0.4806 -0.8299  0.0615
 5355TIP3   OH237555   6.006   3.690   4.812  0.5869  0.0203 -0.0515
 5355TIP3    H137556   6.090   3.665   4.775 -0.0962 -3.6684  0.5201
 5355TIP3    H237557   5.941   3.656   4.750 -0.5190  0.8145  0.6190
 5356TIP3   OH237558   6.505   6.238  14.927  0.0008  0.1506  0.1583
 5356TIP3    H137559   6.493   6.165  14.866  0.0727 -0.9850  1.4579
 5356TIP3    H237560   6.431   6.231  14.987  0.8714  0.1713  1.2513
 5357TIP3   OH237561   3.780   4.600   1.455  0.4817 -0.1240  0.2247
 5357TIP3    H137562   3.767   4.693   1.436  1.8422 -0.3977 -2.4990
 5357TIP3    H237563   3.821   4.599   1.542  0.4075  1.8008  0.3262
 5358TIP3   OH237564   0.632   0.984  15.979  0.0115 -0.0463 -0.1910
 5358TIP3    H137565   0.699   1.039  16.019  1.2202 -0.8091 -1.1130
 5358TIP3    H237566   0.668   0.960  15.893 -0.6818 -1.8636 -0.0250
 5359TIP3   OH237567   4.445   5.901   5.368 -0.4245 -0.5133  0.3688
 5359TIP3    H137568   4.493   5.843   5.427 -0.5781  0.1233  1.1262
 5359TIP3    H237569   4.513   5.938   5.311 -0.0343  0.2592  1.3262
 5360TIP3   OH237570   4.180   1.924   4.799  0.6744  0.6858 -0.0860
 5360TIP3    H137571   4.134   1.997   4.758  1.3228  1.0695 -0.1460
 5360TIP3    H237572   4.273   1.939   4.777  0.8051 -0.1735 -0.1253
 5361TIP3   OH237573   3.240   2.244  15.324  0.1009 -0.0389 -0.1121
 5361TIP3    H137574   3.269   2.327  15.288  1.3074  0.1856  1.2701
 5361TIP3    H237575   3.191   2.267  15.403  0.1164 -0.6142  0.0741
 5362TIP3   OH237576   6.014   1.916   3.923 -0.0347 -0.1107 -0.0255
 5362TIP3    H137577   5.969   1.834   3.947  0.1932 -0.3668 -0.4610
 5362TIP3    H237578   5.948   1.966   3.875 -1.0683  1.1605  2.5410
 5363TIP3   OH237579   5.721   0.539  14.427  0.6038 -0.2161  0.0022
 5363TIP3    H137580   5.726   0.595  14.504  1.3985  0.9609 -0.8628
 5363TIP3    H237581   5.627   0.531  14.409  0.4550  0.3270  0.5149
 5364TIP3   OH237582   5.344   6.643   5.241  0.0742  0.1697  0.2578
 5364TIP3    H137583   5.352   6.582   5.314 -0.1768  0.4031  0.4829
 5364TIP3    H237584   5.372   6.593   5.164 -2.3279 -1.0021  0.0351
 5365TIP3   OH237585   3.902   0.042  13.624 -0.0038 -0.4947  0.4383
 5365TIP3    H137586   3.819   0.065  13.666 -0.1698 -1.5960  0.7361
 5365TIP3    H237587   3.891   0.071  13.534  1.1412  3.9001  1.4597
 5366TIP3   OH237588   3.713   2.996   2.453 -0.4145 -0.1804 -0.3603
 5366TIP3    H137589   3.701   3.089   2.471 -0.3034  0.0262 -1.3202
 5366TIP3    H237590   3.626   2.965   2.429 -0.3453 -0.1915 -0.6020
 5367TIP3   OH237591   0.415   3.936   4.718  0.5569 -0.8264 -0.1697
 5367TIP3    H137592   0.390   3.942   4.810  0.5297 -1.9235 -0.0986
 5367TIP3    H237593   0.405   4.026   4.685 -1.2769 -0.7731  0.4138
 5368TIP3   OH237594   3.097   6.557  16.128 -0.1292  0.2329 -0.6785
 5368TIP3    H137595   3.021   6.541  16.184 -1.6233  0.8184 -2.3985
 5368TIP3    H237596   3.128   6.470  16.103 -0.1662 -0.0168  0.1239
 5369TIP3   OH237597   5.185   4.929   4.922  0.5837 -0.0514  0.2496
 5369TIP3    H137598   5.156   5.009   4.967 -1.2108  0.0472 -0.9435
 5369TIP3    H237599   5.148   4.937   4.834  1.1133 -1.7932 -0.1698
 5370TIP3   OH237600   4.282   6.749  12.340  0.2777  0.2560  0.3806
 5370TIP3    H137601   4.282   6.819  12.405  1.6285 -0.7930  1.5874
 5370TIP3    H237602   4.191   6.718  12.338 -0.6329  2.7580 -1.0679
 5371TIP3   OH237603   5.387   6.045   3.013  0.4556  0.8759  0.6113
 5371TIP3    H137604   5.326   6.118   3.023 -1.0972 -0.1495 -0.7335
 5371TIP3    H237605   5.336   5.979   2.966  1.7981 -1.1014  1.8439
 5372TIP3   OH237606   5.941   6.717   4.446  0.1230 -0.2148  0.0400
 5372TIP3    H137607   5.867   6.750   4.395 -0.7917 -1.1968  0.6825
 5372TIP3    H237608   5.952   6.627   4.416 -0.2332 -0.7046  1.3233
 5373TIP3   OH237609   4.632   0.186  16.818 -0.0034  0.7959 -0.3645
 5373TIP3    H137610   4.559   0.214  16.762  0.8435 -1.4444 -2.7993
 5373TIP3    H237611   4.657   0.265  16.866 -4.2032  1.5830  0.9021
 5374TIP3   OH237612   1.457   5.946   0.435  0.2751  0.9676 -0.4856
 5374TIP3    H137613   1.516   5.949   0.359  1.1963  3.2423  0.2261
 5374TIP3    H237614   1.370   5.962   0.397 -0.0994 -2.7226 -1.5835
 5375TIP3   OH237615   1.558   0.592  16.939 -0.7658  0.6700  0.6302
 5375TIP3    H137616   1.521   0.680  16.933 -0.0897  0.9549  0.5088
 5375TIP3    H237617   1.589   0.586  17.030  0.0392  0.9143  0.3797
 5376TIP3   OH237618   4.674   6.764  15.790 -0.0249 -0.3717 -0.5283
 5376TIP3    H137619   4.634   6.829  15.849  0.9946  1.0588 -1.3486
 5376TIP3    H237620   4.764   6.756  15.822  0.1020 -0.7272 -0.9713
 5377TIP3   OH237621   4.878   2.937  16.646  0.0179  0.5773 -0.1587
 5377TIP3    H137622   4.791   2.973  16.660 -0.5481  0.1466 -2.2071
 5377TIP3    H237623   4.926   2.958  16.726 -1.2862  2.7774  0.1309
 5378TIP3   OH237624   0.311   0.190   0.111  0.9621  0.0347  0.3479
 5378TIP3    H137625   0.349   0.106   0.086 -0.1760 -0.7114  1.0544
 5378TIP3    H237626   0.343   0.206   0.200 -0.6808 -0.8213  1.1258
 5379TIP3   OH237627   2.828   2.877  11.518  0.1738  0.3011  0.4034
 5379TIP3    H137628   2.922   2.863  11.530  0.5517  0.2711 -1.9952
 5379TIP3    H237629   2.818   2.972  11.521  0.1204  0.2738  1.4699
 5380TIP3   OH237630   5.597   1.202   3.350  0.6979  0.2895  0.3556
 5380TIP3    H137631   5.583   1.114   3.383  1.2002  0.1358  0.1705
 5380TIP3    H237632   5.583   1.195   3.255  1.5082  0.2288  0.2282
 5381TIP3   OH237633   5.750   5.534   3.557 -0.1757 -0.0120 -0.6308
 5381TIP3    H137634   5.836   5.570   3.533  0.4930 -1.2987 -0.2930
 5381TIP3    H237635   5.688   5.602   3.533  1.0151  1.3623 -0.0047
 5382TIP3   OH237636   1.973   3.172   3.038  0.4932 -0.2838 -0.1265
 5382TIP3    H137637   1.974   3.268   3.043 -1.0205 -0.2303 -0.2020
 5382TIP3    H237638   2.041   3.150   2.975  1.1721  0.7023  0.2339
 5383TIP3   OH237639   4.096   5.142   1.569 -0.4361  0.1732 -0.1230
 5383TIP3    H137640   4.126   5.118   1.657 -0.0556 -1.6558 -0.7111
 5383TIP3    H237641   4.173   5.129   1.514 -1.5074 -1.9461 -1.2290
 5384TIP3   OH237642   2.662   0.564   3.343  0.0412 -0.0825 -0.2116
 5384TIP3    H137643   2.718   0.639   3.363  0.4976 -0.5107  0.1353
 5384TIP3    H237644   2.666   0.556   3.247  1.1022 -0.5078 -0.1401
 5385TIP3   OH237645   4.759   6.351   4.723 -0.5357 -0.4222  0.0343
 5385TIP3    H137646   4.765   6.362   4.818 -1.6682  1.1806 -0.0418
 5385TIP3    H237647   4.680   6.399   4.698 -0.4634 -1.1239 -1.6818
 5386TIP3   OH237648   2.358   1.778   2.045  0.2608 -0.4951 -0.1144
 5386TIP3    H137649   2.334   1.840   2.113 -2.3230 -0.5248 -0.9029
 5386TIP3    H237650   2.287   1.783   1.981  1.6731 -1.8037 -1.8997
 5387TIP3   OH237651   1.006   3.061  15.927 -0.4226 -1.0062  0.2432
 5387TIP3    H137652   1.039   3.084  15.840  0.1250  1.2018  0.9648
 5387TIP3    H237653   1.074   3.007  15.966 -0.2884 -1.2966 -0.3910
 5388TIP3   OH237654   2.041   3.997  11.339  0.0944  0.1407 -0.2237
 5388TIP3    H137655   1.984   4.069  11.365  0.5243  1.0041 -1.5660
 5388TIP3    H237656   2.005   3.969  11.254 -1.0922 -2.3616  0.9900
 5389TIP3   OH237657   6.133   0.882  16.816 -0.0847  0.2679  0.0070
 5389TIP3    H137658   6.128   0.791  16.847  0.7512  0.2453  0.1197
 5389TIP3    H237659   6.222   0.910  16.840 -0.3622  1.1445  0.0456
 5390TIP3   OH237660   0.379   4.054   0.842  0.7294  0.6083  0.3297
 5390TIP3    H137661   0.337   3.971   0.818  1.4782  0.4440 -0.4643
 5390TIP3    H237662   0.423   4.082   0.762  2.4226  0.6062  1.2135
 5391TIP3   OH237663   4.849   1.086  11.372 -0.3954  0.0994  1.2490
 5391TIP3    H137664   4.916   1.126  11.316 -0.5226 -0.1825  0.8917
 5391TIP3    H237665   4.832   1.001  11.332 -0.8588  0.1056  1.4298
 5392TIP3   OH237666   5.576   3.010   4.687  0.1634  0.1676  0.4857
 5392TIP3    H137667   5.569   3.096   4.646 -1.2454  0.5169  1.3892
 5392TIP3    H237668   5.564   3.027   4.781  0.4570 -0.9432  0.7413
 5393TIP3   OH237669   1.145   1.588  15.354  0.1020 -0.1038 -0.3316
 5393TIP3    H137670   1.107   1.501  15.347 -0.4845 -0.2848  3.1324
 5393TIP3    H237671   1.072   1.644  15.382  0.9962  0.9337  0.0094
 5394TIP3   OH237672   4.859   1.889  13.912 -0.0584 -0.0335 -0.1820
 5394TIP3    H137673   4.903   1.887  13.997 -0.3518  0.1088 -0.0245
 5394TIP3    H237674   4.897   1.965  13.868 -1.6742  1.4559  0.8114
 5395TIP3   OH237675   3.634   3.047   0.182  0.1037  0.3967  0.1290
 5395TIP3    H137676   3.641   3.102   0.104  0.3383  0.7038  0.3601
 5395TIP3    H237677   3.562   2.987   0.163 -0.1551  0.7844 -0.1290
 5396TIP3   OH237678   3.090   4.674  12.772 -0.1046 -0.5137 -0.0680
 5396TIP3    H137679   3.130   4.713  12.694  0.1692  0.3746  0.5017
 5396TIP3    H237680   3.161   4.670  12.836 -0.4349 -0.8291  0.2890
 5397TIP3   OH237681   4.582   6.139   3.475  0.1467  0.1622 -0.8470
 5397TIP3    H137682   4.599   6.193   3.398  0.8704 -0.8772 -1.4478
 5397TIP3    H237683   4.501   6.092   3.454 -0.8224  1.4232 -0.0702
 5398TIP3   OH237684   2.752   6.424   1.731 -0.2287 -0.2355 -0.0668
 5398TIP3    H137685   2.824   6.420   1.794 -0.3460  1.0093  0.1733
 5398TIP3    H237686   2.777   6.363   1.662  1.1316  0.2828 -0.0642
 5399TIP3   OH237687   0.342   3.152   4.005  0.0705  0.4129 -0.0047
 5399TIP3    H137688   0.249   3.130   4.010  0.2819 -0.5785 -0.2579
 5399TIP3    H237689   0.346   3.226   3.945 -0.5557  0.4725  0.0231
 5400TIP3   OH237690   4.945   2.040   5.295 -0.0741 -0.0459  0.0669
 5400TIP3    H137691   5.020   2.080   5.340 -0.2109  1.1977 -0.7431
 5400TIP3    H237692   4.870   2.059   5.351 -0.2391  1.4609 -0.6146
 5401TIP3   OH237693   0.548   1.152   4.167  0.1622 -0.1012 -0.3505
 5401TIP3    H137694   0.557   1.247   4.157 -1.4336  0.0267 -0.9330
 5401TIP3    H237695   0.622   1.126   4.222 -0.6848  1.8502  1.8801
 5402TIP3   OH237696   1.312   2.481  13.616 -0.5568  0.1053 -0.1581
 5402TIP3    H137697   1.286   2.555  13.561  0.4544 -0.7995 -1.9283
 5402TIP3    H237698   1.358   2.521  13.690 -1.0800  1.2975 -0.4495
 5403TIP3   OH237699   3.895   4.589  15.765  0.5040 -0.0811 -0.1729
 5403TIP3    H137700   3.861   4.533  15.695  1.8786 -2.2686  0.7995
 5403TIP3    H237701   3.816   4.621  15.810 -0.3491 -0.9924 -0.9552
 5404TIP3   OH237702   3.787   5.853   2.852  0.0912  0.1988 -0.4747
 5404TIP3    H137703   3.794   5.760   2.833  1.2275 -0.0491  0.9729
 5404TIP3    H237704   3.737   5.858   2.933 -0.2721  0.8885 -0.7304
 5405TIP3   OH237705   4.686   1.324   5.106 -0.0529 -0.0380  0.1636
 5405TIP3    H137706   4.759   1.274   5.069  0.8079  1.2010  0.1327
 5405TIP3    H237707   4.633   1.347   5.030  0.2355  0.1829  0.0291
 5406TIP3   OH237708   1.857   6.613   5.005 -0.6514  0.2002 -0.3076
 5406TIP3    H137709   1.903   6.665   4.939 -0.2736 -0.0474 -0.2427
 5406TIP3    H237710   1.921   6.601   5.075 -0.7053 -0.4453 -0.3694
 5407TIP3   OH237711   0.187   0.006   1.331  0.6758  0.0621 -0.2666
 5407TIP3    H137712   0.184  -0.078   1.284 -0.3832 -0.6589  1.0396
 5407TIP3    H237713   0.109   0.053   1.302  1.6125  0.9211 -1.5075
 5408TIP3   OH237714   0.757   0.532   5.163 -0.3963 -0.0887  0.1199
 5408TIP3    H137715   0.841   0.502   5.128  1.2628  2.0545  1.9871
 5408TIP3    H237716   0.739   0.472   5.236 -1.0667 -1.1908 -0.9253
 5409TIP3   OH237717   0.331   2.939  15.601 -0.0509 -0.5827  0.4784
 5409TIP3    H137718   0.355   2.996  15.529  0.0513 -0.4230  0.6386
 5409TIP3    H237719   0.323   2.997  15.677  0.1917 -0.7980  0.6721
 5410TIP3   OH237720   2.343   5.713  14.965  0.3003 -0.1899  0.4760
 5410TIP3    H137721   2.258   5.749  14.939 -0.4385 -1.5272  0.8842
 5410TIP3    H237722   2.332   5.618  14.956  1.0614 -0.5240  2.4624
 5411TIP3   OH237723   2.235   4.908  13.204 -0.0933  0.4772 -0.2946
 5411TIP3    H137724   2.199   4.861  13.279 -1.3031 -1.3009 -1.8874
 5411TIP3    H237725   2.319   4.942  13.235  0.2381 -1.6199  1.3736
 5412TIP3   OH237726   2.683   3.317  13.838  0.2546 -0.5397  0.0629
 5412TIP3    H137727   2.610   3.276  13.885  0.0665  1.0852  1.2692
 5412TIP3    H237728   2.761   3.274  13.873  0.3164  1.9869  3.6366
 5413TIP3   OH237729   2.396   1.791   3.954  0.5645 -0.2056 -0.9251
 5413TIP3    H137730   2.406   1.723   3.888  0.3495 -0.5579 -0.6005
 5413TIP3    H237731   2.335   1.854   3.916 -1.2488 -1.4730 -0.2479
 5414TIP3   OH237732   1.088   5.571  13.833 -0.4614 -0.6317  0.1077
 5414TIP3    H137733   1.051   5.637  13.775  0.3316  0.6468  1.0066
 5414TIP3    H237734   1.179   5.562  13.804 -0.4193 -0.9389  0.3302
 5415TIP3   OH237735   1.543   5.427  12.114 -0.2373  0.0089 -0.1594
 5415TIP3    H137736   1.543   5.449  12.020  1.0508  0.4807 -0.0623
 5415TIP3    H237737   1.541   5.512  12.158 -0.9326 -0.2156  0.2597
 5416TIP3   OH237738   1.520   6.836  14.504  0.0508  0.2247  0.2354
 5416TIP3    H137739   1.465   6.910  14.531  1.5653  1.3486  0.3220
 5416TIP3    H237740   1.534   6.786  14.584 -1.5606 -0.6113  0.0477
 5417TIP3   OH237741   3.605   1.612   5.493  0.0239  0.1633  0.0478
 5417TIP3    H137742   3.546   1.669   5.542 -0.9021 -3.6914  4.1733
 5417TIP3    H237743   3.553   1.583   5.418 -1.3154  0.9299  0.6376
 5418TIP3   OH237744   6.820   2.152  11.481 -0.1691 -0.3783 -0.0528
 5418TIP3    H137745   6.796   2.131  11.572  0.2808  1.6664  0.5929
 5418TIP3    H237746   6.759   2.221  11.456 -2.1897 -2.8261 -2.3846
 5419TIP3   OH237747   3.718   3.663   2.420 -0.1735 -0.1918 -0.3303
 5419TIP3    H137748   3.750   3.705   2.340 -0.3751 -1.5086 -1.1531
 5419TIP3    H237749   3.782   3.593   2.438  0.1395  0.4059  0.9663
 5420TIP3   OH237750   3.507   3.627  16.745 -0.0852  0.2871 -0.1474
 5420TIP3    H137751   3.530   3.704  16.693  0.9251 -0.0521 -0.2145
 5420TIP3    H237752   3.450   3.576  16.687 -0.5423  0.8403 -0.2001
 5421TIP3   OH237753   3.126   4.943   2.501 -0.0974 -0.2055  0.1858
 5421TIP3    H137754   3.135   4.973   2.411 -0.7631 -0.5144  0.0131
 5421TIP3    H237755   3.043   4.980   2.531  1.0324  1.5602  1.3382
 5422TIP3   OH237756   1.077   2.605  11.212 -0.1294 -0.2141 -0.6649
 5422TIP3    H137757   1.033   2.675  11.163  1.7672  0.7434 -1.0856
 5422TIP3    H237758   1.046   2.524  11.171 -1.8533  0.3628 -0.6030
 5423TIP3   OH237759   3.542   0.192   4.103  0.0970 -0.1850 -0.4643
 5423TIP3    H137760   3.454   0.204   4.138  0.4678  0.6850  0.2022
 5423TIP3    H237761   3.567   0.103   4.129 -0.7517 -0.6100 -1.0603
 5424TIP3   OH237762   6.450   0.951   6.482  0.8823 -0.1259  0.2332
 5424TIP3    H137763   6.384   0.914   6.423  1.2377 -1.4999  0.6483
 5424TIP3    H237764   6.506   0.877   6.504  1.1721  0.5011  1.7473
 5425TIP3   OH237765   5.319   3.711  11.907  0.0122  0.7917 -0.0795
 5425TIP3    H137766   5.256   3.639  11.895  1.5989 -1.0051  1.5910
 5425TIP3    H237767   5.343   3.706  12.000  4.1388 -0.0649 -0.9891
 5426TIP3   OH237768   4.456   4.223  11.564  0.0636  0.1188  0.6681
 5426TIP3    H137769   4.396   4.148  11.564  0.0628  0.0578 -1.0936
 5426TIP3    H237770   4.533   4.192  11.611  0.1540 -1.0978 -0.2289
 5427TIP3   OH237771   2.773   6.680   2.769 -0.4940 -0.0943  0.1298
 5427TIP3    H137772   2.739   6.674   2.680  1.4025 -0.0317 -0.6610
 5427TIP3    H237773   2.841   6.748   2.764  2.8949 -3.1341  0.4330
 5428TIP3   OH237774   2.238   5.276  13.130 -0.6842 -0.5248  0.0594
 5428TIP3    H137775   2.271   5.247  13.215  0.3462  0.2377 -0.0531
 5428TIP3    H237776   2.261   5.205  13.070  0.2503 -0.2842  0.1020
 5429TIP3   OH237777   1.791   2.202   1.895  0.0465  0.4849  0.1977
 5429TIP3    H137778   1.757   2.250   1.819 -0.9890 -0.3119  0.1279
 5429TIP3    H237779   1.737   2.123   1.898  1.0374 -0.1789  0.9139
 5430TIP3   OH237780   6.063   4.071   4.025 -0.2265 -0.7386  0.3170
 5430TIP3    H137781   6.098   4.089   4.113  0.1054  1.6820 -0.2424
 5430TIP3    H237782   6.140   4.069   3.968 -0.6507  3.8912 -0.8023
 5431TIP3   OH237783   4.000   1.979   3.238 -0.4235  0.0074  0.2637
 5431TIP3    H137784   3.908   1.987   3.212  0.2901  1.1824 -2.3189
 5431TIP3    H237785   4.034   2.068   3.232  0.9945 -0.4727  0.7429
 5432TIP3   OH237786   5.839   4.660  11.135  0.5727 -0.0334  0.5132
 5432TIP3    H137787   5.784   4.739  11.140  0.3382 -0.1924  0.4373
 5432TIP3    H237788   5.928   4.694  11.130  0.5221  0.2233  1.1809
 5433TIP3   OH237789   6.603   4.380  16.310 -0.1263  0.2954 -0.2119
 5433TIP3    H137790   6.659   4.443  16.265 -1.0896  1.1672 -0.2169
 5433TIP3    H237791   6.645   4.368  16.395  1.5389 -1.1287 -1.1439
 5434TIP3   OH237792   2.586   4.927   4.729 -0.9970  0.5229  0.4048
 5434TIP3    H137793   2.534   4.853   4.761  1.1151 -1.8026 -1.1826
 5434TIP3    H237794   2.669   4.920   4.775  0.5159 -0.3198 -2.2285
 5435TIP3   OH237795   0.224   4.393   5.828  0.2117  0.5621  0.1181
 5435TIP3    H137796   0.300   4.368   5.775  0.4368  1.6696 -0.1077
 5435TIP3    H237797   0.226   4.333   5.903  0.7488 -0.0462 -0.3682
 5436TIP3   OH237798   6.632   5.452  10.045 -0.1682 -0.3794  0.4755
 5436TIP3    H137799   6.710   5.408  10.078  0.1876 -0.9793 -1.0748
 5436TIP3    H237800   6.663   5.537  10.014  0.1345 -1.0395 -1.1585
 5437TIP3   OH237801   4.780   2.054   3.770  0.3669 -0.7053  0.8408
 5437TIP3    H137802   4.731   2.052   3.853  4.0806  1.3239  3.4126
 5437TIP3    H237803   4.735   2.121   3.718  0.2085  1.0417  3.0248
 5438TIP3   OH237804   6.265   4.873  13.929 -0.3394 -0.4384  0.1382
 5438TIP3    H137805   6.220   4.958  13.923  0.2270  0.0011  1.5609
 5438TIP3    H237806   6.198   4.809  13.905 -1.6789  0.2159  1.8689
 5439TIP3   OH237807   0.316   3.866   4.949 -0.1842  0.0596  0.2492
 5439TIP3    H137808   0.397   3.815   4.949  0.4729  1.0582  0.8618
 5439TIP3    H237809   0.270   3.838   5.029  1.3877  2.1671  2.0375
 5440TIP3   OH237810   3.450   5.054   0.526  0.0458 -0.4781 -0.3103
 5440TIP3    H137811   3.510   5.111   0.574  0.2498 -1.2126  0.3236
 5440TIP3    H237812   3.366   5.100   0.528  0.3710  0.1311 -0.4288
 5441TIP3   OH237813   1.988   4.793  13.686 -0.1740 -0.3327 -0.9659
 5441TIP3    H137814   2.070   4.769  13.729  0.6477  1.0442 -1.6854
 5441TIP3    H237815   1.966   4.878  13.724 -2.1279 -1.3763  0.3526
 5442TIP3   OH237816   1.624   2.977  16.507  0.4996  0.5707  0.2885
 5442TIP3    H137817   1.674   2.895  16.512  0.0706  0.3745  3.3008
 5442TIP3    H237818   1.619   3.007  16.598 -2.4613  2.0530 -0.2449
 5443TIP3   OH237819   3.335   1.095  16.695 -0.5069 -0.0982  0.7250
 5443TIP3    H137820   3.426   1.079  16.719  0.5353  1.0836 -2.0741
 5443TIP3    H237821   3.312   1.177  16.741  1.2950  1.9033 -1.6967
 5444TIP3   OH237822   0.275   3.446  16.403  0.1558  0.2374 -0.3915
 5444TIP3    H137823   0.274   3.511  16.333  1.5904  0.6419 -0.0827
 5444TIP3    H237824   0.356   3.465  16.452 -0.2826 -0.6850  0.7472
 5445TIP3   OH237825   4.712   1.035  14.895  0.0062 -0.2654  0.1427
 5445TIP3    H137826   4.805   1.029  14.871 -0.5018 -1.4921 -1.7637
 5445TIP3    H237827   4.679   0.946  14.882 -1.7457  0.4598 -0.6205
 5446TIP3   OH237828   5.201   4.307   1.054 -0.3248  0.1852 -0.1655
 5446TIP3    H137829   5.267   4.355   1.104 -1.8863  2.2047  0.0419
 5446TIP3    H237830   5.252   4.247   1.000  1.4746 -2.0613  3.6292
 5447TIP3   OH237831   5.248   5.636   5.455 -0.1990  0.2806  0.4450
 5447TIP3    H137832   5.331   5.619   5.410 -1.1589  2.3587 -2.3782
 5447TIP3    H237833   5.274   5.667   5.542  1.8466 -1.4935  0.5533
 5448TIP3   OH237834   4.798   6.341  11.352 -0.0429 -0.6047 -0.0859
 5448TIP3    H137835   4.757   6.328  11.266 -0.4150  0.2517 -0.0433
 5448TIP3    H237836   4.736   6.395  11.401  0.4666 -0.5329  0.4965
 5449TIP3   OH237837   2.904   3.344   0.909 -0.0966  0.0169 -0.0678
 5449TIP3    H137838   2.957   3.423   0.896  2.9403 -2.0034 -1.0631
 5449TIP3    H237839   2.853   3.337   0.828 -0.1497  0.7838 -0.1121
 5450TIP3   OH237840   2.799   2.738   1.515 -0.2053  0.3550 -0.0479
 5450TIP3    H137841   2.725   2.782   1.556 -0.1587 -0.4343  0.9178
 5450TIP3    H237842   2.858   2.809   1.490  0.7178  0.8206  3.0826
 5451TIP3   OH237843   4.504   2.096  10.876 -0.0445  0.4296 -0.1948
 5451TIP3    H137844   4.531   2.005  10.860 -2.0668 -0.3869  0.6691
 5451TIP3    H237845   4.479   2.097  10.969  0.1619  1.9474 -0.1399
 5452TIP3   OH237846   1.376   1.896   5.572  0.3813 -0.4518  0.3945
 5452TIP3    H137847   1.462   1.858   5.556  0.5389 -0.7792  1.9368
 5452TIP3    H237848   1.344   1.853   5.651 -0.4773  0.8830  0.8130
 5453TIP3   OH237849   3.155   4.950   0.068  0.0843  0.0326 -0.2538
 5453TIP3    H137850   3.237   4.923   0.109 -0.1953 -1.0430 -0.3688
 5453TIP3    H237851   3.165   5.044   0.054  0.2973  0.4250  2.0343
 5454TIP3   OH237852   6.847   3.140   5.846 -0.1777 -0.2918 -0.3113
 5454TIP3    H137853   6.773   3.171   5.897 -1.0515 -0.8926 -1.1701
 5454TIP3    H237854   6.922   3.149   5.904 -0.9652  0.0559  0.6790
 5455TIP3   OH237855   2.077   6.595  11.242 -0.7493 -0.3945 -0.0137
 5455TIP3    H137856   2.093   6.506  11.210 -1.3914  0.3767 -2.6870
 5455TIP3    H237857   2.053   6.645  11.164 -1.2789  1.9443  1.5490
 5456TIP3   OH237858   1.386   4.620   0.576  0.1970 -0.1622  0.4565
 5456TIP3    H137859   1.406   4.694   0.634  1.2414 -0.9193  1.0788
 5456TIP3    H237860   1.405   4.653   0.488 -1.1525  0.9087  0.5210
 5457TIP3   OH237861   3.833   0.337   6.281 -0.1672 -0.1359  0.2295
 5457TIP3    H137862   3.901   0.403   6.280 -0.6593  0.3754 -0.0906
 5457TIP3    H237863   3.822   0.311   6.190 -0.8497  0.2633  0.1926
 5458TIP3   OH237864   0.739   5.379   5.322 -0.6734 -0.4855 -0.4515
 5458TIP3    H137865   0.767   5.419   5.405 -3.4504 -0.1122  0.4051
 5458TIP3    H237866   0.666   5.323   5.347 -1.2358 -0.7765 -2.6109
 5459TIP3   OH237867   0.847   5.624  10.430  0.5603 -0.5235  0.9343
 5459TIP3    H137868   0.768   5.581  10.465 -0.2763 -0.0320 -0.2767
 5459TIP3    H237869   0.822   5.651  10.341  2.0096 -0.0950  0.6359
 5460TIP3   OH237870   3.950   6.125   2.240 -0.4799 -0.1554 -0.1169
 5460TIP3    H137871   3.982   6.117   2.330 -0.2072 -0.1837 -0.2143
 5460TIP3    H237872   3.927   6.218   2.232  3.6914  1.0031 -1.3547
 5461TIP3   OH237873   1.205   4.451   0.251  0.3301  0.0567  0.0451
 5461TIP3    H137874   1.202   4.425   0.343  0.5512  2.0889  0.6827
 5461TIP3    H237875   1.273   4.396   0.213 -0.1436 -1.2074  0.9412
 5462TIP3   OH237876   0.742   1.560  14.324 -0.4587 -0.0570  0.3125
 5462TIP3    H137877   0.743   1.594  14.413 -1.1887 -1.1218  0.7453
 5462TIP3    H237878   0.801   1.484  14.327 -1.7396 -1.0790  0.3185
 5463TIP3   OH237879   1.381   2.743  15.575  0.0943  0.0808 -0.2788
 5463TIP3    H137880   1.413   2.797  15.503 -1.6412 -0.4877 -1.5563
 5463TIP3    H237881   1.296   2.711  15.545 -1.1022  0.4947  2.3776
 5464TIP3   OH237882   2.004   2.729  14.583  0.2739 -0.6082 -0.5777
 5464TIP3    H137883   1.964   2.760  14.503 -1.3320  0.1286  0.4695
 5464TIP3    H237884   2.085   2.781  14.591 -0.4826  0.6405 -0.7839
 5465TIP3   OH237885   4.143   4.637   4.234 -0.1262 -0.1434 -0.1303
 5465TIP3    H137886   4.080   4.658   4.303  0.3543 -0.3675  0.3803
 5465TIP3    H237887   4.227   4.627   4.279 -0.1132 -2.0272 -0.4807
 5466TIP3   OH237888   1.007   3.153   0.927 -0.9793 -0.7585 -0.2066
 5466TIP3    H137889   0.946   3.219   0.959 -1.3268 -0.9461 -0.4711
 5466TIP3    H237890   1.066   3.137   1.000  0.7209  1.6822 -0.8916
 5467TIP3   OH237891   4.822   6.664  11.039  0.7507 -0.1159 -0.1843
 5467TIP3    H137892   4.830   6.755  11.010 -0.2957 -0.2794 -1.0584
 5467TIP3    H237893   4.786   6.617  10.963  1.4428 -1.2982  0.1891
 5468TIP3   OH237894   5.524   0.551   1.131 -0.0370 -0.5758  0.6904
 5468TIP3    H137895   5.488   0.609   1.064  1.6988 -1.1411 -0.8161
 5468TIP3    H237896   5.615   0.538   1.105  0.5438 -1.3027  2.8654
 5469TIP3   OH237897   2.128   5.673   6.157  0.1333  0.4083  0.4899
 5469TIP3    H137898   2.206   5.664   6.212  0.1923 -0.5268  0.2743
 5469TIP3    H237899   2.161   5.690   6.069  0.0851  0.3910  0.4684
 5470TIP3   OH237900   1.080   6.419  16.282 -0.0887 -0.6496  0.2520
 5470TIP3    H137901   1.143   6.466  16.228 -0.1236 -0.0512  0.7229
 5470TIP3    H237902   1.080   6.466  16.365 -1.9892  0.0834 -0.1065
 5471TIP3   OH237903   5.953   3.865   1.153 -0.1495  0.5646 -0.2213
 5471TIP3    H137904   5.879   3.894   1.206  0.0767 -0.1840  0.5388
 5471TIP3    H237905   5.958   3.770   1.169  1.4602  0.7219  0.3837
 5472TIP3   OH237906   0.116   3.127  11.394  0.3382  0.3301  0.5815
 5472TIP3    H137907   0.032   3.161  11.364 -0.5979 -1.7623  0.6243
 5472TIP3    H237908   0.178   3.149  11.324 -0.6476  0.3289 -0.3162
 5473TIP3   OH237909   5.111   0.587  11.574 -0.0616 -0.3574  0.2418
 5473TIP3    H137910   5.042   0.636  11.529  0.3248  0.3806  0.4256
 5473TIP3    H237911   5.160   0.544  11.504 -0.7453 -0.9432  0.1160
 5474TIP3   OH237912   3.281   1.904  14.879 -0.6346  0.2460  0.3924
 5474TIP3    H137913   3.233   1.987  14.875 -0.5719  0.3407  1.4556
 5474TIP3    H237914   3.258   1.860  14.797 -1.4003  0.9128  0.2312
 5475TIP3   OH237915   5.911   0.600  10.818  0.0479  0.1487 -0.7458
 5475TIP3    H137916   5.852   0.528  10.839  0.8004 -0.2390  0.1159
 5475TIP3    H237917   5.868   0.647  10.746 -0.9593 -0.5241 -0.5943
 5476TIP3   OH237918   1.458   2.743   0.087 -0.2652 -0.6975 -0.0694
 5476TIP3    H137919   1.519   2.710   0.153 -0.4001 -0.2232  0.2958
 5476TIP3    H237920   1.382   2.684   0.094 -1.0929  0.4605  1.5470
 5477TIP3   OH237921   3.269   0.208   4.283  0.1865 -0.6106  0.0164
 5477TIP3    H137922   3.341   0.155   4.317 -0.6355 -1.2290  0.8461
 5477TIP3    H237923   3.200   0.201   4.349 -0.0070  1.4123  0.0889
 5478TIP3   OH237924   6.120   5.246   2.357  0.6805  0.5617  1.2704
 5478TIP3    H137925   6.167   5.171   2.319 -1.2677 -0.8407  1.4661
 5478TIP3    H237926   6.097   5.300   2.282 -1.0637 -0.9720  0.6104
 5479TIP3   OH237927   3.060   5.006   0.990 -0.3304 -0.2885 -0.2935
 5479TIP3    H137928   3.029   5.006   1.081 -0.5731  0.0393 -0.3751
 5479TIP3    H237929   3.138   4.951   0.992 -1.2919 -1.7367 -0.2043
 5480TIP3   OH237930   4.835   5.409   1.273  0.0953  0.2142  0.4835
 5480TIP3    H137931   4.841   5.314   1.282  1.1176 -0.2053 -3.2378
 5480TIP3    H237932   4.747   5.425   1.238 -0.0971  0.7049  1.1485
 5481TIP3   OH237933   3.567   1.031  16.802 -0.2837 -0.5802  0.5601
 5481TIP3    H137934   3.561   0.944  16.842 -1.5009 -1.0537 -0.5687
 5481TIP3    H237935   3.658   1.057  16.815  0.7275 -2.9628 -0.8956
 5482TIP3   OH237936   1.520   4.494   0.937 -0.2130  0.1292  0.0810
 5482TIP3    H137937   1.487   4.509   1.026 -1.1632 -0.0165 -0.2442
 5482TIP3    H237938   1.546   4.402   0.936  0.3191  0.2688  0.3643
 5483TIP3   OH237939   5.509   2.480   2.623 -0.2457  0.3451 -0.2219
 5483TIP3    H137940   5.457   2.400   2.617  1.1336 -0.5982 -0.2332
 5483TIP3    H237941   5.599   2.449   2.631  0.4310  1.9089 -1.2818
 5484TIP3   OH237942   4.174   3.732  16.688  1.4185  0.1320  0.0229
 5484TIP3    H137943   4.236   3.777  16.746  1.1693  1.1905 -0.4947
 5484TIP3    H237944   4.164   3.792  16.613 -0.8965  0.4329  0.4993
 5485TIP3   OH237945   2.509   4.112  16.303  0.0305 -0.3081  0.3363
 5485TIP3    H137946   2.436   4.097  16.362 -1.6110 -4.6423 -2.2854
 5485TIP3    H237947   2.575   4.049  16.330  0.0457 -0.9866 -1.1627
 5486TIP3   OH237948   2.888   0.692  12.486  0.1604 -0.5172 -0.3206
 5486TIP3    H137949   2.874   0.597  12.478  0.6893 -0.4880 -2.0314
 5486TIP3    H237950   2.907   0.721  12.396  1.2323  1.0184  0.3571
 5487TIP3   OH237951   2.001   1.055   6.625 -0.1902  0.7369 -0.2368
 5487TIP3    H137952   2.065   0.999   6.669  0.1238  0.6875 -0.7540
 5487TIP3    H237953   1.964   1.108   6.695  2.6862  3.0927 -0.2868
 5488TIP3   OH237954   0.918   6.704   2.468  0.2230 -0.5085 -0.7405
 5488TIP3    H137955   0.938   6.674   2.557  0.0335 -2.5029 -1.3211
 5488TIP3    H237956   0.823   6.703   2.463  0.0861  2.0916 -0.2233
 5489TIP3   OH237957   0.833   4.311  13.945 -0.6345  0.4060 -0.7092
 5489TIP3    H137958   0.743   4.335  13.925 -0.6186 -1.2715 -3.3246
 5489TIP3    H237959   0.826   4.232  13.998 -0.8090 -0.7237 -2.3220
 5490TIP3   OH237960   6.795   4.167  11.912 -0.1651 -0.5746  0.1523
 5490TIP3    H137961   6.887   4.180  11.936 -0.6927  1.8088  1.2117
 5490TIP3    H237962   6.775   4.078  11.940  1.8703 -1.2489 -0.3658
 5491TIP3   OH237963   2.146   4.111  14.225 -0.0292  0.1100  0.6893
 5491TIP3    H137964   2.239   4.091  14.235  0.3143 -0.8934 -3.0560
 5491TIP3    H237965   2.141   4.206  14.237  1.4040  0.1573  1.1967
 5492TIP3   OH237966   0.100   3.107   4.330 -0.1810  0.5354 -0.4349
 5492TIP3    H137967   0.029   3.045   4.345 -0.2344 -0.6994 -4.5432
 5492TIP3    H237968   0.173   3.052   4.301  1.5928  2.0358  0.9405
 5493TIP3   OH237969   0.041   3.266   4.635  0.3689 -0.1432  0.7551
 5493TIP3    H137970   0.030   3.241   4.727  0.5379 -0.1377  0.7779
 5493TIP3    H237971   0.130   3.302   4.631  0.9669 -1.5820  0.2728
 5494TIP3   OH237972   2.646   0.500  14.620  0.3651 -0.7035 -0.0028
 5494TIP3    H137973   2.585   0.431  14.644 -2.7504  2.0910  0.9289
 5494TIP3    H237974   2.706   0.506  14.695 -1.9301  0.1970  1.8773
 5495TIP3   OH237975   2.436   3.695  12.039 -0.2551 -0.1008 -0.7361
 5495TIP3    H137976   2.489   3.768  12.069  2.1949 -1.3041 -1.8553
 5495TIP3    H237977   2.350   3.733  12.021  0.9909  2.5460 -1.5339
 5496TIP3   OH237978   5.764   1.304   4.824 -0.2028  0.2910  0.0320
 5496TIP3    H137979   5.782   1.302   4.918 -0.5167  0.5486  0.0958
 5496TIP3    H237980   5.779   1.213   4.795 -0.0347  0.2290  0.3147
 5497TIP3   OH237981   4.588   4.294   2.186 -0.0665 -0.7354 -0.2261
 5497TIP3    H137982   4.618   4.205   2.201 -0.7845 -1.0712 -0.7153
 5497TIP3    H237983   4.541   4.318   2.266  0.5460 -0.6129  0.0998
 5498TIP3   OH237984   1.735   6.031   0.528 -0.4209 -0.4142 -0.1111
 5498TIP3    H137985   1.748   6.057   0.619  0.9287 -1.6905  0.1009
 5498TIP3    H237986   1.640   6.029   0.516 -0.6046  0.8878  0.9075
 5499TIP3   OH237987   2.492   3.718   0.443  0.3782  0.1879  0.0040
 5499TIP3    H137988   2.478   3.776   0.368  2.1633  1.6529  0.7369
 5499TIP3    H237989   2.587   3.720   0.457  0.6138 -3.3667 -0.2442
 5500TIP3   OH237990   6.263   4.729   0.382  0.2422 -0.3149 -0.2568
 5500TIP3    H137991   6.180   4.725   0.430 -0.3721 -1.0293 -1.3237
 5500TIP3    H237992   6.329   4.750   0.448 -0.7962  0.3017  0.6026
 5501TIP3   OH237993   0.819   2.884  13.493 -0.2183  0.2768 -0.1893
 5501TIP3    H137994   0.823   2.955  13.430  1.4009  0.2088 -0.2140
 5501TIP3    H237995   0.896   2.830  13.473 -0.9509 -1.0249  0.3549
 5502TIP3   OH237996   2.124   2.283  14.257 -0.3279 -0.4456  0.3560
 5502TIP3    H137997   2.211   2.298  14.294  0.2198 -0.7276 -0.7552
 5502TIP3    H237998   2.074   2.361  14.280 -0.1010 -0.7205  1.8791
 5503TIP3   OH237999   6.320   6.795   0.986  0.1035 -0.2617  0.1593
 5503TIP3    H138000   6.323   6.801   1.081  2.6993  0.6348  0.1014
 5503TIP3    H238001   6.399   6.747   0.962 -1.6513 -2.5554 -1.4986
 5504TIP3   OH238002   4.325   6.013   2.123  0.5777 -0.4621 -0.0380
 5504TIP3    H138003   4.405   6.058   2.150 -0.1958  0.0606  1.4551
 5504TIP3    H238004   4.337   5.998   2.029  0.8611  2.8713 -0.6366
 5505TIP3   OH238005   3.612   1.879  13.637 -0.4052 -0.0822 -0.1940
 5505TIP3    H138006   3.627   1.785  13.623 -0.8837  0.2040 -3.3148
 5505TIP3    H238007   3.689   1.921  13.599 -1.4134  0.8548 -1.2398
 5506TIP3   OH238008   0.571   3.416   5.987 -0.1008 -0.5714 -0.4475
 5506TIP3    H138009   0.483   3.414   5.950 -0.4855  0.2422  0.4005
 5506TIP3    H238010   0.597   3.508   5.982 -0.0582 -0.4834  1.0344
 5507TIP3   OH238011   0.693   3.906  16.022  0.5674  0.1276 -0.8775
 5507TIP3    H138012   0.609   3.911  15.976 -0.1757  0.9381  0.5157
 5507TIP3    H238013   0.743   3.841  15.972 -0.6689  0.0298 -2.0606
 5508TIP3   OH238014   6.236   6.503  12.759  0.4119  0.6729  0.1279
 5508TIP3    H138015   6.266   6.548  12.680 -1.0545  0.4461 -0.5845
 5508TIP3    H238016   6.151   6.544  12.779 -1.1559 -1.9337 -0.7475
 5509TIP3   OH238017   5.838   2.126  13.600  0.2855  0.0085 -0.0760
 5509TIP3    H138018   5.909   2.067  13.572 -1.1426 -2.6270  1.4405
 5509TIP3    H238019   5.825   2.185  13.525  2.8242 -0.5551 -1.0927
 5510TIP3   OH238020   6.595   3.804   2.183 -0.3049  0.0961 -0.6180
 5510TIP3    H138021   6.609   3.712   2.162  0.6794 -0.1058  0.7686
 5510TIP3    H238022   6.599   3.808   2.278 -1.1336  1.4605 -0.6113
 5511TIP3   OH238023   2.688   3.828   5.137 -0.0191  0.1866 -0.5703
 5511TIP3    H138024   2.678   3.876   5.054  1.1449  0.6082 -0.4936
 5511TIP3    H238025   2.606   3.843   5.184 -0.5041  0.3434 -1.4458
 5512TIP3   OH238026   2.779   2.890  13.723  0.3636 -0.1040 -0.4032
 5512TIP3    H138027   2.784   2.965  13.664 -0.7496 -0.9939 -1.6961
 5512TIP3    H238028   2.866   2.882  13.761  0.1513  2.6659  0.8467
 5513TIP3   OH238029   2.307   1.671   2.461  0.0220  0.1560 -0.0228
 5513TIP3    H138030   2.275   1.761   2.469  0.5046  0.2012  1.8102
 5513TIP3    H238031   2.323   1.643   2.551  0.3728 -1.5987 -0.5893
 5514TIP3   OH238032   4.568   0.441  13.128 -0.5553 -0.3036  0.2382
 5514TIP3    H138033   4.578   0.408  13.217  3.2692  0.6809  0.3468
 5514TIP3    H238034   4.588   0.366  13.072  0.3351 -0.1309  0.3136
 5515TIP3   OH238035   4.791   5.083  10.647  0.1740  0.0584  0.4695
 5515TIP3    H138036   4.744   5.056  10.569  1.2890  0.2617 -0.2862
 5515TIP3    H238037   4.723   5.093  10.714 -0.9216  0.8270 -0.7180
 5516TIP3   OH238038   2.421   2.251  16.113 -0.6554 -0.3126 -0.4847
 5516TIP3    H138039   2.487   2.312  16.080 -0.6541  0.4228  0.8161
 5516TIP3    H238040   2.413   2.273  16.206 -0.2582 -2.6528  0.1568
 5517TIP3   OH238041   5.768   2.612   5.269  0.5378  0.3541 -0.0379
 5517TIP3    H138042   5.766   2.701   5.304 -0.8707 -0.2093  1.4178
 5517TIP3    H238043   5.852   2.606   5.224  1.6893  1.6971  1.7876
 5518TIP3   OH238044   2.636   5.189   2.784  0.7055  0.2509 -0.4223
 5518TIP3    H138045   2.585   5.111   2.802  0.0721  0.6378 -0.5097
 5518TIP3    H238046   2.582   5.241   2.725 -0.2276  2.0950  1.8582
 5519TIP3   OH238047   5.739   3.312  12.242  0.6147  0.8512 -0.1002
 5519TIP3    H138048   5.701   3.281  12.160  0.7417  3.2224 -1.1300
 5519TIP3    H238049   5.771   3.232  12.285 -1.1954 -0.6820 -1.4004
 5520TIP3   OH238050   3.903   1.965   0.980 -0.2907  0.1416 -0.2325
 5520TIP3    H138051   3.947   1.978   0.896 -2.3984  0.1201 -1.4062
 5520TIP3    H238052   3.954   1.897   1.024  0.7241 -0.0146 -1.6008
 5521TIP3   OH238053   1.416   6.806  10.397 -0.6731  0.8331  0.2222
 5521TIP3    H138054   1.400   6.716  10.424  2.2042  0.0257 -0.4000
 5521TIP3    H238055   1.355   6.821  10.325  0.3462 -1.5107 -1.2489
 5522TIP3   OH238056   2.338   4.012  16.468  0.2570  0.3031 -0.2607
 5522TIP3    H138057   2.283   3.942  16.434 -1.4015  1.3691  0.1116
 5522TIP3    H238058   2.405   3.967  16.520 -0.9326 -0.9872  0.2066
 5523TIP3   OH238059   1.203   0.283   0.876 -0.3341  0.5271 -0.3316
 5523TIP3    H138060   1.218   0.368   0.917  1.3137 -0.1491  0.5799
 5523TIP3    H238061   1.267   0.279   0.805  0.8038 -0.5802  0.6999
 5524TIP3   OH238062   0.994   5.549  14.579  0.1690  0.0716 -0.1344
 5524TIP3    H138063   1.061   5.609  14.611  0.1056 -1.4672  3.3085
 5524TIP3    H238064   1.011   5.541  14.485  1.7414  3.3955 -0.2496
 5525TIP3   OH238065   4.687   2.631   5.850  0.3581 -0.1630  1.0216
 5525TIP3    H138066   4.771   2.674   5.864 -0.0534  1.6709 -1.4445
 5525TIP3    H238067   4.707   2.555   5.795  0.4603  0.0272  0.7948
 5526TIP3   OH238068   1.479   0.895  15.195  0.2132  0.5615 -0.0858
 5526TIP3    H138069   1.574   0.884  15.202  0.1722  0.4983  0.3797
 5526TIP3    H238070   1.465   0.990  15.205  0.2858  0.6614 -0.8701
 5527TIP3   OH238071   6.605   2.206   3.496 -0.1800  0.0441  0.5092
 5527TIP3    H138072   6.543   2.277   3.513  0.0022  0.0780  1.0490
 5527TIP3    H238073   6.691   2.247   3.505 -0.0278 -0.6396  2.7504
 5528TIP3   OH238074   6.068   0.707   3.665 -0.2024  0.0909 -0.2490
 5528TIP3    H138075   6.009   0.633   3.679  1.0439 -0.4531  3.0544
 5528TIP3    H238076   6.052   0.764   3.741  2.1237  0.8721 -0.2826
 5529TIP3   OH238077   3.455   6.126  12.931 -0.1800  0.4982 -0.3102
 5529TIP3    H138078   3.438   6.185  12.858  0.3776  0.5467 -0.4041
 5529TIP3    H238079   3.380   6.066  12.932 -0.5476  0.9513 -0.4653
 5530TIP3   OH238080   0.855   6.699  14.275 -0.8147  0.2896  0.2194
 5530TIP3    H138081   0.873   6.660  14.189 -1.2709  1.6869 -0.5287
 5530TIP3    H238082   0.861   6.625  14.335  0.4361 -0.5581 -0.8776
 5531TIP3   OH238083   3.975   0.738   4.778 -0.2979 -0.5629 -0.0869
 5531TIP3    H138084   3.975   0.763   4.871 -1.6323 -0.0634 -0.2135
 5531TIP3    H238085   4.034   0.801   4.737  2.3836 -2.2980  0.7535
 5532TIP3   OH238086   1.448   4.964  15.316  0.1925  0.1139 -0.0667
 5532TIP3    H138087   1.358   4.993  15.328 -0.2523 -0.0702 -2.4479
 5532TIP3    H238088   1.495   5.043  15.288  0.4829 -0.0588 -0.0742
 5533TIP3   OH238089   5.954   1.485   5.996  0.1589 -0.1789 -0.4527
 5533TIP3    H138090   5.911   1.403   6.022 -0.3795  0.8552  2.2526
 5533TIP3    H238091   6.047   1.470   6.011 -0.0410  0.0127  1.1238
 5534TIP3   OH238092   3.896   3.573   5.492  0.1515 -0.1377  0.2974
 5534TIP3    H138093   3.822   3.634   5.500  2.0232  2.6426 -1.6163
 5534TIP3    H238094   3.936   3.572   5.579 -0.0613  1.2615  0.4306
 5535TIP3   OH238095   0.852   3.876   5.601  0.0295  0.9375  0.5224
 5535TIP3    H138096   0.927   3.816   5.597  1.3340  2.5073  0.1697
 5535TIP3    H238097   0.837   3.902   5.510  0.4504  2.2222  0.7882
 5536TIP3   OH238098   6.453   1.871   0.110 -0.2413 -0.1949 -0.2220
 5536TIP3    H138099   6.366   1.848   0.078 -0.6420  2.2635 -1.0660
 5536TIP3    H238100   6.511   1.858   0.034 -0.0520 -0.6521 -0.0075
 5537TIP3   OH238101   1.010   0.970   0.144 -0.1218  0.7099  0.3565
 5537TIP3    H138102   0.961   0.928   0.214 -0.5048  2.3008  1.0926
 5537TIP3    H238103   1.098   0.932   0.150 -0.8670 -1.2155 -0.1524
 5538TIP3   OH238104   5.292   3.325  13.792  0.5344 -0.4923 -0.1329
 5538TIP3    H138105   5.287   3.419  13.813 -1.7885 -0.2533 -1.4606
 5538TIP3    H238106   5.264   3.281  13.873 -1.5716  0.1401 -0.4553
 5539TIP3   OH238107   1.538   1.087  14.635 -0.2011 -0.1952  0.0324
 5539TIP3    H138108   1.548   1.046  14.549  0.4051 -0.3009  0.1477
 5539TIP3    H238109   1.560   1.179  14.621  0.2981 -0.2959  0.1575
 5540TIP3   OH238110   3.174   0.330   6.096  0.0121  0.0493 -0.2678
 5540TIP3    H138111   3.229   0.307   6.171 -0.1640 -0.2598 -0.2322
 5540TIP3    H238112   3.142   0.418   6.115  2.0785  1.0700 -1.2026
 5541TIP3   OH238113   5.143   3.166   6.035 -0.4441 -1.0748  0.1943
 5541TIP3    H138114   5.102   3.080   6.029 -0.0105 -1.4032  1.6078
 5541TIP3    H238115   5.199   3.160   6.112 -0.2077  0.3971  0.1555
 5542TIP3   OH238116   4.698   2.828   1.537 -0.1572 -0.4572 -0.2235
 5542TIP3    H138117   4.606   2.848   1.518 -0.4437 -3.3591 -2.5447
 5542TIP3    H238118   4.745   2.859   1.460  0.4974 -1.1136 -0.0894
 5543TIP3   OH238119   4.916   3.536  13.982  0.1477  0.4614  0.3313
 5543TIP3    H138120   4.828   3.539  14.020 -0.1176  0.0193 -0.2296
 5543TIP3    H238121   4.904   3.493  13.897  0.8391  0.7995  0.0562
 5544TIP3   OH238122   6.155   3.084  14.583  0.1320 -0.2485  0.2755
 5544TIP3    H138123   6.115   3.002  14.613  0.3115 -0.5999 -0.4090
 5544TIP3    H238124   6.117   3.098  14.496  1.5702 -0.6692 -0.4552
 5545TIP3   OH238125   1.334   4.003   2.048  0.1604 -0.1966  0.3974
 5545TIP3    H138126   1.334   4.040   2.136  0.6720  1.0744 -0.1084
 5545TIP3    H238127   1.408   4.046   2.004 -0.1121 -0.7804 -0.6647
 5546TIP3   OH238128   4.416   4.354  17.024 -0.3318  0.6324  0.1414
 5546TIP3    H138129   4.379   4.322  17.106  1.2183 -0.4505  0.4657
 5546TIP3    H238130   4.394   4.288  16.960  0.3293  0.3806  0.1665
 5547TIP3   OH238131   3.678   6.319   0.692  0.3697  0.3607 -0.6398
 5547TIP3    H138132   3.756   6.275   0.658 -0.3066 -0.8646 -0.6689
 5547TIP3    H238133   3.694   6.412   0.677  1.9273  0.1521 -0.4184
 5548TIP3   OH238134   3.003   3.699   4.342 -0.2408 -0.2500 -0.1634
 5548TIP3    H138135   2.963   3.624   4.297  0.0940  1.0545 -2.7920
 5548TIP3    H238136   2.937   3.768   4.336  0.4328  0.4135 -0.0288
 5549TIP3   OH238137   1.590   4.861  12.069  0.2364 -0.0554 -0.0861
 5549TIP3    H138138   1.560   4.783  12.023  0.7714 -0.4555  0.2298
 5549TIP3    H238139   1.685   4.849  12.077  0.3357  0.6607 -0.0958
 5550TIP3   OH238140   0.144   5.179   3.364 -0.0117 -0.1200 -0.0060
 5550TIP3    H138141   0.113   5.265   3.333 -0.8687 -1.0383 -1.8521
 5550TIP3    H238142   0.186   5.198   3.448 -0.4877  2.0541 -0.1896
 5551TIP3   OH238143   3.903   1.644  10.795 -0.2324  0.1974 -0.0949
 5551TIP3    H138144   3.958   1.572  10.764 -0.3453 -0.2044  0.5948
 5551TIP3    H238145   3.834   1.651  10.730 -0.1773 -0.2765 -0.2103
 5552TIP3   OH238146   2.977   6.859   5.127  0.0100  0.4373 -0.2884
 5552TIP3    H138147   2.943   6.895   5.209  0.0973 -0.7203  0.2756
 5552TIP3    H238148   3.051   6.804   5.153 -0.9063 -1.1893 -0.9618
 5553TIP3   OH238149   2.297   0.032   2.285  0.5299  0.6608  0.4310
 5553TIP3    H138150   2.259   0.085   2.216 -1.6223 -0.4989  0.6651
 5553TIP3    H238151   2.301  -0.056   2.249  1.2437  0.4001  1.1036
 5554TIP3   OH238152   4.645   1.844   0.317 -0.5524  0.3121 -0.0428
 5554TIP3    H138153   4.667   1.751   0.324 -0.0519  0.4956  0.9697
 5554TIP3    H238154   4.726   1.890   0.341  0.2686  1.0680 -3.6365
 5555TIP3   OH238155   0.858   6.312  13.617 -0.4226 -0.2768 -0.0578
 5555TIP3    H138156   0.861   6.407  13.632 -0.3513 -0.2181 -0.4384
 5555TIP3    H238157   0.943   6.291  13.580  0.6044 -0.9255  2.4395
 5556TIP3   OH238158   1.520   3.724  12.261  0.2807  0.0025 -0.3716
 5556TIP3    H138159   1.485   3.802  12.219  2.1696  1.1099  0.0024
 5556TIP3    H238160   1.528   3.660  12.190 -0.2027  0.5266 -0.9088
 5557TIP3   OH238161   1.460   1.133   4.059  0.3337  0.2373 -0.0899
 5557TIP3    H138162   1.532   1.131   3.996  0.6375 -0.2213  0.2628
 5557TIP3    H238163   1.427   1.044   4.061 -1.4056  0.7834 -1.5327
 5558TIP3   OH238164   6.761   5.925  16.921 -0.0890  0.5623  0.1485
 5558TIP3    H138165   6.781   5.832  16.914 -0.8561  0.1706  2.2349
 5558TIP3    H238166   6.700   5.943  16.850 -0.7171 -0.7835  0.3213
 5559TIP3   OH238167   1.158   1.651  15.933  0.1542 -0.2140 -0.6725
 5559TIP3    H138168   1.200   1.725  15.976 -1.1535  2.2098 -3.1666
 5559TIP3    H238169   1.172   1.577  15.991  2.3184  1.7868  1.5684
 5560TIP3   OH238170   1.835   1.443   4.018 -0.0521 -0.1118 -0.7316
 5560TIP3    H138171   1.777   1.390   4.072 -0.0505  0.6546  0.0494
 5560TIP3    H238172   1.777   1.485   3.954 -0.3048  0.3058 -0.2351
 5561TIP3   OH238173   2.713   0.853  12.016 -0.0331  0.0642 -0.2596
 5561TIP3    H138174   2.686   0.834  12.105  1.7835  1.1716  0.5890
 5561TIP3    H238175   2.694   0.773  11.967 -2.4662 -0.0498  0.7285
 5562TIP3   OH238176   6.205   3.695  13.164  0.8026 -0.2781 -0.1297
 5562TIP3    H138177   6.126   3.643  13.148 -0.4575  1.2228  0.8600
 5562TIP3    H238178   6.252   3.646  13.232 -1.3099  0.6673  2.2000
 5563TIP3   OH238179   1.110   0.460  11.552  0.3788  0.0548  0.3361
 5563TIP3    H138180   1.044   0.443  11.484 -0.4193  2.4233  0.4229
 5563TIP3    H238181   1.060   0.466  11.633  1.2925 -2.4321  1.1704
 5564TIP3   OH238182   5.989   2.423  11.678  0.0766  0.1657 -0.3920
 5564TIP3    H138183   5.945   2.356  11.730 -0.0307 -0.0090 -0.7015
 5564TIP3    H238184   5.928   2.443  11.607  0.3460  0.1750 -0.6265
 5565TIP3   OH238185   3.518   4.635  15.242 -0.3349  0.4764  0.0935
 5565TIP3    H138186   3.544   4.724  15.218 -0.6703  0.6293  0.2970
 5565TIP3    H238187   3.596   4.598  15.283 -0.1832  0.6661 -0.0178
 5566TIP3   OH238188   6.243   5.153   4.323 -0.7289  0.0557  0.4671
 5566TIP3    H138189   6.302   5.229   4.323 -0.9947  0.2872  1.5412
 5566TIP3    H238190   6.263   5.107   4.405 -3.0811  1.0176  1.7157
 5567TIP3   OH238191   4.605   1.645  12.748  0.5154  0.0668  0.0117
 5567TIP3    H138192   4.570   1.679  12.666  1.6170  0.3293 -0.3765
 5567TIP3    H238193   4.535   1.657  12.811  0.6231  2.5320 -0.2368
 5568TIP3   OH238194   2.199   6.713   0.162 -0.0139  0.0223 -0.2813
 5568TIP3    H138195   2.212   6.805   0.184  0.7810  0.1754 -1.3307
 5568TIP3    H238196   2.150   6.677   0.236 -1.0832  1.4777 -0.2519
 5569TIP3   OH238197   0.525   1.379   3.765  0.3487  0.2827 -0.5785
 5569TIP3    H138198   0.549   1.290   3.736 -1.1806 -0.4708  0.3524
 5569TIP3    H238199   0.462   1.365   3.835  2.4617  2.0400  1.8945
 5570TIP3   OH238200   2.501   0.019   0.009  0.9896  0.1290  0.3546
 5570TIP3    H138201   2.536   0.091  -0.043 -0.6266  0.2355 -0.6773
 5570TIP3    H238202   2.496  -0.054  -0.052 -0.0005 -0.0408  0.6261
 5571TIP3   OH238203   4.360   3.410   4.688  0.3041 -0.0233  0.5202
 5571TIP3    H138204   4.309   3.490   4.673 -0.9888 -1.1374 -1.6427
 5571TIP3    H238205   4.310   3.362   4.754  0.9651  0.8172  1.6611
 5572TIP3   OH238206   1.715   3.294   5.010  0.2968  0.2333  0.1078
 5572TIP3    H138207   1.699   3.387   4.997 -1.8217 -0.2466 -1.0704
 5572TIP3    H238208   1.805   3.281   4.979 -0.2970  1.4274 -2.3284
 5573TIP3   OH238209   4.547   6.017  12.586  0.6363  0.2998 -0.0643
 5573TIP3    H138210   4.490   5.978  12.520 -0.6642  1.3313  0.3889
 5573TIP3    H238211   4.567   6.104  12.552 -0.8176  1.2180  1.2337
 5574TIP3   OH238212   5.477   3.189   5.237 -0.3822 -0.4985 -0.1154
 5574TIP3    H138213   5.412   3.198   5.307 -0.3653 -0.2406 -0.1315
 5574TIP3    H238214   5.537   3.262   5.250  0.3483 -1.1624  0.3543
 5575TIP3   OH238215   1.837   5.621  12.487 -0.3618  0.9305 -0.1454
 5575TIP3    H138216   1.841   5.607  12.392 -2.6230 -3.2713  0.1294
 5575TIP3    H238217   1.891   5.551  12.523 -0.2408  1.9341  1.7185
 5576TIP3   OH238218   3.171   4.398   1.484 -0.4403  0.6377 -0.6001
 5576TIP3    H138219   3.163   4.406   1.579  1.7908  1.0731 -0.4067
 5576TIP3    H238220   3.169   4.489   1.453  2.9730  0.8708 -0.4981
 5577TIP3   OH238221   5.710   4.651   3.772  0.3381 -0.1334  0.0702
 5577TIP3    H138222   5.685   4.744   3.778  1.2049  0.0535  0.8821
 5577TIP3    H238223   5.633   4.609   3.734 -0.1597  0.8784 -0.0893
 5578TIP3   OH238224   1.731   0.869   0.822 -0.7670  0.0941  0.6013
 5578TIP3    H138225   1.647   0.853   0.865 -1.3607  1.0148 -0.1903
 5578TIP3    H238226   1.709   0.908   0.738  0.4495  0.1022  0.2596
 5579TIP3   OH238227   0.688   4.776  11.712 -0.0970 -0.7886  0.1360
 5579TIP3    H138228   0.749   4.835  11.668 -1.2947  0.3813  0.0101
 5579TIP3    H238229   0.726   4.764  11.799  1.2485 -1.5416 -0.5229
 5580TIP3   OH238230   4.752   5.992   1.891  0.2096 -0.1327 -0.2325
 5580TIP3    H138231   4.697   5.951   1.957 -1.4283  0.5534 -1.1183
 5580TIP3    H238232   4.719   5.959   1.808  1.1055  0.3331 -0.7855
 5581TIP3   OH238233   1.749   5.569   2.382 -0.8917 -0.4839  0.5283
 5581TIP3    H138234   1.712   5.648   2.423  0.2204 -0.2463  1.1220
 5581TIP3    H238235   1.716   5.497   2.436 -0.3578 -0.2582  1.1790
 5582TIP3   OH238236   0.411   5.462   5.273  0.1412 -0.0726 -0.0578
 5582TIP3    H138237   0.438   5.403   5.202 -0.7596 -0.7836  0.1652
 5582TIP3    H238238   0.434   5.415   5.353 -1.3898 -0.5618  0.1350
 5583TIP3   OH238239   6.077   0.182  13.339  0.0054 -0.4822 -0.5039
 5583TIP3    H138240   6.163   0.145  13.319 -0.8810 -2.3868 -1.0314
 5583TIP3    H238241   6.024   0.163  13.262 -1.1658 -0.3073  0.2308
 5584TIP3   OH238242   0.371   2.303   1.874 -0.0366  0.3434  0.0694
 5584TIP3    H138243   0.374   2.309   1.969  1.0025  0.0767  0.0642
 5584TIP3    H238244   0.454   2.341   1.844 -0.5846  0.9303 -0.7626
 5585TIP3   OH238245   2.933   6.028   2.324 -0.1040 -0.1711 -0.2327
 5585TIP3    H138246   2.949   5.981   2.242 -2.9699  2.4814 -2.5647
 5585TIP3    H238247   2.851   5.991   2.358  1.0490 -1.2400  1.5544
 5586TIP3   OH238248   2.760   6.658   5.594  0.5188  0.2694  0.0662
 5586TIP3    H138249   2.721   6.591   5.650  2.0124 -0.6077  0.0875
 5586TIP3    H238250   2.793   6.724   5.655 -2.7543  2.1923  0.0206
 5587TIP3   OH238251   5.649   2.601  12.643 -0.5970 -0.1955 -0.0612
 5587TIP3    H138252   5.635   2.518  12.597 -2.8873  1.1032 -1.9356
 5587TIP3    H238253   5.592   2.596  12.719  1.0688 -1.2240  1.1759
 5588TIP3   OH238254   5.358   4.633   2.280 -0.6067 -0.3156 -0.0008
 5588TIP3    H138255   5.363   4.729   2.283 -0.3270 -0.2849 -1.1645
 5588TIP3    H238256   5.312   4.614   2.199  0.9965 -1.2051 -0.7271
 5589TIP3   OH238257   3.125   3.958   0.488 -0.7914 -0.4286 -0.0469
 5589TIP3    H138258   3.131   3.877   0.539  0.1854  0.7642  1.8579
 5589TIP3    H238259   3.052   4.005   0.527 -0.4950  0.1794 -0.2190
 5590TIP3   OH238260   5.535   2.847   3.107 -0.0999 -0.3823  0.0043
 5590TIP3    H138261   5.611   2.810   3.152  0.6527  1.1334  0.0308
 5590TIP3    H238262   5.562   2.854   3.016 -0.1055  0.4188  0.0630
 5591TIP3   OH238263   6.293   4.544  16.165 -0.1357  0.0623  0.1900
 5591TIP3    H138264   6.291   4.450  16.148 -0.1877 -0.0062  0.5823
 5591TIP3    H238265   6.383   4.561  16.195  0.3532  0.3936 -1.3484
 5592TIP3   OH238266   4.080   2.741  11.322 -0.1480 -0.0070 -0.3815
 5592TIP3    H138267   4.079   2.807  11.253  0.6412  0.2560 -0.1522
 5592TIP3    H238268   3.995   2.751  11.365 -0.9015 -0.5794 -1.6713
 5593TIP3   OH238269   5.532   4.681  11.911  0.6259  0.2115  0.2045
 5593TIP3    H138270   5.479   4.669  11.832 -0.9703  0.5476  1.1867
 5593TIP3    H238271   5.476   4.650  11.982  1.7958  0.5035  1.2781
 5594TIP3   OH238272   4.618   3.610  13.407  0.4068 -0.8266 -0.6390
 5594TIP3    H138273   4.527   3.619  13.377  0.2713  1.7853  0.3953
 5594TIP3    H238274   4.668   3.670  13.352  1.0084 -0.0040  0.7507
 5595TIP3   OH238275   4.523   4.606  12.679  0.1011 -0.3827  0.0858
 5595TIP3    H138276   4.575   4.540  12.724 -1.0049 -2.1936 -1.1423
 5595TIP3    H238277   4.433   4.573  12.685 -0.2903  0.1889 -1.8654
 5596TIP3   OH238278   2.215   1.313  15.405 -0.3641  0.2174 -0.2705
 5596TIP3    H138279   2.297   1.333  15.450  0.2007 -0.8545 -0.7820
 5596TIP3    H238280   2.174   1.398  15.391  0.6152  0.7637  0.0870
 5597TIP3   OH238281   0.184   0.218  10.094 -0.0990  0.6663  0.7537
 5597TIP3    H138282   0.195   0.185  10.182  0.0193  1.2119  0.9473
 5597TIP3    H238283   0.091   0.242  10.089 -0.5300 -1.0205  0.1417
 5598TIP3   OH238284   6.243   6.245  13.497 -0.0939 -0.7620  0.1799
 5598TIP3    H138285   6.148   6.256  13.495 -0.1063 -0.8113  0.6006
 5598TIP3    H238286   6.266   6.239  13.589  0.2368 -1.4777  0.0629
 5599TIP3   OH238287   0.884   5.778  11.232  0.0925  0.1381 -0.6489
 5599TIP3    H138288   0.895   5.734  11.148  0.8759  4.3676 -3.0883
 5599TIP3    H238289   0.970   5.772  11.274  0.8543  1.1003 -1.9876
 5600TIP3   OH238290   2.852   5.189   5.035  0.3350 -0.2387  0.4106
 5600TIP3    H138291   2.762   5.204   5.007  0.1101 -1.4369  0.4072
 5600TIP3    H238292   2.905   5.243   4.977 -0.0454 -3.1193 -2.9388
 5601TIP3   OH238293   4.472   2.867   2.053  0.3001  0.2519 -0.8140
 5601TIP3    H138294   4.531   2.802   2.091 -0.0578  0.9188  0.9587
 5601TIP3    H238295   4.390   2.820   2.041 -0.0877  0.4508  0.8739
 5602TIP3   OH238296   1.461   0.830  10.686  0.0680  0.2495  1.2662
 5602TIP3    H138297   1.420   0.802  10.605 -0.1809  0.8876  1.1659
 5602TIP3    H238298   1.421   0.915  10.706  1.0930  0.7372  1.3340
 5603TIP3   OH238299   3.944   6.286   4.790  0.0382  0.3860 -0.0288
 5603TIP3    H138300   3.970   6.323   4.705  0.6218 -2.4314 -1.1684
 5603TIP3    H238301   3.978   6.197   4.789 -2.3220 -0.6418  2.0353
 5604TIP3   OH238302   5.647   2.805  13.097 -0.4376 -0.0001 -0.1387
 5604TIP3    H138303   5.559   2.833  13.073 -0.6964  0.5971  1.3867
 5604TIP3    H238304   5.690   2.885  13.127 -0.1456 -0.6642  1.2999
 5605TIP3   OH238305   6.302   4.986   4.542  0.0995 -0.1197 -0.2983
 5605TIP3    H138306   6.361   4.911   4.532  0.6584  0.0873  1.1120
 5605TIP3    H238307   6.350   5.046   4.599 -1.7693 -0.2605  1.5296
 5606TIP3   OH238308   5.147   5.932  10.108  0.0139  0.0215  0.3647
 5606TIP3    H138309   5.117   6.009  10.060 -1.5715 -0.9915 -0.3542
 5606TIP3    H238310   5.125   5.858  10.051  1.6032 -0.9748  0.9807
 5607TIP3   OH238311   3.572   1.178   6.361  0.1152 -0.2123  0.0868
 5607TIP3    H138312   3.658   1.201   6.395  0.2068 -1.3871  0.6948
 5607TIP3    H238313   3.512   1.238   6.406  0.4729 -0.3059  0.7039
 5608TIP3   OH238314   0.385   0.936  11.772  0.3920  0.3104  0.0209
 5608TIP3    H138315   0.413   0.860  11.823  1.9854  1.1647  0.5078
 5608TIP3    H238316   0.379   0.903  11.682  0.0881 -0.6098  0.3617
 5609TIP3   OH238317   6.846   5.516   5.268 -0.5199  0.4721  0.0983
 5609TIP3    H138318   6.840   5.610   5.284  0.6636  0.3481  1.5266
 5609TIP3    H238319   6.899   5.509   5.188 -1.5305  1.0265 -0.6313
 5610TIP3   OH238320   0.621   4.234   3.608  0.0506 -0.0133 -0.2047
 5610TIP3    H138321   0.643   4.326   3.592  0.4540 -0.1977 -0.7398
 5610TIP3    H238322   0.526   4.233   3.615 -0.0695  0.2639 -1.4905
 5611TIP3   OH238323   3.624   1.727  11.848  0.2987  0.5032 -0.1832
 5611TIP3    H138324   3.703   1.780  11.856 -0.2052  1.3923 -0.8824
 5611TIP3    H238325   3.644   1.665  11.778  0.3150  0.8657 -0.5045
 5612TIP3   OH238326   5.482   4.757  14.615 -0.4000 -0.4825 -0.3906
 5612TIP3    H138327   5.570   4.731  14.586 -0.2488  2.3318 -2.9960
 5612TIP3    H238328   5.462   4.698  14.687  3.7840 -0.9925  0.6000
 5613TIP3   OH238329   5.329   1.843  14.369  0.1557  0.4860  0.5518
 5613TIP3    H138330   5.294   1.891  14.444  1.8625  2.5139  0.1345
 5613TIP3    H238331   5.257   1.843  14.305 -1.1597 -0.8835  1.9209
 5614TIP3   OH238332   3.256   2.153   4.950  0.2820  0.0625  0.2859
 5614TIP3    H138333   3.311   2.077   4.930  1.4654  1.4517 -2.2234
 5614TIP3    H238334   3.303   2.199   5.019  0.4848 -0.5418  0.5582
 5615TIP3   OH238335   5.243   1.921   5.728  0.4486  0.2741  0.4763
 5615TIP3    H138336   5.259   1.930   5.822  1.3547 -1.6914  0.5521
 5615TIP3    H238337   5.186   1.845   5.721  1.3114 -0.2909 -0.6249
 5616TIP3   OH238338   0.363   2.774  16.826  0.2725 -0.1345 -0.3228
 5616TIP3    H138339   0.407   2.852  16.859  0.1620 -0.6266  1.0713
 5616TIP3    H238340   0.282   2.806  16.787  0.6853  0.5353 -0.6267
 5617TIP3   OH238341   6.754   4.786  15.962  0.1780  0.2360 -0.1414
 5617TIP3    H138342   6.710   4.704  15.936 -0.8815  0.3963  1.0201
 5617TIP3    H238343   6.835   4.757  16.005  0.3721 -0.1543 -0.7633
 5618TIP3   OH238344   3.019   3.601  13.822  0.6271  0.5712 -0.5521
 5618TIP3    H138345   3.006   3.506  13.821  1.2575  0.4753 -0.1451
 5618TIP3    H238346   3.101   3.614  13.870  1.1466  1.2541 -1.5784
 5619TIP3   OH238347   2.698   6.027  14.518 -0.1330  0.1987  0.6660
 5619TIP3    H138348   2.745   5.953  14.557  1.0267  0.8261  0.5154
 5619TIP3    H238349   2.715   6.100  14.578 -1.4375  0.3163  0.9246
 5620TIP3   OH238350   3.447   0.273  10.806  0.0026 -0.3661 -0.0467
 5620TIP3    H138351   3.365   0.271  10.757  0.1657 -1.8768 -0.3317
 5620TIP3    H238352   3.478   0.182  10.803  1.4724  0.0907  0.4081
 5621TIP3   OH238353   2.794   6.294  11.858 -0.7152  0.0938  0.0684
 5621TIP3    H138354   2.825   6.211  11.823 -4.3427 -2.0939  1.5403
 5621TIP3    H238355   2.846   6.308  11.937  0.8127 -0.0175 -0.8746
 5622TIP3   OH238356   1.377   0.135  14.242 -0.2060  0.6506 -0.4763
 5622TIP3    H138357   1.451   0.076  14.254 -0.6134  0.1263 -0.5040
 5622TIP3    H238358   1.388   0.201  14.310  0.3407  0.6319 -0.5433
 5623TIP3   OH238359   3.350   1.767   4.715  0.1866 -0.0267 -0.4306
 5623TIP3    H138360   3.356   1.857   4.750  0.2209 -0.3764  0.5069
 5623TIP3    H238361   3.377   1.775   4.624  1.1726  0.7625 -0.0952
 5624TIP3   OH238362   0.967   6.524   3.864  0.1530 -0.1170  0.4080
 5624TIP3    H138363   0.907   6.471   3.917  1.3952 -0.3374  1.6384
 5624TIP3    H238364   0.967   6.481   3.779 -1.3169 -0.1905  0.4141
 5625TIP3   OH238365   5.010   6.697  14.386  0.2741 -0.4451  0.7167
 5625TIP3    H138366   4.925   6.736  14.365  1.1678  2.3337  1.8128
 5625TIP3    H238367   5.071   6.741  14.326  1.1218 -1.4947  0.7846
 5626TIP3   OH238368   4.519   6.595   5.555 -0.6270 -0.5079  0.6594
 5626TIP3    H138369   4.600   6.641   5.576  0.1308 -1.8457  0.8052
 5626TIP3    H238370   4.450   6.650   5.592  0.1324  1.0217 -0.0801
 5627TIP3   OH238371   2.646   2.240  11.557  1.0229 -0.3786 -0.0860
 5627TIP3    H138372   2.702   2.163  11.554  0.9035 -0.4754  0.1979
 5627TIP3    H238373   2.621   2.255  11.466  0.0069 -1.4310  0.0066
 5628TIP3   OH238374   2.146   5.113   2.736  0.0980  0.4437  0.2063
 5628TIP3    H138375   2.088   5.061   2.680  1.9544 -2.3555  0.6924
 5628TIP3    H238376   2.086   5.166   2.788 -1.7693  1.8425 -3.0607
 5629TIP3   OH238377   4.652   2.267   5.176 -0.1579 -0.4261  0.3004
 5629TIP3    H138378   4.597   2.220   5.115 -0.0430  1.5605 -1.4437
 5629TIP3    H238379   4.741   2.255   5.142 -0.1552  1.2066 -0.3465
 5630TIP3   OH238380   0.770   0.118   5.570 -0.1516  1.1393 -0.1031
 5630TIP3    H138381   0.814   0.097   5.653 -1.2365  0.8078  0.4119
 5630TIP3    H238382   0.682   0.144   5.597 -0.7226  0.3918 -1.2050
 5631TIP3   OH238383   0.682   3.234   3.225 -0.0151 -0.5657  0.5054
 5631TIP3    H138384   0.597   3.275   3.208  0.3202  0.5968  1.5134
 5631TIP3    H238385   0.672   3.145   3.192 -1.1417 -0.0265 -0.7361
 5632TIP3   OH238386   1.890   5.602  16.425 -0.1781  0.2725  0.2088
 5632TIP3    H138387   1.840   5.548  16.363 -1.0893  0.0745  1.0835
 5632TIP3    H238388   1.823   5.641  16.481  0.6811 -0.2367  1.6233
 5633TIP3   OH238389   2.403   2.786   4.757  0.3925 -0.2006 -0.3528
 5633TIP3    H138390   2.475   2.723   4.766 -0.5650 -1.2752  0.0299
 5633TIP3    H238391   2.345   2.767   4.831 -0.4664  0.4158 -0.8548
 5634TIP3   OH238392   2.739   5.129  13.500  0.4097  0.1652 -0.6299
 5634TIP3    H138393   2.659   5.168  13.535  1.8414  1.4319  1.4731
 5634TIP3    H238394   2.745   5.044  13.544  1.0066  0.7755  0.5378
 5635TIP3   OH238395   2.772   5.153  16.443  0.5102 -0.6890  0.1750
 5635TIP3    H138396   2.703   5.212  16.413  0.8701 -0.2093  0.2781
 5635TIP3    H238397   2.778   5.169  16.538 -0.4857 -2.0526  0.4873
 5636TIP3   OH238398   0.955   1.581  15.023  0.0422 -0.5561 -0.2343
 5636TIP3    H138399   0.998   1.500  15.048  0.0441 -0.7550 -0.8762
 5636TIP3    H238400   0.944   1.629  15.106  2.6384  0.0884 -0.1882
 5637TIP3   OH238401   6.344   2.088  12.584 -0.3671 -0.0851  0.2403
 5637TIP3    H138402   6.331   1.999  12.618  1.2246  0.4423  2.4473
 5637TIP3    H238403   6.256   2.118  12.562 -0.9072 -2.3135 -0.9769
 5638TIP3   OH238404   3.420   3.000  11.919  0.2358 -0.4562  0.3803
 5638TIP3    H138405   3.437   2.987  11.826  1.0147  0.9844  0.2996
 5638TIP3    H238406   3.452   2.920  11.961  1.6224 -0.3484 -0.4182
 5639TIP3   OH238407   3.914   1.893  10.876 -0.5515 -0.0356  0.3856
 5639TIP3    H138408   3.963   1.898  10.958  2.6707 -0.0861 -1.3847
 5639TIP3    H238409   3.922   1.802  10.849 -3.9168 -0.7081  1.1901
 5640TIP3   OH238410   0.658   6.523  13.241  0.0602 -0.0917  0.3011
 5640TIP3    H138411   0.700   6.437  13.240  0.3167  0.0311 -0.7565
 5640TIP3    H238412   0.690   6.564  13.322 -0.3564 -1.1105  1.0075
 5641TIP3   OH238413   4.236   3.205   3.785 -0.6641  0.0834  0.1926
 5641TIP3    H138414   4.232   3.232   3.693  0.3922  1.0813  0.4099
 5641TIP3    H238415   4.246   3.110   3.782 -0.0894  0.1615 -0.7530
 5642TIP3   OH238416   0.579   2.333  15.244  0.3928  0.1297 -0.2517
 5642TIP3    H138417   0.573   2.261  15.307  0.3728 -0.1746 -0.6026
 5642TIP3    H238418   0.646   2.306  15.182 -0.8798 -0.4013 -1.4293
 5643TIP3   OH238419   5.943   6.564   5.295  0.1025 -0.2073  0.6049
 5643TIP3    H138420   5.984   6.527   5.217 -1.7378 -0.6579 -0.2078
 5643TIP3    H238421   5.990   6.523   5.368  1.6530 -0.0102 -0.2404
 5644TIP3   OH238422   5.994   2.217  16.878 -0.0891  0.6376 -0.4058
 5644TIP3    H138423   5.906   2.251  16.869 -0.3390  0.1790  0.2213
 5644TIP3    H238424   6.005   2.156  16.804 -0.6481 -0.0317  0.0477
 5645TIP3   OH238425   4.732   6.531  12.709 -0.1196 -0.3949 -0.4412
 5645TIP3    H138426   4.688   6.470  12.768 -0.1852  0.3835  0.3363
 5645TIP3    H238427   4.665   6.554  12.644 -0.2075 -0.8477 -0.5149
 5646TIP3   OH238428   3.068   2.559   3.462  1.0896  0.4187 -0.4083
 5646TIP3    H138429   3.095   2.545   3.371  1.2423 -0.9510 -0.1762
 5646TIP3    H238430   3.116   2.493   3.512 -0.4245 -0.1249  0.4063
 5647TIP3   OH238431   3.279   6.107  15.525  0.1682 -0.1342 -0.4207
 5647TIP3    H138432   3.365   6.073  15.499 -1.1452 -2.0441 -2.7106
 5647TIP3    H238433   3.267   6.184  15.470 -0.3437 -1.0228 -1.6078
 5648TIP3   OH238434   5.961   0.278  10.918  0.0031  0.3333 -0.1115
 5648TIP3    H138435   5.877   0.297  10.875  0.9541 -1.1828 -2.9060
 5648TIP3    H238436   6.027   0.311  10.857  1.4427 -0.7052  0.8236
 5649TIP3   OH238437   5.421   2.408   1.970  0.3628 -0.1448  0.0353
 5649TIP3    H138438   5.445   2.354   1.895  1.6819  0.1371  0.2181
 5649TIP3    H238439   5.462   2.364   2.045 -0.3772 -0.0600  0.4943
 5650TIP3   OH238440   4.001   3.869   2.285 -1.1238 -0.1752  0.1505
 5650TIP3    H138441   4.068   3.835   2.344  0.5449  1.3215 -0.7951
 5650TIP3    H238442   4.028   3.958   2.266 -2.8448  0.1383 -1.0965
 5651TIP3   OH238443   3.790   3.598  12.646  0.2578  0.2269 -0.5937
 5651TIP3    H138444   3.754   3.610  12.558  3.3771 -1.8904 -2.4173
 5651TIP3    H238445   3.745   3.520  12.680  0.8599 -0.5745 -1.5499
 5652TIP3   OH238446   6.200   2.688  10.366  0.1827  0.1502 -0.7158
 5652TIP3    H138447   6.196   2.781  10.387  0.3103 -0.5489  3.1539
 5652TIP3    H238448   6.116   2.653  10.397  1.4427 -1.4621  1.1290
 5653TIP3   OH238449   2.169   3.586  14.215  0.2919 -0.6739  0.0071
 5653TIP3    H138450   2.240   3.522  14.213  0.6617 -0.3471  1.6878
 5653TIP3    H238451   2.107   3.554  14.148  0.9425 -2.2126  0.0899
 5654TIP3   OH238452   5.292   0.557   6.324 -0.2010 -0.1030  0.5810
 5654TIP3    H138453   5.230   0.591   6.260 -0.0051  0.2884  0.5937
 5654TIP3    H238454   5.341   0.634   6.353  0.4642 -0.4375  0.3788
 5655TIP3   OH238455   4.085   6.781  13.106 -0.4656 -0.1908 -0.0299
 5655TIP3    H138456   3.997   6.758  13.135  0.0541 -2.6501 -0.1305
 5655TIP3    H238457   4.116   6.702  13.061  2.5336 -0.2245  1.8141
 5656TIP3   OH238458   4.918   5.528   2.660  0.1424 -0.2152  0.3260
 5656TIP3    H138459   4.960   5.467   2.600  0.0676  0.0162  0.0376
 5656TIP3    H238460   4.827   5.533   2.630 -0.3292 -1.3831  1.4727
 5657TIP3   OH238461   3.442   1.703  16.702  0.3220  0.3712  0.4453
 5657TIP3    H138462   3.431   1.611  16.680 -0.7624  0.6875 -0.3750
 5657TIP3    H238463   3.537   1.714  16.713  0.3950 -1.0161  1.4013
 5658TIP3   OH238464   3.872   2.907  16.271 -0.1129 -0.3861 -0.2699
 5658TIP3    H138465   3.898   2.816  16.258 -1.0310 -0.6034 -0.7192
 5658TIP3    H238466   3.776   2.905  16.271 -0.1614  0.4019  1.0634
 5659TIP3   OH238467   6.779   4.894  13.805 -0.1668 -0.0967 -0.0695
 5659TIP3    H138468   6.697   4.942  13.794  0.3060  0.6454 -0.4728
 5659TIP3    H238469   6.845   4.949  13.762  0.6921 -0.2364  1.0172
 5660TIP3   OH238470   1.594   0.272  15.242  0.0893  0.4109  0.0411
 5660TIP3    H138471   1.511   0.303  15.279  0.1448  0.3591  0.2056
 5660TIP3    H238472   1.574   0.185  15.208  0.3374 -0.0416  1.0187
 5661TIP3   OH238473   0.599   2.975  14.499 -0.4485 -0.1608 -0.4442
 5661TIP3    H138474   0.505   2.961  14.504 -0.5087  0.2591 -0.3102
 5661TIP3    H238475   0.636   2.919  14.567 -0.7869  1.2251  0.9521
 5662TIP3   OH238476   6.697   6.654  11.587 -0.1557  0.2246  0.5902
 5662TIP3    H138477   6.780   6.646  11.634  0.5723  1.7483 -0.3614
 5662TIP3    H238478   6.634   6.681  11.654 -0.0639 -1.5436  1.4427
 5663TIP3   OH238479   4.805   1.708  13.567 -0.3919 -0.6570 -0.3282
 5663TIP3    H138480   4.804   1.754  13.483  1.1249 -0.9247 -0.5151
 5663TIP3    H238481   4.897   1.692  13.585 -0.3138  2.0627  2.8834
 5664TIP3   OH238482   3.184   4.774  15.175 -0.0356  0.3053  0.2385
 5664TIP3    H138483   3.166   4.805  15.264  1.6670  0.9782  0.3786
 5664TIP3    H238484   3.185   4.853  15.122  0.0799  0.0296 -0.1757
 5665TIP3   OH238485   2.596   4.941   0.639  0.2392  0.6355 -0.3249
 5665TIP3    H138486   2.547   4.862   0.613 -0.4460  1.2666 -0.9994
 5665TIP3    H238487   2.565   5.009   0.579  0.7840  1.4362  0.2873
 5666TIP3   OH238488   5.090   4.114  10.772 -0.1536 -0.2891 -0.4370
 5666TIP3    H138489   5.116   4.080  10.686  0.8616 -2.3922  0.6294
 5666TIP3    H238490   5.167   4.161  10.804 -0.9386  1.5418 -1.1340
 5667TIP3   OH238491   6.748   3.234  11.297 -0.4134 -0.0876 -0.4215
 5667TIP3    H138492   6.781   3.272  11.378 -0.7557 -0.8362  0.0882
 5667TIP3    H238493   6.657   3.213  11.316 -1.0507  1.4718 -1.6420
 5668TIP3   OH238494   3.426   2.422  12.048  0.3820  0.6211  0.5200
 5668TIP3    H138495   3.489   2.493  12.063  0.2077  0.7223  0.7854
 5668TIP3    H238496   3.463   2.346  12.092  0.7241  0.4609 -0.0322
 5669TIP3   OH238497   1.924   0.350   1.305 -0.9885  0.0302 -0.1792
 5669TIP3    H138498   1.884   0.263   1.303  1.9914 -1.5011  0.4843
 5669TIP3    H238499   1.978   0.353   1.225 -0.0715  0.7043  0.4402
 5670TIP3   OH238500   4.315   4.890  16.240  0.1063  0.3000 -0.0160
 5670TIP3    H138501   4.252   4.833  16.194  0.8450  0.1786 -0.9051
 5670TIP3    H238502   4.399   4.848  16.228  0.4567  0.7989  0.6226
 5671TIP3   OH238503   3.738   0.644   0.464 -0.5883 -0.0403 -0.1323
 5671TIP3    H138504   3.804   0.651   0.533  0.2662 -1.5509 -0.7588
 5671TIP3    H238505   3.788   0.641   0.382 -1.5542  1.1254 -0.8081
 5672TIP3   OH238506   1.415   4.074   1.499 -0.6545  0.1119 -0.2470
 5672TIP3    H138507   1.461   3.990   1.501 -1.6988 -0.4833 -0.2288
 5672TIP3    H238508   1.384   4.083   1.409  1.1950  1.4909 -0.7995
 5673TIP3   OH238509   5.394   1.387   0.764 -0.2181 -0.4461 -0.1966
 5673TIP3    H138510   5.429   1.469   0.798  1.1392 -0.4074 -1.5268
 5673TIP3    H238511   5.328   1.413   0.700 -0.2097 -0.4047 -0.1881
 5674TIP3   OH238512   1.816   0.550   4.876  0.4451 -0.3386 -0.2921
 5674TIP3    H138513   1.838   0.519   4.788  1.6024 -0.0315 -0.1316
 5674TIP3    H238514   1.900   0.551   4.923  0.2816  1.8407  0.0656
 5675TIP3   OH238515   3.553   0.517  11.758  0.0383  0.6448  0.2220
 5675TIP3    H138516   3.523   0.432  11.726  2.1433  0.5419 -1.6971
 5675TIP3    H238517   3.614   0.496  11.828  2.1465  0.3544 -1.5826
 5676TIP3   OH238518   1.907   0.912  14.210  0.5331  1.4200 -0.5447
 5676TIP3    H138519   1.859   0.843  14.165  0.6184  0.3862  0.8771
 5676TIP3    H238520   1.998   0.881  14.211  0.5950  1.6171 -0.0070
 5677TIP3   OH238521   0.525   6.829   1.257 -0.0103  0.3133  0.2788
 5677TIP3    H138522   0.536   6.784   1.341 -2.1417 -0.4455  0.1973
 5677TIP3    H238523   0.474   6.769   1.203  0.3757  1.2553 -1.1960
 5678TIP3   OH238524   4.185   5.138  10.862  0.0973  0.3620  0.0943
 5678TIP3    H138525   4.271   5.135  10.904 -0.6635  0.1986  1.6955
 5678TIP3    H238526   4.205   5.141  10.768  1.8100 -1.0491  0.3642
 5679TIP3   OH238527   2.786   0.577  14.848  0.2587 -0.8287 -0.1047
 5679TIP3    H138528   2.870   0.561  14.805  1.0699  0.4240  0.9114
 5679TIP3    H238529   2.770   0.498  14.899  0.3450 -1.4604 -1.0399
 5680TIP3   OH238530   4.600   1.430  14.075 -0.6975  0.6253  0.5718
 5680TIP3    H138531   4.656   1.452  14.150 -0.7307 -0.0773  0.8147
 5680TIP3    H238532   4.656   1.443  13.999 -0.3395  0.3594  0.7858
 5681TIP3   OH238533   0.756   6.394   4.043  0.4700 -0.0597  0.0225
 5681TIP3    H138534   0.720   6.385   4.131  1.3296  0.1278  0.4014
 5681TIP3    H238535   0.783   6.305   4.019  1.0021  0.0261  0.2891
 5682TIP3   OH238536   4.065   3.977  11.485  0.0883  0.3449 -0.1189
 5682TIP3    H138537   4.137   4.034  11.512  0.9510 -0.0073 -1.5873
 5682TIP3    H238538   4.074   3.969  11.390 -0.9101 -1.0346 -0.1347
 5683TIP3   OH238539   5.650   4.817   4.678 -0.4151  0.3328 -0.7109
 5683TIP3    H138540   5.612   4.856   4.599 -1.7752 -0.5992 -0.5469
 5683TIP3    H238541   5.683   4.732   4.648  0.3058  0.5500 -0.5495
 5684TIP3   OH238542   1.335   0.581   5.119 -0.1187  0.2639  0.2236
 5684TIP3    H138543   1.276   0.634   5.065 -0.2437 -0.2627 -0.1590
 5684TIP3    H238544   1.399   0.644   5.152  0.2738  0.5017 -0.9717
 5685TIP3   OH238545   0.714   0.768   0.926  0.2756  0.2743  0.4354
 5685TIP3    H138546   0.657   0.725   0.989  1.2867 -1.8529 -0.0034
 5685TIP3    H238547   0.798   0.722   0.934  1.6162  2.5359  0.2788
 5686TIP3   OH238548   3.027   2.020   1.267 -0.3260  0.0813 -0.2021
 5686TIP3    H138549   2.951   1.963   1.277 -0.7477  0.2067 -2.1534
 5686TIP3    H238550   3.033   2.035   1.172  2.2707 -0.0846 -0.1285
 5687TIP3   OH238551   2.495   3.018   4.240 -0.0784  0.2076  0.4381
 5687TIP3    H138552   2.438   2.999   4.314 -0.8844 -0.2463 -0.2871
 5687TIP3    H238553   2.496   3.113   4.234 -1.8216  0.2047 -0.3304
 5688TIP3   OH238554   4.029   6.563   5.807  0.6602 -0.3941 -0.3557
 5688TIP3    H138555   3.966   6.634   5.809  2.4840  1.3102  2.4379
 5688TIP3    H238556   3.998   6.500   5.872  2.8902  1.6790  3.0340
 5689TIP3   OH238557   4.190   0.419   3.330  0.2769 -0.3530  0.4497
 5689TIP3    H138558   4.111   0.376   3.298 -0.5238  1.9062 -0.8673
 5689TIP3    H238559   4.200   0.496   3.273  1.9653  0.8459  2.2220
 5690TIP3   OH238560   3.747   1.660   3.777  0.2393 -0.2823 -0.0582
 5690TIP3    H138561   3.833   1.701   3.782  0.2424 -0.3604  0.7011
 5690TIP3    H238562   3.730   1.629   3.866  0.6021 -2.6923 -0.7608
 5691TIP3   OH238563   3.101   2.268   2.739  0.1180 -0.1528 -0.4149
 5691TIP3    H138564   3.192   2.239   2.752  0.0131 -0.3548 -0.1142
 5691TIP3    H238565   3.101   2.309   2.653  0.3290 -0.8466 -0.7576
 5692TIP3   OH238566   1.404   1.268  12.054 -0.0511  0.6855 -0.5031
 5692TIP3    H138567   1.420   1.326  11.980 -0.3700  1.3152 -0.0859
 5692TIP3    H238568   1.380   1.327  12.126  0.1049  0.0721  0.0566
 5693TIP3   OH238569   0.985   0.179   4.963  1.1016  0.3101  0.3864
 5693TIP3    H138570   0.987   0.116   5.036  0.8039 -0.6611 -0.4161
 5693TIP3    H238571   0.897   0.169   4.926  1.1531  1.0075  0.0704
 5694TIP3   OH238572   0.146   5.653   1.182  0.5551 -0.4182  0.1470
 5694TIP3    H138573   0.070   5.647   1.239  1.0433 -0.1764  0.8423
 5694TIP3    H238574   0.128   5.592   1.111 -1.6797  1.8022 -1.3694
 5695TIP3   OH238575   2.771   3.672   0.431 -0.2799 -0.5952  0.5163
 5695TIP3    H138576   2.865   3.683   0.419 -0.2240  0.0477  1.4763
 5695TIP3    H238577   2.733   3.706   0.350  0.2680  0.1244  0.5484
 5696TIP3   OH238578   2.064   1.180   0.980  0.0409  0.1542  0.5671
 5696TIP3    H138579   2.046   1.116   0.911  0.6990  1.4330 -0.8528
 5696TIP3    H238580   2.159   1.177   0.992  0.1442  1.1755  0.1378
 5697TIP3   OH238581   4.983   4.906  14.515  0.2986 -0.0377  0.1234
 5697TIP3    H138582   4.947   4.823  14.545  1.0042 -1.2395 -2.1764
 5697TIP3    H238583   5.074   4.905  14.545  0.4837 -0.4070 -0.4298
 5698TIP3   OH238584   0.502   0.996   3.946 -0.5305 -0.1004  0.5069
 5698TIP3    H138585   0.519   1.023   4.036 -1.4704  0.6725  0.4782
 5698TIP3    H238586   0.571   0.933   3.926  0.8493  1.1419  1.1220
 5699TIP3   OH238587   0.391   0.821  14.646  0.0318 -0.1147  0.6495
 5699TIP3    H138588   0.349   0.804  14.562 -0.2422  2.9261  0.0627
 5699TIP3    H238589   0.319   0.848  14.704  0.1106 -2.7879  2.1557
 5700TIP3   OH238590   1.233   1.838  10.515  0.3258 -0.0153  0.2657
 5700TIP3    H138591   1.226   1.757  10.565 -0.7690  0.4308  0.8576
 5700TIP3    H238592   1.144   1.858  10.488  0.6169  0.8553 -0.0879
 5701TIP3   OH238593   6.768   6.347   4.996  0.2028  0.3795  0.2250
 5701TIP3    H138594   6.738   6.286   4.928  2.8966  0.2825 -1.0036
 5701TIP3    H238595   6.697   6.349   5.060 -1.3848 -1.4589 -1.3686
 5702TIP3   OH238596   2.343   0.320  13.164 -0.8156 -0.1123 -0.5278
 5702TIP3    H138597   2.385   0.290  13.244 -0.4725  1.6350 -0.0139
 5702TIP3    H238598   2.305   0.241  13.125  2.2978 -1.7028 -0.6433
 5703TIP3   OH238599   3.897   3.609  13.959  0.6594  0.2595  0.1614
 5703TIP3    H138600   3.984   3.578  13.935  1.1568  1.9708 -0.4059
 5703TIP3    H238601   3.912   3.669  14.032  0.2042  1.9237 -1.0612
 5704TIP3   OH238602   5.336   2.149   5.188 -0.5034 -0.5641 -0.1280
 5704TIP3    H138603   5.291   2.111   5.264 -1.2949  0.5882 -0.0049
 5704TIP3    H238604   5.331   2.243   5.201  2.1945 -0.3649  0.0044
 5705TIP3   OH238605   5.472   3.547  15.203 -0.0560 -0.3466  0.0074
 5705TIP3    H138606   5.393   3.505  15.167  1.2545 -1.7465 -1.3788
 5705TIP3    H238607   5.509   3.482  15.262  1.5909 -0.9016 -1.5702
 5706TIP3   OH238608   2.135   3.304  11.497 -0.2148  0.0748 -0.5049
 5706TIP3    H138609   2.110   3.269  11.582 -0.0969  2.0710  0.4039
 5706TIP3    H238610   2.203   3.245  11.465 -1.8208 -1.9973 -0.2930
 5707TIP3   OH238611   5.112   0.615  14.209 -0.0801  0.0950  1.2798
 5707TIP3    H138612   5.136   0.523  14.211 -0.1025  0.0835  1.0780
 5707TIP3    H238613   5.193   0.660  14.183 -1.0271 -0.2451 -2.9173
 5708TIP3   OH238614   4.330   4.483  10.851 -0.1805  0.4662  0.0970
 5708TIP3    H138615   4.406   4.482  10.910  0.1454 -0.2230 -0.3092
 5708TIP3    H238616   4.297   4.573  10.854 -0.6695  0.2531  1.9459
 5709TIP3   OH238617   3.452   4.462   4.759 -0.1784 -0.3740  0.1812
 5709TIP3    H138618   3.394   4.500   4.693 -0.1428  0.4317  0.6030
 5709TIP3    H238619   3.518   4.414   4.709 -1.0421 -1.0929 -0.3152
 5710TIP3   OH238620   3.407   2.846   5.988 -0.0638  0.6996 -0.3879
 5710TIP3    H138621   3.424   2.811   6.075 -0.9759 -1.5873 -1.0567
 5710TIP3    H238622   3.375   2.935   6.003  0.0514  0.4437  1.5825
 5711TIP3   OH238623   3.558   4.588   1.809  0.0591 -0.5854 -0.6278
 5711TIP3    H138624   3.547   4.564   1.717 -2.8860  2.6111 -1.2956
 5711TIP3    H238625   3.595   4.676   1.806  0.0613 -0.4841  1.2997
 5712TIP3   OH238626   5.456   1.834  12.011  0.1993  0.2450  0.0860
 5712TIP3    H138627   5.480   1.752  12.054 -1.0610 -0.1576  0.0874
 5712TIP3    H238628   5.505   1.901  12.058  1.2425 -0.5032  0.0913
 5713TIP3   OH238629   2.489   2.126  13.426 -0.6597  0.0643  0.1054
 5713TIP3    H138630   2.458   2.112  13.515 -0.6468 -3.9741 -0.3602
 5713TIP3    H238631   2.578   2.161  13.436 -1.3473  1.5333  1.5624
 5714TIP3   OH238632   3.874   6.230  16.718 -0.0565 -0.4064  0.0873
 5714TIP3    H138633   3.794   6.206  16.765  0.7795 -0.1408  1.7179
 5714TIP3    H238634   3.848   6.304  16.663 -0.7524  0.2500  1.2550
 5715TIP3   OH238635   5.376   4.491  15.552  0.2970  0.4809 -0.2820
 5715TIP3    H138636   5.403   4.418  15.609 -0.4408  1.1124  0.9120
 5715TIP3    H238637   5.404   4.569  15.600 -0.1568  1.0209 -0.8969
 5716TIP3   OH238638   4.879   1.254  12.351 -0.2646 -0.5010  0.7382
 5716TIP3    H138639   4.806   1.313  12.373  0.2829  0.5010 -0.0204
 5716TIP3    H238640   4.939   1.262  12.425 -0.8373 -1.2188  1.2983
 5717TIP3   OH238641   0.105   2.276  15.790 -0.3817  0.2092 -0.2513
 5717TIP3    H138642   0.140   2.360  15.818  0.4660 -0.2315  0.0655
 5717TIP3    H238643   0.047   2.249  15.861 -0.3408  0.3407 -0.1674
 5718TIP3   OH238644   4.656   2.672   1.135  0.2518  0.4765  0.0620
 5718TIP3    H138645   4.654   2.702   1.044  0.3322 -3.0636 -1.3022
 5718TIP3    H238646   4.586   2.606   1.139  1.6911 -1.0423  1.8811
 5719TIP3   OH238647   5.959   5.968  10.191  0.4203 -0.2163 -0.3857
 5719TIP3    H138648   5.978   5.892  10.245 -1.3794  0.2865  1.0336
 5719TIP3    H238649   5.864   5.968  10.182  0.4179  1.6261 -0.7022
 5720TIP3   OH238650   3.728   1.350   0.406  0.2140  0.4595  0.2571
 5720TIP3    H138651   3.794   1.303   0.457 -0.0588  0.7770  0.9105
 5720TIP3    H238652   3.644   1.320   0.441  0.0238  0.6923  0.0071
 5721TIP3   OH238653   2.523   2.814  14.083 -0.2314  0.1142 -0.0143
 5721TIP3    H138654   2.566   2.886  14.036  0.5302  0.4558  1.1766
 5721TIP3    H238655   2.595   2.759  14.114 -0.7163 -0.0626  0.8247
 5722TIP3   OH238656   5.511   0.582  11.871 -0.1044 -0.4120  0.1433
 5722TIP3    H138657   5.545   0.640  11.803  1.5991 -0.8351  0.5943
 5722TIP3    H238658   5.427   0.551  11.837  1.4356 -1.9440 -2.5814
 5723TIP3   OH238659   4.120   4.699  14.419 -0.7401 -0.3301  0.0916
 5723TIP3    H138660   4.161   4.753  14.352 -1.2648  0.2672  0.2352
 5723TIP3    H238661   4.162   4.727  14.501 -0.7299 -0.4163  0.1156
 5724TIP3   OH238662   3.131   0.419   6.788 -0.3640 -0.2338  0.2858
 5724TIP3    H138663   3.103   0.458   6.706 -2.4047 -0.0580  1.0194
 5724TIP3    H238664   3.208   0.470   6.813 -1.4714  1.7089 -0.0501
 5725TIP3   OH238665   4.470   0.692  11.391  0.3888 -0.2692 -0.0229
 5725TIP3    H138666   4.431   0.605  11.397 -1.0527  0.3267 -0.3365
 5725TIP3    H238667   4.531   0.686  11.317  0.2943 -0.9970 -0.0527
 5726TIP3   OH238668   4.531   1.451   4.907  0.2822 -0.3148  0.2079
 5726TIP3    H138669   4.455   1.508   4.925  0.5741 -0.1818  1.0694
 5726TIP3    H238670   4.572   1.491   4.830  0.9485  1.1664  1.2669
 5727TIP3   OH238671   3.483   0.920  13.159 -0.8162  0.7006 -0.1822
 5727TIP3    H138672   3.517   0.876  13.081 -0.0886  1.7724 -0.5037
 5727TIP3    H238673   3.403   0.964  13.128 -0.8339  0.6645 -0.1877
 5728TIP3   OH238674   4.013   4.336  11.982  0.2423  1.0343 -0.4264
 5728TIP3    H138675   4.092   4.314  12.031 -0.5860  0.4533  0.7074
 5728TIP3    H238676   4.005   4.431  11.989  0.1816  0.9631  0.5074
 5729TIP3   OH238677   3.534   2.743  12.396 -0.0119  0.2260  0.0180
 5729TIP3    H138678   3.480   2.666  12.413  0.7403 -0.5229 -0.8817
 5729TIP3    H238679   3.496   2.812  12.452 -1.0512 -0.6273  0.3987
 5730TIP3   OH238680   4.653   6.704  12.243  0.2539 -0.5876 -0.5492
 5730TIP3    H138681   4.592   6.630  12.242  1.0343 -1.2472 -0.3590
 5730TIP3    H238682   4.597   6.781  12.250 -0.4778 -1.2726  2.2805
 5731TIP3   OH238683   3.649   3.900  15.120 -0.3221 -0.0672  0.0386
 5731TIP3    H138684   3.716   3.843  15.083  0.1761 -0.5739  1.6657
 5731TIP3    H238685   3.661   3.983  15.074  0.4285 -0.6035 -0.7643
 5732TIP3   OH238686   0.063   4.724   6.444  0.0161  0.1948  0.2188
 5732TIP3    H138687   0.043   4.810   6.407 -0.3791 -0.5211 -1.2816
 5732TIP3    H238688   0.114   4.744   6.523 -0.7504  1.8254  0.3558
 5733TIP3   OH238689   0.247   0.438  10.546  0.8124 -0.3895 -0.8223
 5733TIP3    H138690   0.234   0.343  10.547  2.4458 -0.6889  1.6194
 5733TIP3    H238691   0.323   0.451  10.490  1.1038 -0.6457 -0.4957
 5734TIP3   OH238692   4.733   6.664  14.008  0.0190  0.2908 -0.4342
 5734TIP3    H138693   4.810   6.713  13.979 -0.0967  0.7930  0.0777
 5734TIP3    H238694   4.675   6.663  13.932  0.1345  0.7428 -0.5333
 5735TIP3   OH238695   5.573   5.152   6.214 -0.3867 -1.0040 -0.2441
 5735TIP3    H138696   5.509   5.185   6.151 -0.5714 -1.8649 -0.5249
 5735TIP3    H238697   5.648   5.127   6.160 -0.0588 -0.6042  0.0163
 5736TIP3   OH238698   5.856   5.102   4.630 -0.3805 -0.4039  0.0750
 5736TIP3    H138699   5.893   5.019   4.600  0.5374  0.1670 -0.4007
 5736TIP3    H238700   5.769   5.105   4.590 -0.4135 -1.1287  0.0827
 5737TIP3   OH238701   0.271   6.314  14.049 -0.1825 -0.3804  0.0388
 5737TIP3    H138702   0.340   6.379  14.038 -0.9010  0.2487 -1.0071
 5737TIP3    H238703   0.252   6.284  13.960  0.7310 -2.7150  0.5526
 5738TIP3   OH238704   0.221   5.669   4.220 -0.1503 -0.1724  0.9289
 5738TIP3    H138705   0.151   5.604   4.213  0.4024 -0.7115  0.2995
 5738TIP3    H238706   0.249   5.663   4.311  0.7161 -1.7158  0.6041
 5739TIP3   OH238707   3.398   4.929  14.883 -0.7614 -0.0191  0.0155
 5739TIP3    H138708   3.350   4.846  14.893 -1.8011  0.5448 -0.1336
 5739TIP3    H238709   3.449   4.937  14.964 -1.7796 -0.1047  0.6881
 5740TIP3   OH238710   5.301   2.548   4.071  0.1903  0.4950 -0.5196
 5740TIP3    H138711   5.386   2.505   4.067 -0.0524 -0.2282  1.0939
 5740TIP3    H238712   5.250   2.507   4.000 -0.0355 -2.0027  0.9582
 5741TIP3   OH238713   4.969   5.249   2.539  0.7324  0.6267 -0.1005
 5741TIP3    H138714   5.004   5.260   2.450 -0.2286  0.6354 -0.4985
 5741TIP3    H238715   4.874   5.257   2.528  0.4864 -0.8307  0.7010
 5742TIP3   OH238716   4.435   5.040  14.061  0.1362 -0.1230 -0.3039
 5742TIP3    H138717   4.466   5.117  14.014 -0.0978 -0.2354 -0.6489
 5742TIP3    H238718   4.491   4.969  14.028  0.4378 -0.0802  0.1081
 5743TIP3   OH238719   3.393   6.561   3.580  0.0799  0.0124  1.1719
 5743TIP3    H138720   3.456   6.559   3.508 -1.1212  1.7970  0.0173
 5743TIP3    H238721   3.440   6.601   3.652  0.1730  1.7719  0.1759
 5744TIP3   OH238722   1.648   4.704   4.025  0.1604 -0.4142  0.5418
 5744TIP3    H138723   1.662   4.788   3.982 -1.8986 -0.3167 -0.0195
 5744TIP3    H238724   1.633   4.726   4.117  1.7069 -0.3897  0.8224
 5745TIP3   OH238725   0.759   5.218   5.591 -0.0699 -0.7073  0.5906
 5745TIP3    H138726   0.736   5.212   5.684  0.8966 -1.4805  0.7894
 5745TIP3    H238727   0.804   5.136   5.572 -0.9144 -0.8912 -0.7630
 5746TIP3   OH238728   2.452   3.533  11.749 -0.4664  0.0423 -0.0654
 5746TIP3    H138729   2.480   3.589  11.676  1.4624 -0.9405 -0.1594
 5746TIP3    H238730   2.437   3.594  11.821  0.3547  0.8030 -0.5123
 5747TIP3   OH238731   2.844   3.454  14.324 -0.0982  0.5905 -0.1133
 5747TIP3    H138732   2.815   3.544  14.338 -0.3554  0.4527  0.2539
 5747TIP3    H238733   2.848   3.444  14.229  0.1746  1.0654 -0.1516
 5748TIP3   OH238734   1.961   2.412  12.233  0.2306  0.2032 -0.1641
 5748TIP3    H138735   1.923   2.326  12.252  1.1363 -0.1818 -0.0490
 5748TIP3    H238736   1.950   2.423  12.138  1.0913 -0.5205 -0.3504
 5749TIP3   OH238737   6.316   2.331   2.673 -0.0656 -0.0703  0.2087
 5749TIP3    H138738   6.367   2.395   2.722  0.2403 -0.4781  0.4220
 5749TIP3    H238739   6.381   2.278   2.627 -0.3521  0.3690 -0.7223
 5750TIP3   OH238740   5.539   0.907  11.530  0.3409  0.6972 -0.2259
 5750TIP3    H138741   5.509   0.993  11.499  1.0563  0.6476 -1.1116
 5750TIP3    H238742   5.628   0.899  11.494  0.8972  0.2680  1.1918
 5751TIP3   OH238743   1.376   6.854  12.333 -0.3659 -0.0062 -0.4349
 5751TIP3    H138744   1.470   6.850  12.350 -0.1941 -1.7067 -1.5346
 5751TIP3    H238745   1.367   6.923  12.268  0.4787 -1.4602 -2.1692
 5752TIP3   OH238746   4.563   4.067  15.580  0.1420  0.2146  0.1149
 5752TIP3    H138747   4.622   4.105  15.645  0.0293  1.7945 -0.6728
 5752TIP3    H238748   4.504   4.138  15.555 -0.8996 -0.8136 -0.5106
 5753TIP3   OH238749   2.830   1.394  14.693  0.0674 -0.2959  0.9212
 5753TIP3    H138750   2.836   1.301  14.669 -0.2846 -0.2511  0.6625
 5753TIP3    H238751   2.737   1.415  14.688  0.3541  0.7247 -1.5569
 5754TIP3   OH238752   6.502   1.331  14.198 -0.4178 -0.0244  0.1233
 5754TIP3    H138753   6.586   1.361  14.231 -0.6949  1.0529 -0.1131
 5754TIP3    H238754   6.498   1.363  14.108 -0.4899 -1.2805 -0.3383
 5755TIP3   OH238755   0.899   4.394  16.426 -0.0967 -0.2222 -0.1127
 5755TIP3    H138756   0.983   4.415  16.468 -0.8800  0.4199  1.1885
 5755TIP3    H238757   0.902   4.299  16.414  0.8232 -0.2078 -0.1087
 5756TIP3   OH238758   3.623   0.284  13.109 -0.6558 -0.3266 -0.2301
 5756TIP3    H138759   3.703   0.291  13.161 -0.0762 -0.7683 -1.0372
 5756TIP3    H238760   3.554   0.266  13.173  0.0796 -1.1124  0.3620
 5757TIP3   OH238761   4.822   0.429  11.427 -0.3171  0.0647  0.1564
 5757TIP3    H138762   4.827   0.496  11.495 -1.2961 -2.4037  2.8770
 5757TIP3    H238763   4.906   0.384  11.431 -0.7309 -0.6999  0.4195
 5758TIP3   OH238764   0.931   5.720  13.623 -0.0499  0.0267  0.3849
 5758TIP3    H138765   0.856   5.660  13.622 -1.3826  1.6023  1.0424
 5758TIP3    H238766   0.965   5.717  13.533  0.2069 -2.0033  0.5099
 5759TIP3   OH238767   2.289   4.575   1.165 -0.5695  0.3157 -0.5631
 5759TIP3    H138768   2.194   4.567   1.171 -0.4943 -1.2483 -0.9576
 5759TIP3    H238769   2.314   4.622   1.244 -1.7001  1.1340 -0.6707
 5760TIP3   OH238770   5.630   4.930   0.050 -0.2751 -0.0777  0.2848
 5760TIP3    H138771   5.569   4.860   0.030 -1.4288  0.4804  1.6730
 5760TIP3    H238772   5.602   4.964   0.135  0.1003  2.1889 -0.4049
 5761TIP3   OH238773   6.390   6.394   5.583 -0.4936 -0.0791  0.3193
 5761TIP3    H138774   6.307   6.376   5.539 -0.5235  0.5383  0.1211
 5761TIP3    H238775   6.396   6.489   5.587  1.2984 -0.0147 -1.8329
 5762TIP3   OH238776   5.166   5.900  15.193  0.2345  0.7559  0.2541
 5762TIP3    H138777   5.152   5.977  15.138 -0.0507  1.0963  0.7863
 5762TIP3    H238778   5.101   5.908  15.263 -1.5278 -1.2760 -1.0325
 5763TIP3   OH238779   2.247   2.146   4.596 -0.1935 -0.0903  1.0117
 5763TIP3    H138780   2.249   2.050   4.597 -1.9106 -0.1653  1.9028
 5763TIP3    H238781   2.172   2.167   4.541  0.0466  0.7355  0.9932
 5764TIP3   OH238782   5.918   0.411   4.912  0.2155  0.1774 -0.1758
 5764TIP3    H138783   5.862   0.437   4.984 -1.2100 -1.0826 -0.7670
 5764TIP3    H238784   5.953   0.326   4.938 -0.2785 -0.2671 -0.9361
 5765TIP3   OH238785   1.006   6.531  10.983 -0.2571  0.4300  0.6067
 5765TIP3    H138786   0.919   6.563  10.959 -0.5418 -0.5581  0.2963
 5765TIP3    H238787   0.991   6.441  11.012  0.8491 -0.2376 -0.7998
 5766TIP3   OH238788   2.233   4.259   2.834  0.1894 -0.2063 -0.0275
 5766TIP3    H138789   2.150   4.212   2.837  0.5133 -0.8836 -1.0649
 5766TIP3    H238790   2.209   4.352   2.828 -0.5293 -0.4509 -1.3933
 5767TIP3   OH238791   6.800   6.251   4.281  0.0865  0.1693  0.6604
 5767TIP3    H138792   6.708   6.231   4.267  0.3068 -0.1458 -0.4838
 5767TIP3    H238793   6.813   6.242   4.375 -1.9264  4.0448  1.5261
 5768TIP3   OH238794   5.614   6.768   1.693 -0.1725 -0.3021 -0.2173
 5768TIP3    H138795   5.595   6.861   1.702 -1.4084 -0.3720 -1.6751
 5768TIP3    H238796   5.529   6.725   1.700  0.1436 -1.1524 -1.3417
 5769TIP3   OH238797   2.196   2.402   5.530  0.3142  0.2745  0.5967
 5769TIP3    H138798   2.179   2.325   5.584  0.0965  0.6925  1.1327
 5769TIP3    H238799   2.119   2.457   5.542 -0.1477 -0.0159 -0.8549
 5770TIP3   OH238800   3.189   4.879  15.721  0.2572  0.0912 -0.4788
 5770TIP3    H138801   3.096   4.900  15.719  0.3243  0.4373 -0.0953
 5770TIP3    H238802   3.233   4.963  15.709  0.5428  0.4120  2.1339
 5771TIP3   OH238803   2.335   6.055  15.439  0.1332 -0.7997  0.2337
 5771TIP3    H138804   2.358   5.966  15.465 -0.9510 -0.9482  0.7090
 5771TIP3    H238805   2.419   6.101  15.433  0.6892 -1.8244  0.0773
 5772TIP3   OH238806   0.785   5.078  14.560 -0.1485  0.1854 -0.0835
 5772TIP3    H138807   0.861   5.067  14.618 -0.3179 -0.9698 -0.0573
 5772TIP3    H238808   0.823   5.093  14.473  0.1030  1.5228  0.2297
 5773TIP3   OH238809   2.701   2.816   3.738 -0.1854 -0.6464  0.2871
 5773TIP3    H138810   2.776   2.779   3.691 -0.2891 -0.6775  0.1462
 5773TIP3    H238811   2.672   2.745   3.795 -0.4080 -0.7989 -0.0109
 5774TIP3   OH238812   6.161   5.179   0.517  0.4508  0.4015 -0.0234
 5774TIP3    H138813   6.133   5.263   0.480  0.5723  0.6651  0.4714
 5774TIP3    H238814   6.094   5.116   0.489  1.7967  0.0571 -2.8019
 5775TIP3   OH238815   4.980   3.621  15.208 -0.4181 -0.5397  0.0630
 5775TIP3    H138816   4.947   3.707  15.183 -2.2463 -0.8889  1.1081
 5775TIP3    H238817   4.905   3.563  15.201  0.4567 -1.8044  0.6524
 5776TIP3   OH238818   2.645   1.473  15.105 -0.9525  0.7169 -0.5749
 5776TIP3    H138819   2.648   1.391  15.155 -2.3159  0.7274 -0.4361
 5776TIP3    H238820   2.666   1.541  15.169 -1.1783  0.5938 -0.3669
 5777TIP3   OH238821   3.796   2.808  11.416 -0.0112  0.4203 -0.4922
 5777TIP3    H138822   3.713   2.778  11.454  0.0497  1.9736  1.0097
 5777TIP3    H238823   3.779   2.900  11.393  0.7522  0.2352 -1.8980
 5778TIP3   OH238824   0.514   4.960  14.843  0.6998 -0.3616 -0.3421
 5778TIP3    H138825   0.491   4.901  14.771 -1.4245 -1.5200  1.1758
 5778TIP3    H238826   0.610   4.958  14.846  0.7641 -3.5629 -0.5630
 5779TIP3   OH238827   2.677   3.369   4.494  0.0533  0.1392 -0.0159
 5779TIP3    H138828   2.699   3.289   4.541  1.2082  0.4915  0.0662
 5779TIP3    H238829   2.717   3.439   4.545 -0.3119  0.7032 -0.4892
 5780TIP3   OH238830   5.444   3.791   2.956 -0.4309 -0.1817  0.2610
 5780TIP3    H138831   5.363   3.740   2.956 -0.0202 -0.9999 -2.0119
 5780TIP3    H238832   5.512   3.728   2.980 -0.4201  0.4659  2.0223
 5781TIP3   OH238833   5.347   1.866   3.272  0.5099  0.3104 -0.2163
 5781TIP3    H138834   5.415   1.847   3.336  0.3515 -1.2665 -0.4583
 5781TIP3    H238835   5.316   1.779   3.244  0.1259  0.9589 -1.9391
 5782TIP3   OH238836   6.651   2.379  16.434  0.2875  0.3465  0.7755
 5782TIP3    H138837   6.703   2.436  16.491  1.1649  0.3427  0.0078
 5782TIP3    H238838   6.570   2.363  16.482  1.2257 -0.1006  2.2577
 5783TIP3   OH238839   4.663   3.191   3.522 -0.2674 -0.0091 -0.2387
 5783TIP3    H138840   4.702   3.133   3.456  0.2445 -1.5035  1.2901
 5783TIP3    H238841   4.737   3.242   3.556  0.1017 -1.5106  1.3492
 5784TIP3   OH238842   0.928   4.024   0.472  0.1135  1.0068 -0.1470
 5784TIP3    H138843   0.974   4.013   0.389 -0.8005 -0.0714 -0.5364
 5784TIP3    H238844   0.937   3.939   0.516 -0.5586  1.1331  0.2480
 5785TIP3   OH238845   1.511   3.767  11.606 -0.3943  0.2196  0.3529
 5785TIP3    H138846   1.421   3.798  11.618 -0.2530  1.4582 -1.2615
 5785TIP3    H238847   1.557   3.844  11.570  1.1235 -0.6036  0.4733
 5786TIP3   OH238848   6.161   2.693  14.110  0.1737  0.6091  0.0202
 5786TIP3    H138849   6.251   2.666  14.090 -0.5524 -1.2781 -0.8615
 5786TIP3    H238850   6.126   2.623  14.165 -0.7890  1.2855  0.2904
 5787TIP3   OH238851   1.887   5.864   5.325  0.1144 -0.1845 -0.6574
 5787TIP3    H138852   1.875   5.782   5.374 -1.2736 -0.1632 -0.9247
 5787TIP3    H238853   1.836   5.851   5.245  0.6495  0.6019 -1.1422
 5788TIP3   OH238854   6.654   1.366  14.525  0.5794  0.0392  0.1450
 5788TIP3    H138855   6.685   1.297  14.467  2.3871  0.0774  0.9879
 5788TIP3    H238856   6.720   1.435  14.517 -1.6034  2.1157 -1.3461
 5789TIP3   OH238857   1.738   1.215   5.040 -0.4435  0.6676  0.5727
 5789TIP3    H138858   1.649   1.215   5.076 -1.0418 -1.0092 -0.7692
 5789TIP3    H238859   1.741   1.138   4.984  1.2828  1.7152 -0.8724
 5790TIP3   OH238860   5.780   4.156  16.576 -0.1783 -1.1306 -0.2614
 5790TIP3    H138861   5.778   4.071  16.533 -0.8423 -1.4593  0.3982
 5790TIP3    H238862   5.822   4.138  16.661 -1.7001 -1.1236  0.5260
 5791TIP3   OH238863   3.628   4.228   2.305 -0.1296 -0.8097  0.4265
 5791TIP3    H138864   3.690   4.203   2.373  1.3127  1.1683 -0.0603
 5791TIP3    H238865   3.676   4.214   2.223 -1.6888 -2.7690 -0.2272
 5792TIP3   OH238866   6.061   6.826  15.010 -0.3867 -0.5325 -0.2424
 5792TIP3    H138867   6.013   6.904  15.038 -1.2263 -0.8284 -0.8242
 5792TIP3    H238868   6.138   6.824  15.067  0.8747  1.9950 -1.6829
 5793TIP3   OH238869   2.618   6.131  12.403 -0.2254 -0.4314  0.4845
 5793TIP3    H138870   2.631   6.156  12.312 -0.4904 -0.7736  0.3512
 5793TIP3    H238871   2.706   6.115  12.437  0.0054  1.1873  0.7282
 5794TIP3   OH238872   1.655   4.626  12.392 -0.5497  0.7234 -0.2057
 5794TIP3    H138873   1.710   4.616  12.315 -1.5724  1.4891 -1.0680
 5794TIP3    H238874   1.716   4.627  12.466  0.3770 -0.9011 -0.8993
 5795TIP3   OH238875   1.597   0.166   1.899  0.0376  0.3519  0.2546
 5795TIP3    H138876   1.525   0.104   1.886  1.0845 -1.3706  1.9529
 5795TIP3    H238877   1.579   0.206   1.984  1.2783 -0.5179  0.9761
 5796TIP3   OH238878   1.549   1.620   2.689 -0.0064 -0.5385 -0.1958
 5796TIP3    H138879   1.602   1.699   2.694 -0.6306 -0.1170 -0.1216
 5796TIP3    H238880   1.611   1.549   2.705  0.4621 -0.0300  0.3109
 5797TIP3   OH238881   5.145   2.555   4.576  0.4991 -0.4980  0.0428
 5797TIP3    H138882   5.081   2.543   4.505  0.5761  1.3794 -0.3996
 5797TIP3    H238883   5.092   2.577   4.653  0.5394  3.5059 -0.8554
 5798TIP3   OH238884   5.327   1.427  12.523  0.0381 -0.5845 -0.1489
 5798TIP3    H138885   5.356   1.382  12.443 -2.5820 -2.3198 -0.2436
 5798TIP3    H238886   5.232   1.429  12.516 -0.1375  2.1200  1.4910
 5799TIP3   OH238887   3.851   5.461   2.180  0.2185  0.2459 -0.0687
 5799TIP3    H138888   3.854   5.475   2.086  0.4168  1.5280  0.1048
 5799TIP3    H238889   3.760   5.482   2.204  0.8826  3.0446  0.4088
 5800TIP3   OH238890   2.758   5.445   2.444 -0.2101  0.1449  0.2325
 5800TIP3    H138891   2.829   5.396   2.487  0.0146 -0.1436 -0.4474
 5800TIP3    H238892   2.799   5.482   2.366 -1.0185 -0.8117 -0.6818
 5801TIP3   OH238893   5.865   4.712  15.263 -0.0499 -0.5350  0.0758
 5801TIP3    H138894   5.809   4.699  15.340 -0.1405  0.1162  0.1267
 5801TIP3    H238895   5.860   4.629  15.215 -0.5516 -0.7038  0.4120
 5802TIP3   OH238896   5.758   0.455   2.992  0.0944  0.1378 -0.1151
 5802TIP3    H138897   5.838   0.412   3.022  1.2199  1.7221 -0.7223
 5802TIP3    H238898   5.785   0.544   2.972 -2.2916  1.4436  1.8693
 5803TIP3   OH238899   4.876   0.269  14.303 -0.2087  0.2518  0.0389
 5803TIP3    H138900   4.860   0.346  14.248 -0.4232  0.4900  0.4321
 5803TIP3    H238901   4.926   0.209  14.246 -0.2249  0.5894 -0.3370
 5804TIP3   OH238902   4.512   5.809   1.960 -0.2351 -0.1865 -0.1814
 5804TIP3    H138903   4.451   5.875   1.928 -0.2464  0.4171  1.0432
 5804TIP3    H238904   4.490   5.730   1.910 -0.2100  0.7192 -1.6681
 5805TIP3   OH238905   4.824   1.833  14.523 -0.2349 -0.1644 -0.0392
 5805TIP3    H138906   4.877   1.772  14.473  2.9540  1.6039  0.8789
 5805TIP3    H238907   4.850   1.919  14.491 -0.1404  0.9034  2.6257
 5806TIP3   OH238908   1.794   5.301   0.164  0.3701  0.4014 -0.1203
 5806TIP3    H138909   1.788   5.243   0.089 -0.6201  0.1206  0.1619
 5806TIP3    H238910   1.718   5.358   0.157  0.8745  1.1260  0.0657
 5807TIP3   OH238911   4.116   3.667   0.183  0.1581  0.1276  0.5869
 5807TIP3    H138912   4.079   3.660   0.272  0.4257  0.2935  0.7135
 5807TIP3    H238913   4.199   3.620   0.189 -0.8247 -1.8135 -0.1629
 5808TIP3   OH238914   1.483   3.319   3.272 -0.4808 -0.0061 -0.0286
 5808TIP3    H138915   1.547   3.254   3.241 -0.8936 -0.2612 -0.3557
 5808TIP3    H238916   1.531   3.369   3.338 -0.7190 -1.8945  1.6811
 5809TIP3   OH238917   1.129   3.427  16.898  0.4398  0.3713  0.2022
 5809TIP3    H138918   1.150   3.369  16.826 -2.3649 -1.3368  0.5840
 5809TIP3    H238919   1.116   3.513  16.858 -0.2896 -0.3771 -1.2070
 5810TIP3   OH238920   1.302   5.772  15.459  0.0616 -0.0677  0.0323
 5810TIP3    H138921   1.232   5.781  15.524 -0.2137  0.6038 -0.3472
 5810TIP3    H238922   1.337   5.684  15.474 -0.6598 -0.3009  0.4293
 5811TIP3   OH238923   1.211   3.240   2.927 -0.7234 -0.5443 -0.6426
 5811TIP3    H138924   1.278   3.215   2.991 -0.8675 -0.8662 -0.6137
 5811TIP3    H238925   1.194   3.332   2.945  0.3382 -0.2232 -1.2235
 5812TIP3   OH238926   1.058   3.460  11.666  0.7381 -0.8762  0.1643
 5812TIP3    H138927   1.109   3.519  11.610  1.1886 -1.1110  0.3230
 5812TIP3    H238928   0.973   3.453  11.621  1.2028 -1.3251 -0.6701
 5813TIP3   OH238929   1.326   2.449   3.096 -0.0423 -0.1267 -0.3701
 5813TIP3    H138930   1.369   2.464   3.012 -0.5819 -0.7422 -0.7651
 5813TIP3    H238931   1.329   2.355   3.108 -1.9698 -0.2882 -0.7975
 5814TIP3   OH238932   5.316   0.012   3.843 -0.0107  0.0192  0.5315
 5814TIP3    H138933   5.398   0.062   3.845 -0.0658  0.0988  1.7492
 5814TIP3    H238934   5.263   0.051   3.912 -0.8737 -0.3790  0.0982
 5815TIP3   OH238935   6.573   5.451  12.418  0.4388 -0.5950 -0.8423
 5815TIP3    H138936   6.627   5.526  12.393 -0.8196 -0.0939 -2.2180
 5815TIP3    H238937   6.491   5.464  12.369  0.0156 -2.6106 -0.7308
 5816TIP3   OH238938   6.480   1.417  16.661  0.5536 -0.1341 -0.3625
 5816TIP3    H138939   6.417   1.473  16.616 -0.6145 -1.2020 -0.1041
 5816TIP3    H238940   6.452   1.418  16.752  0.5180 -1.1313 -0.3576
 5817TIP3   OH238941   1.042   0.124   4.061 -0.3919  0.2955 -0.1032
 5817TIP3    H138942   1.071   0.040   4.026  0.8965  0.8763 -0.4967
 5817TIP3    H238943   1.112   0.185   4.039 -2.1585  1.9250 -1.5400
 5818TIP3   OH238944   0.994   0.097   0.910  0.2518 -0.1295 -0.7070
 5818TIP3    H138945   1.030   0.041   0.978 -0.4309  0.7162  0.3881
 5818TIP3    H238946   1.054   0.171   0.905 -0.3553  0.4128 -0.1347
 5819TIP3   OH238947   4.611   4.964  10.449 -0.7449 -0.3953  0.3419
 5819TIP3    H138948   4.549   5.025  10.409  1.0223  1.0546 -0.3414
 5819TIP3    H238949   4.604   4.884  10.396 -1.6718 -0.1103  0.0076
 5820TIP3   OH238950   6.588   1.988   6.372 -0.1602 -0.5458  0.0832
 5820TIP3    H138951   6.533   2.001   6.295 -1.5855  1.5793  1.3248
 5820TIP3    H238952   6.609   1.895   6.372 -0.6164 -0.7298 -2.4914
 5821TIP3   OH238953   5.079   3.728  12.510 -0.2600 -0.6206 -0.3656
 5821TIP3    H138954   5.137   3.654  12.526 -0.3736 -0.6671 -0.1740
 5821TIP3    H238955   4.991   3.695  12.524 -0.2914 -0.3601  0.0737
 5822TIP3   OH238956   5.387   2.785   0.043  0.0745  0.1485 -0.3448
 5822TIP3    H138957   5.324   2.739  -0.013 -0.1814 -0.6550  0.5869
 5822TIP3    H238958   5.396   2.871   0.002 -0.4196 -0.2769 -1.3889
 5823TIP3   OH238959   2.891   4.863  16.453  0.2527  0.2655 -0.8877
 5823TIP3    H138960   2.904   4.885  16.545 -2.5409 -0.0659 -0.3064
 5823TIP3    H238961   2.855   4.943  16.414  0.9725  0.2558 -1.5899
 5824TIP3   OH238962   3.672   1.491  12.293 -0.3201  1.1627  0.2372
 5824TIP3    H138963   3.654   1.493  12.199 -0.2779  1.2462  0.2318
 5824TIP3    H238964   3.587   1.509  12.334 -0.7367 -0.6658  0.2513
 5825TIP3   OH238965   1.266   1.816  12.981 -0.1810  0.3739 -0.9960
 5825TIP3    H138966   1.227   1.824  13.068  0.5987 -1.0272 -0.4819
 5825TIP3    H238967   1.335   1.883  12.978  0.7500 -0.5063  0.0328
 5826TIP3   OH238968   4.363   2.026  15.722 -0.1248 -0.0496  0.2310
 5826TIP3    H138969   4.438   1.970  15.744 -0.4861 -0.4214  0.5505
 5826TIP3    H238970   4.380   2.056  15.633  0.7966  0.5254  0.5898
 5827TIP3   OH238971   0.776   3.929  13.226 -0.7853  0.2290 -0.0822
 5827TIP3    H138972   0.697   3.880  13.250 -1.8202  1.6450 -0.4643
 5827TIP3    H238973   0.776   3.929  13.131 -0.3275  0.2528 -0.0827
 5828TIP3   OH238974   2.247   6.862  13.028  0.1728  0.1179 -0.0943
 5828TIP3    H138975   2.295   6.852  12.945  0.6896  1.6246  0.0064
 5828TIP3    H238976   2.191   6.938  13.015 -1.2804 -0.8482  0.2519
 5829TIP3   OH238977   6.112   1.884   1.502 -0.1455 -0.0375 -0.3946
 5829TIP3    H138978   6.097   1.798   1.462 -2.2868  0.5521 -1.0380
 5829TIP3    H238979   6.075   1.876   1.590  1.4748 -0.3283  0.2887
 5830TIP3   OH238980   0.302   2.764   2.138  0.2163 -0.0391  0.5209
 5830TIP3    H138981   0.350   2.781   2.219 -2.5757  1.1061  2.0686
 5830TIP3    H238982   0.213   2.792   2.157 -1.0474 -1.7962 -2.2626
 5831TIP3   OH238983   6.263   5.170  15.492 -0.4967 -0.2873  0.2484
 5831TIP3    H138984   6.310   5.223  15.556 -0.1000  0.5704 -0.7083
 5831TIP3    H238985   6.188   5.134  15.539 -1.4739  2.1135  0.6774
 5832TIP3   OH238986   6.262   6.513  15.086  0.0347 -0.5409  0.4594
 5832TIP3    H138987   6.207   6.533  15.162 -0.0038  1.1452  0.0348
 5832TIP3    H238988   6.298   6.426  15.104 -0.6696 -0.5468  1.9845
 5833TIP3   OH238989   0.377   4.069   5.952 -0.4496 -0.1873 -0.0711
 5833TIP3    H138990   0.460   4.113   5.932  0.6394 -2.7842 -1.9788
 5833TIP3    H238991   0.320   4.138   5.985  2.8465  1.5072  2.6478
 5834TIP3   OH238992   2.707   1.928  11.227 -0.4117 -0.4374 -0.1985
 5834TIP3    H138993   2.640   1.890  11.171  1.9637 -0.2266 -3.4696
 5834TIP3    H238994   2.788   1.921  11.177  1.5845  1.7517  2.3612
 5835TIP3   OH238995   4.136   0.854   2.008 -0.1410  0.3303 -0.5014
 5835TIP3    H138996   4.221   0.829   2.044  1.1373  2.5377 -1.7837
 5835TIP3    H238997   4.094   0.905   2.078 -0.3740 -0.6221  0.0713
 5836TIP3   OH238998   2.038   5.400   2.722 -0.3282 -0.1893 -1.2785
 5836TIP3    H138999   2.002   5.342   2.789 -1.1629  0.0902 -1.4769
 5836TIP3    H239000   1.981   5.387   2.646 -0.9599  1.4019 -1.1009
 5837TIP3   OH239001   0.127   1.332   6.439 -0.3252 -0.8287  0.2408
 5837TIP3    H139002   0.194   1.336   6.507  0.2951 -0.7554 -0.3526
 5837TIP3    H239003   0.122   1.239   6.416  1.7917 -0.5615 -1.7916
 5838TIP3   OH239004   1.569   3.554  15.155  0.6891 -0.5554  0.3983
 5838TIP3    H139005   1.560   3.461  15.175  0.1661 -0.3425  1.2068
 5838TIP3    H239006   1.651   3.561  15.106  0.6979 -1.4454  0.2773
 5839TIP3   OH239007   3.164   2.508   5.429  0.1691  0.4805 -0.0413
 5839TIP3    H139008   3.181   2.598   5.458  1.3244  0.4928 -0.6666
 5839TIP3    H239009   3.220   2.498   5.352 -1.0130 -0.3275 -0.8138
 5840TIP3   OH239010   6.494   0.814   5.071 -0.3145 -0.5168 -0.2776
 5840TIP3    H139011   6.467   0.899   5.036 -1.6754 -0.4762  0.7659
 5840TIP3    H239012   6.577   0.832   5.115  0.6006 -0.2478 -2.0395
 5841TIP3   OH239013   4.539   6.691   4.568 -0.1378  0.1033  0.2177
 5841TIP3    H139014   4.595   6.666   4.641 -0.6105  0.2990  0.6533
 5841TIP3    H239015   4.454   6.711   4.608 -0.6966 -0.7433 -0.4820
 5842TIP3   OH239016   2.902   0.520   0.727 -0.0146  0.2465  0.2014
 5842TIP3    H139017   2.841   0.447   0.741  2.3730 -1.4034  3.1223
 5842TIP3    H239018   2.947   0.499   0.645  0.1088 -1.2227  0.6141
 5843TIP3   OH239019   4.490   4.628   0.469  0.1751 -0.1168 -0.2452
 5843TIP3    H139020   4.416   4.592   0.420 -0.4777  1.6012 -0.6013
 5843TIP3    H239021   4.564   4.571   0.447 -1.2785 -2.6850  1.1771
 5844TIP3   OH239022   3.706   2.177   1.691  0.5882  0.5239  0.3418
 5844TIP3    H139023   3.648   2.251   1.709 -1.6545 -0.6830 -1.3922
 5844TIP3    H239024   3.698   2.163   1.596  2.0948 -1.0220  0.3944
 5845TIP3   OH239025   2.586   2.360   1.131  0.0618  0.4491 -0.0956
 5845TIP3    H139026   2.547   2.402   1.207 -1.8113  0.9541 -1.2702
 5845TIP3    H239027   2.576   2.266   1.147 -1.5496  0.5713 -0.2881
 5846TIP3   OH239028   1.161   0.164   2.588  0.3840  0.3210 -0.3566
 5846TIP3    H139029   1.248   0.202   2.600  0.2915  0.6607 -0.7617
 5846TIP3    H239030   1.108   0.235   2.552 -0.3514  0.4570  0.9120
 5847TIP3   OH239031   3.302   2.730  14.961 -0.0195 -0.4426 -0.2898
 5847TIP3    H139032   3.379   2.696  14.916 -0.2098  0.4768 -1.3563
 5847TIP3    H239033   3.232   2.725  14.896  0.0129  2.2120 -0.6386
 5848TIP3   OH239034   2.431   6.430   4.625 -0.0192 -0.4920 -0.3706
 5848TIP3    H139035   2.518   6.423   4.585  0.9040 -1.0706  1.6020
 5848TIP3    H239036   2.445   6.483   4.704 -1.3038 -1.1863  0.3620
 5849TIP3   OH239037   0.396   4.248   2.825 -0.3573  0.1900  0.3819
 5849TIP3    H139038   0.387   4.266   2.731 -2.8968 -0.2436  0.4698
 5849TIP3    H239039   0.370   4.329   2.868 -1.1997 -0.2240  0.6886
 5850TIP3   OH239040   0.882   0.085  11.235  0.7415 -0.2885 -0.3354
 5850TIP3    H139041   0.910   0.056  11.147  2.9994  1.4510 -0.2993
 5850TIP3    H239042   0.817   0.020  11.262  1.3309 -1.9392 -2.5334
 5851TIP3   OH239043   6.581   0.000   4.406  0.0334 -0.4713  0.3501
 5851TIP3    H139044   6.676  -0.007   4.396  0.3121 -0.7429  2.7488
 5851TIP3    H239045   6.551  -0.090   4.411 -0.0854 -0.3826  1.4835
 5852TIP3   OH239046   4.645   1.252   6.095 -0.1660 -0.3572 -0.0202
 5852TIP3    H139047   4.578   1.222   6.156 -0.3599  0.1783  0.0356
 5852TIP3    H239048   4.712   1.292   6.151 -0.4044  0.2482 -0.1674
 5853TIP3   OH239049   6.496   6.511  13.492  0.2376 -0.5358 -0.1029
 5853TIP3    H139050   6.523   6.517  13.400  2.9612  0.0072  0.6257
 5853TIP3    H239051   6.544   6.435  13.526  0.6594  0.2865  1.2330
 5854TIP3   OH239052   5.756   3.484   6.008  0.2473 -0.1017  0.0908
 5854TIP3    H139053   5.743   3.456   6.098 -1.5046  0.4984  0.0688
 5854TIP3    H239054   5.809   3.563   6.014 -4.3607  3.3822  1.2586
 5855TIP3   OH239055   3.625   4.762  13.489 -0.0643 -0.3560  0.4904
 5855TIP3    H139056   3.657   4.816  13.417  0.5471 -2.0872 -0.5990
 5855TIP3    H239057   3.697   4.761  13.552 -0.7456  1.4720  1.3642
 5856TIP3   OH239058   1.374   5.175   5.151 -0.3958 -0.3602  0.0088
 5856TIP3    H139059   1.346   5.261   5.185  0.9874 -0.1160  0.5783
 5856TIP3    H239060   1.301   5.117   5.171 -1.3856  0.6721 -0.4236
 5857TIP3   OH239061   2.753   4.289   3.724 -0.4228 -0.5436 -0.3059
 5857TIP3    H139062   2.765   4.270   3.817 -1.6945  1.5621  0.3646
 5857TIP3    H239063   2.793   4.215   3.679  0.8002 -1.3116  1.8931
 5858TIP3   OH239064   4.243   4.112  11.777 -0.1137 -0.0705  0.2053
 5858TIP3    H139065   4.296   4.180  11.820 -1.0014 -1.3693  3.7638
 5858TIP3    H239066   4.302   4.038  11.766  0.1903  0.3633 -1.2055
 5859TIP3   OH239067   4.373   2.533  13.333  0.1831 -0.3173 -0.6980
 5859TIP3    H139068   4.296   2.559  13.384 -1.0232  0.5275 -2.8039
 5859TIP3    H239069   4.408   2.457  13.380 -0.7001  0.5273  1.4557
 5860TIP3   OH239070   6.639   0.273   0.996  0.3993 -0.3906  0.4229
 5860TIP3    H139071   6.706   0.335   1.025 -0.5805  2.3538 -2.6187
 5860TIP3    H239072   6.679   0.226   0.923 -0.2234 -0.2907  0.0021
 5861TIP3   OH239073   4.809   4.723  14.640  0.5338 -0.0737 -0.0177
 5861TIP3    H139074   4.873   4.685  14.701 -1.9878 -0.4480  2.6039
 5861TIP3    H239075   4.747   4.769  14.695 -2.3222 -0.9682 -2.2042
 5862TIP3   OH239076   5.093   0.103  16.003 -0.5793  0.0305  0.9305
 5862TIP3    H139077   5.021   0.123  16.062 -0.2593  1.8289  0.7859
 5862TIP3    H239078   5.165   0.159  16.033  0.1798 -0.4063 -0.0103
 5863TIP3   OH239079   1.668   4.758  16.816 -0.2370 -0.0596  0.0640
 5863TIP3    H139080   1.652   4.783  16.907 -0.2936 -0.2629  0.1108
 5863TIP3    H239081   1.760   4.778  16.801 -1.0193  3.4072 -0.9413
 5864TIP3   OH239082   0.485   6.105   3.726  0.5341 -0.2182  0.4889
 5864TIP3    H139083   0.461   6.080   3.815 -0.4431 -1.8355 -0.1976
 5864TIP3    H239084   0.404   6.101   3.677  1.0106  0.9250 -0.4433
 5865TIP3   OH239085   3.268   1.770   0.758 -0.0107 -0.2430 -0.1839
 5865TIP3    H139086   3.256   1.708   0.686 -2.2071  0.9865 -0.9726
 5865TIP3    H239087   3.318   1.842   0.719  1.6560 -1.0161  0.4567
 5866TIP3   OH239088   6.779   0.056  12.213 -0.1034  0.3407 -0.4379
 5866TIP3    H139089   6.799   0.058  12.120 -1.0037  1.0358 -0.6253
 5866TIP3    H239090   6.684   0.048  12.218 -0.2125  1.8081  0.3977
 5867TIP3   OH239091   0.395   2.259   1.434 -0.4400  0.0924 -0.3502
 5867TIP3    H139092   0.453   2.249   1.509 -0.1356 -0.7040 -0.6859
 5867TIP3    H239093   0.386   2.354   1.423  2.3119  0.2883 -1.4738
 5868TIP3   OH239094   4.173   5.035   3.228  0.9370  0.0914 -0.7820
 5868TIP3    H139095   4.216   5.101   3.281  2.5022 -0.0622 -1.7969
 5868TIP3    H239096   4.110   5.084   3.175  0.8580  0.5183 -0.3023
 5869TIP3   OH239097   4.119   4.582   5.006  0.4440 -0.5305  0.1498
 5869TIP3    H139098   4.184   4.587   4.936 -1.8524  1.6028 -2.0226
 5869TIP3    H239099   4.052   4.522   4.973 -0.0954 -0.4617  1.0667
 5870TIP3   OH239100   0.614   4.867   5.948  0.2423 -0.5427 -0.0012
 5870TIP3    H139101   0.687   4.926   5.932 -1.6616  2.0067  0.0241
 5870TIP3    H239102   0.633   4.827   6.033  0.8810  1.3377  0.8007
 5871TIP3   OH239103   5.085   5.552   0.627  0.1753  0.1970  0.0128
 5871TIP3    H139104   5.091   5.477   0.686 -0.5644  0.1360  0.0227
 5871TIP3    H239105   5.076   5.514   0.540  0.9944  0.2860 -0.1171
 5872TIP3   OH239106   3.566   1.137   3.316  0.1861  0.2897  0.3052
 5872TIP3    H139107   3.580   1.075   3.244 -1.3307  2.5035 -2.0946
 5872TIP3    H239108   3.480   1.114   3.350  1.1348 -1.1085  1.8876
 5873TIP3   OH239109   4.408   6.515  16.205  0.1224  0.0805  0.4834
 5873TIP3    H139110   4.460   6.448  16.160  1.8711  1.3840  0.4643
 5873TIP3    H239111   4.354   6.553  16.136 -0.6783 -1.0858  0.4377
 5874TIP3   OH239112   6.396   5.219   4.884 -0.3114  0.4728 -0.0895
 5874TIP3    H139113   6.432   5.215   4.972  0.0623  0.1967 -0.2508
 5874TIP3    H239114   6.394   5.127   4.855  0.9057  0.6691 -0.8899
 5875TIP3   OH239115   0.281   3.742   6.471 -0.1287  0.7002  0.1489
 5875TIP3    H139116   0.221   3.771   6.540  0.6939  0.0449  1.1619
 5875TIP3    H239117   0.299   3.651   6.492  1.0996  0.8404 -0.2497
 5876TIP3   OH239118   6.496   0.347   5.913  0.2878  0.4983 -0.5350
 5876TIP3    H139119   6.585   0.313   5.907  0.6655  1.3952 -0.1828
 5876TIP3    H239120   6.502   0.437   5.880 -0.6360  0.3154 -1.2160
 5877TIP3   OH239121   5.167   1.986   2.552 -0.1474 -0.0536  0.3469
 5877TIP3    H139122   5.077   1.999   2.522 -0.6601  0.8071  2.0915
 5877TIP3    H239123   5.181   2.055   2.616  1.7703 -0.1964  0.1412
 5878TIP3   OH239124   4.894   4.493   5.574 -0.0744 -0.0146 -0.3521
 5878TIP3    H139125   4.924   4.452   5.493 -1.7069 -0.8473 -0.5893
 5878TIP3    H239126   4.963   4.555   5.597  1.1074 -0.8208 -1.5738
 5879TIP3   OH239127   2.940   1.831  11.455 -0.0339  0.5609 -0.4487
 5879TIP3    H139128   2.864   1.879  11.488 -0.8018 -0.4967 -0.6368
 5879TIP3    H239129   2.903   1.751  11.417  1.1618  0.0974 -0.6685
 5880TIP3   OH239130   5.639   0.703  12.227 -0.2099  0.6593  0.3465
 5880TIP3    H139131   5.606   0.775  12.172 -0.7560 -1.3020 -2.0640
 5880TIP3    H239132   5.575   0.632  12.214  2.1901 -1.5104 -0.3903
 5881TIP3   OH239133   2.545   3.311   1.022 -0.1662 -0.4335 -0.1578
 5881TIP3    H139134   2.498   3.368   1.083 -1.6318 -1.3492 -0.3674
 5881TIP3    H239135   2.629   3.294   1.065 -1.1779 -1.1321  1.6953
 5882TIP3   OH239136   3.629   4.002   3.217  0.6220  0.0537 -0.5482
 5882TIP3    H139137   3.622   4.068   3.148  0.9360 -2.0083 -2.6738
 5882TIP3    H239138   3.567   4.031   3.284  0.8579  2.5360 -1.3300
 5883TIP3   OH239139   5.390   4.606  12.134 -0.3725 -0.1373  0.0300
 5883TIP3    H139140   5.409   4.514  12.151 -0.8781 -0.2821 -0.1735
 5883TIP3    H239141   5.322   4.628  12.198  0.2962  0.3147  0.6044
 5884TIP3   OH239142   2.937   6.509  11.235  0.3187 -0.0766  0.3098
 5884TIP3    H139143   2.941   6.569  11.160 -2.0994  0.6591  0.6694
 5884TIP3    H239144   2.926   6.422  11.196  0.5422  0.1256 -0.2100
 5885TIP3   OH239145   3.328   0.820  11.696 -0.2618 -0.4891 -0.0733
 5885TIP3    H139146   3.328   0.802  11.790 -2.5271 -0.8722 -0.0979
 5885TIP3    H239147   3.324   0.915  11.689 -0.9191 -0.4953  0.2267
 5886TIP3   OH239148   4.143   0.801  14.520  0.2265 -0.6505 -0.0743
 5886TIP3    H139149   4.073   0.806  14.454 -1.4752 -2.5484  1.4574
 5886TIP3    H239150   4.132   0.880  14.573  1.1314  0.5077 -1.5393
 5887TIP3   OH239151   4.167   6.258   3.891  0.4560 -0.8170  0.8952
 5887TIP3    H139152   4.106   6.309   3.944 -0.9889 -0.7352 -0.7474
 5887TIP3    H239153   4.250   6.307   3.896 -0.5164  0.9866  0.4897
 5888TIP3   OH239154   2.025   6.681   3.944  0.0767 -0.6793  0.0233
 5888TIP3    H139155   2.001   6.732   3.866 -0.3102  0.0078  0.5826
 5888TIP3    H239156   2.002   6.737   4.018  3.1443 -0.0576  0.6501
 5889TIP3   OH239157   5.224   5.506   4.999 -0.0081 -0.2891 -0.0008
 5889TIP3    H139158   5.214   5.422   5.043 -0.5710 -1.3505 -2.0374
 5889TIP3    H239159   5.136   5.543   4.995  0.3950  1.0407  1.9622
 5890TIP3   OH239160   6.157   5.367  12.116  0.0268  0.3985 -0.3077
 5890TIP3    H139161   6.134   5.276  12.132  1.4653 -0.0445 -0.6146
 5890TIP3    H239162   6.105   5.391  12.038 -2.8356  0.9135  1.5868
 5891TIP3   OH239163   4.040   2.318  12.559 -0.6038 -0.3860  0.5641
 5891TIP3    H139164   4.106   2.367  12.511  0.7782 -1.1925  1.5461
 5891TIP3    H239165   4.009   2.252  12.497 -1.1792  0.5848 -0.1955
 5892TIP3   OH239166   5.542   2.406   4.063  0.1240 -0.5889 -0.4933
 5892TIP3    H139167   5.586   2.453   4.133 -0.9761 -0.7244  0.3295
 5892TIP3    H239168   5.542   2.314   4.092 -0.2280 -0.6619 -0.7140
 5893TIP3   OH239169   3.799   3.810   1.988 -0.2976  0.2781 -0.3262
 5893TIP3    H139170   3.791   3.824   2.083 -1.2635 -1.2464 -0.1522
 5893TIP3    H239171   3.822   3.896   1.954 -3.5164  1.8358  0.9050
 5894TIP3   OH239172   1.646   4.711   6.229  0.1374 -0.2642  0.5877
 5894TIP3    H139173   1.673   4.620   6.239 -1.1839 -0.8767 -0.9456
 5894TIP3    H239174   1.722   4.755   6.191  0.5085 -0.9080  0.5745
 5895TIP3   OH239175   6.164   5.771   3.101 -0.0332  0.3126 -0.0407
 5895TIP3    H139176   6.176   5.793   3.194 -1.8735 -0.2873  0.3807
 5895TIP3    H239177   6.083   5.720   3.099  0.6723 -0.8231 -1.8312
 5896TIP3   OH239178   3.638   3.182  16.330  0.1253  0.1077  0.6825
 5896TIP3    H139179   3.601   3.264  16.296 -0.2633 -0.7176 -0.9760
 5896TIP3    H239180   3.730   3.186  16.306 -0.0209 -0.2016  0.0552
 5897TIP3   OH239181   3.160   2.020   3.663 -0.1022  0.6363 -0.3235
 5897TIP3    H139182   3.251   2.017   3.633 -0.9835  0.0872 -3.2364
 5897TIP3    H239183   3.121   1.939   3.630 -1.9644  1.4425 -0.2255
 5898TIP3   OH239184   3.055   3.284  16.228  0.2121 -0.0338  0.1974
 5898TIP3    H139185   3.000   3.230  16.284 -0.7918  0.7147 -0.0262
 5898TIP3    H239186   3.044   3.373  16.262 -1.5142  0.6666 -1.9539
 5899TIP3   OH239187   1.610   3.630   5.688  0.0431  0.2337 -0.2414
 5899TIP3    H139188   1.668   3.640   5.763 -0.2213 -0.3089  0.0387
 5899TIP3    H239189   1.602   3.535   5.676 -1.7088  0.2625  0.4331
 5900TIP3   OH239190   4.200   3.251   4.386 -0.0564 -0.3395 -0.0379
 5900TIP3    H139191   4.262   3.295   4.329  1.4367  0.0939  1.8527
 5900TIP3    H239192   4.114   3.278   4.353  0.7433  0.1033 -1.8766
 5901TIP3   OH239193   5.907   0.125   0.362  0.2048 -0.2291  0.1556
 5901TIP3    H139194   5.935   0.047   0.409 -3.6443 -1.4637  0.7694
 5901TIP3    H239195   5.858   0.092   0.287  0.4832  1.6697 -0.9408
 5902TIP3   OH239196   0.185   4.622  10.868 -0.0922 -0.2022 -0.2310
 5902TIP3    H139197   0.250   4.692  10.868 -1.5496  1.2084 -0.0666
 5902TIP3    H239198   0.169   4.604  10.961 -1.5234  1.0482 -0.1956
 5903TIP3   OH239199   0.315   6.016   4.070  0.5714 -0.2133 -0.1912
 5903TIP3    H139200   0.385   6.069   4.107 -0.6098  2.2236 -1.2365
 5903TIP3    H239201   0.238   6.037   4.123 -0.1956  0.0515 -1.3820
 5904TIP3   OH239202   3.367   0.531  16.455 -0.8355  0.1023  0.3379
 5904TIP3    H139203   3.338   0.602  16.398 -0.4330 -0.8949 -1.1711
 5904TIP3    H239204   3.355   0.565  16.543 -0.1566  2.2479 -0.3336
 5905TIP3   OH239205   3.905   3.822  13.123 -0.0760  0.3285 -0.1432
 5905TIP3    H139206   3.994   3.822  13.158 -0.0760  1.8718 -0.0679
 5905TIP3    H239207   3.903   3.748  13.063  1.2707  0.2777 -0.1669
 5906TIP3   OH239208   2.650   5.195   4.813 -0.3936 -0.4354  0.8257
 5906TIP3    H139209   2.607   5.118   4.776  1.3867 -0.7163 -0.8509
 5906TIP3    H239210   2.731   5.204   4.762  0.2604  1.5725  2.0875
 5907TIP3   OH239211   6.335   5.994  13.485  0.6341 -0.4542  0.1905
 5907TIP3    H139212   6.323   6.088  13.489  2.7100 -0.1703  0.4606
 5907TIP3    H239213   6.347   5.967  13.576  1.2384 -0.8049  0.0118
 5908TIP3   OH239214   1.890   2.842   1.058 -0.0507 -0.0283  0.0196
 5908TIP3    H139215   1.849   2.784   1.122 -0.8853 -0.6928 -1.0800
 5908TIP3    H239216   1.968   2.876   1.102  0.4334 -1.9449  0.7213
 5909TIP3   OH239217   2.136   0.122  12.745 -0.4981 -0.2877 -0.6983
 5909TIP3    H139218   2.212   0.095  12.693 -0.4844  1.1386 -1.4950
 5909TIP3    H239219   2.132   0.217  12.733 -2.1323 -0.2734 -0.3036
 5910TIP3   OH239220   4.943   5.765  11.608 -0.3266 -0.3242  0.3203
 5910TIP3    H139221   4.856   5.727  11.605 -0.8761  0.7729  1.6820
 5910TIP3    H239222   4.974   5.750  11.697  1.0736 -1.0664 -0.2468
 5911TIP3   OH239223   4.576   0.285  12.878  0.2116 -0.0776 -0.2744
 5911TIP3    H139224   4.517   0.289  12.802  2.3919  0.3394 -2.0500
 5911TIP3    H239225   4.605   0.194  12.881 -1.2780 -0.5415  1.2662
 5912TIP3   OH239226   4.041   1.373   2.535  0.5924  0.2103 -0.4183
 5912TIP3    H139227   3.991   1.343   2.610 -0.5883 -1.2769 -1.7445
 5912TIP3    H239228   4.072   1.460   2.561  0.1034 -0.1791  1.7035
 5913TIP3   OH239229   5.329   5.748  13.853  0.2038  0.0556  0.3332
 5913TIP3    H139230   5.366   5.766  13.766  1.4424  1.3562  1.0991
 5913TIP3    H239231   5.342   5.828  13.902  1.0346 -1.1816  2.2451
 5914TIP3   OH239232   2.325   1.021   6.495  0.1073 -0.1074  0.3022
 5914TIP3    H139233   2.316   1.004   6.589  2.0785 -0.3101  0.5088
 5914TIP3    H239234   2.303   1.114   6.486  1.5765  0.3946  1.3071
 5915TIP3   OH239235   3.580   4.013   2.025  0.5752  0.0000  0.5910
 5915TIP3    H139236   3.560   3.947   2.092  0.2462 -0.0854  0.4094
 5915TIP3    H239237   3.648   3.972   1.971 -0.5808 -0.7514 -0.3462
 5916TIP3   OH239238   3.794   1.339  15.566  0.4102 -0.1755 -0.0024
 5916TIP3    H139239   3.748   1.268  15.521 -0.8136 -0.5590  1.7468
 5916TIP3    H239240   3.855   1.295  15.625  0.0792  0.2170  0.6490
 5917TIP3   OH239241   4.225   6.404   2.012 -0.3117  0.7207 -0.0922
 5917TIP3    H139242   4.151   6.432   2.067 -0.2705  1.2442 -0.2977
 5917TIP3    H239243   4.194   6.325   1.969 -0.2520  0.1436  0.8911
 5918TIP3   OH239244   5.915   1.701   3.721 -0.0205 -0.2989  0.6394
 5918TIP3    H139245   5.902   1.781   3.671 -1.9882  0.6022  2.4586
 5918TIP3    H239246   6.003   1.672   3.696  0.5526  2.1140 -0.4547
 5919TIP3   OH239247   0.504   4.813   4.252  0.1184  0.1051 -0.3894
 5919TIP3    H139248   0.518   4.897   4.208  2.8943  0.9968  1.9461
 5919TIP3    H239249   0.549   4.749   4.197  2.1493  0.9492  0.2158
 5920TIP3   OH239250   1.533   3.324  15.737  0.0008  0.0356 -0.4662
 5920TIP3    H139251   1.492   3.316  15.651  0.3362  0.5956 -0.6831
 5920TIP3    H239252   1.563   3.235  15.758 -1.8868 -0.5326 -0.0022
 5921TIP3   OH239253   3.602   1.662  14.272 -0.1830 -0.0433 -0.4659
 5921TIP3    H139254   3.539   1.599  14.237  0.5805 -0.6444 -0.7737
 5921TIP3    H239255   3.688   1.624  14.254  0.3129  1.3145 -1.1297
 5922TIP3   OH239256   0.519   2.907   0.766 -0.3437  0.5251  0.4973
 5922TIP3    H139257   0.582   2.901   0.837  3.6002  1.7826 -2.4788
 5922TIP3    H239258   0.517   2.819   0.727 -1.8005  0.0732  1.5007
 5923TIP3   OH239259   2.203   5.587   0.462 -0.3024  0.3132 -0.0950
 5923TIP3    H139260   2.211   5.576   0.557 -1.0564 -0.5175 -0.1058
 5923TIP3    H239261   2.225   5.678   0.446  3.1934 -0.3171  0.4563
 5924TIP3   OH239262   6.373   5.410   3.594 -0.6061  0.2922 -0.8848
 5924TIP3    H139263   6.449   5.359   3.566 -0.5605 -0.3343  0.3092
 5924TIP3    H239264   6.403   5.456   3.673 -1.3315  0.3978 -0.6666
 5925TIP3   OH239265   4.663   3.395  13.812  0.0793  0.3751  0.0589
 5925TIP3    H139266   4.629   3.393  13.902  1.6166  0.1314  0.6713
 5925TIP3    H239267   4.619   3.322  13.768 -0.9092  0.6789  0.5183
 5926TIP3   OH239268   5.783   3.251  11.208 -0.2231 -0.0063 -0.5495
 5926TIP3    H139269   5.808   3.167  11.169  2.6680  0.9342 -0.9111
 5926TIP3    H239270   5.759   3.229  11.298  3.2246 -0.9709  0.2699
 5927TIP3   OH239271   1.768   0.433  12.483 -0.0162 -0.2316 -0.1503
 5927TIP3    H139272   1.860   0.410  12.493 -0.1735 -0.7691  0.1164
 5927TIP3    H239273   1.769   0.525  12.455  0.5772 -0.0646  0.3907
 5928TIP3   OH239274   0.993   5.321  11.505 -0.7514 -0.5110  0.0626
 5928TIP3    H139275   1.057   5.270  11.455  0.6406  1.8032 -0.6984
 5928TIP3    H239276   0.945   5.371  11.439 -0.9087  0.3960  0.8355
 5929TIP3   OH239277   4.548   6.389   5.132  0.0807 -0.0949  0.7951
 5929TIP3    H139278   4.558   6.363   5.223 -1.6013 -3.5734  0.1658
 5929TIP3    H239279   4.635   6.379   5.094  0.3862 -0.5845  1.6012
 5930TIP3   OH239280   2.598   5.015   0.083 -0.1713  0.0094  0.0046
 5930TIP3    H139281   2.527   5.078   0.084  0.2171  0.4545 -0.0933
 5930TIP3    H239282   2.671   5.060   0.127 -0.6348 -1.2571  2.2501
 5931TIP3   OH239283   6.025   4.619   1.774 -0.1325 -0.8149  0.3278
 5931TIP3    H139284   6.002   4.539   1.727  0.5307 -0.4362 -0.6932
 5931TIP3    H239285   5.960   4.626   1.843 -0.1350 -2.2935  0.5152
 5932TIP3   OH239286   5.632   5.871   0.107 -0.0166 -0.3638  0.0159
 5932TIP3    H139287   5.546   5.901   0.076 -0.5427 -1.6312  0.1937
 5932TIP3    H239288   5.675   5.951   0.137  0.2059  0.8752 -3.1170
 5933TIP3   OH239289   6.119   6.699  15.972  0.0150 -0.9092  0.3551
 5933TIP3    H139290   6.035   6.727  16.008  0.5320  0.3591  0.6359
 5933TIP3    H239291   6.145   6.770  15.912  1.1542 -0.9853  0.7309
 5934TIP3   OH239292   5.236   5.059  14.506  0.5255  1.0118 -0.0362
 5934TIP3    H139293   5.293   4.999  14.457  0.8976  0.6553  0.8211
 5934TIP3    H239294   5.294   5.097  14.572  0.0733  1.6542 -0.0056
 5935TIP3   OH239295   4.614   1.209  11.252 -0.0267  0.0174  0.1604
 5935TIP3    H139296   4.679   1.140  11.242  0.7211  1.0085 -3.3237
 5935TIP3    H239297   4.655   1.273  11.310  1.7648  0.1740 -1.2140
 5936TIP3   OH239298   2.057   2.346  13.913  0.0697  0.0494 -0.4344
 5936TIP3    H139299   2.058   2.385  13.825 -1.7163  0.7472 -0.1855
 5936TIP3    H239300   2.121   2.396  13.963  2.1462 -1.2384 -1.6380
 5937TIP3   OH239301   4.486   2.058   0.248 -0.1429  0.1126 -0.3180
 5937TIP3    H139302   4.547   1.995   0.287  0.8992  1.7676  0.8466
 5937TIP3    H239303   4.406   2.007   0.231  1.1341 -1.8338 -0.7727
 5938TIP3   OH239304   0.013   3.013   3.958 -0.6152  0.2210 -0.0469
 5938TIP3    H139305  -0.031   3.003   3.873  0.7272  0.0620 -0.7613
 5938TIP3    H239306  -0.016   3.098   3.991 -0.0489  0.9628 -1.3679
 5939TIP3   OH239307   5.806   2.904   1.369 -0.1112  0.0442 -0.3948
 5939TIP3    H139308   5.869   2.971   1.397 -0.7310  0.8605 -0.8882
 5939TIP3    H239309   5.817   2.901   1.274 -1.2346  0.6417 -0.5542
 5940TIP3   OH239310   4.517   0.817   2.211 -0.0915 -0.2495  0.6515
 5940TIP3    H139311   4.585   0.857   2.265  1.0776 -1.9442  0.5195
 5940TIP3    H239312   4.545   0.834   2.121 -0.0303 -0.6271  0.5966
 5941TIP3   OH239313   4.864   0.473   1.533  0.0067  0.2088  0.0621
 5941TIP3    H139314   4.873   0.546   1.594  0.5839  0.0432  0.1779
 5941TIP3    H239315   4.873   0.394   1.587  2.6205  0.0391 -0.4884
 5942TIP3   OH239316   2.122   1.186   3.548 -0.2579 -0.0772 -0.1512
 5942TIP3    H139317   2.119   1.118   3.615 -0.5511  1.4472  1.4486
 5942TIP3    H239318   2.060   1.157   3.481  0.0732 -1.6489  0.2001
 5943TIP3   OH239319   1.146   6.789   3.626  0.0576 -0.2567 -0.5348
 5943TIP3    H139320   1.072   6.729   3.615 -1.1275  1.3344 -1.8663
 5943TIP3    H239321   1.123   6.865   3.572  2.3991  0.5661 -0.4918
 5944TIP3   OH239322   6.056   4.076  14.615 -0.3004 -0.5304 -0.4365
 5944TIP3    H139323   6.085   4.149  14.670  1.9764 -1.4461 -0.2930
 5944TIP3    H239324   5.994   4.114  14.554  1.3192  1.6761 -0.7965
 5945TIP3   OH239325   4.149   5.991   3.867  0.3283  0.1783 -0.0492
 5945TIP3    H139326   4.111   6.078   3.881 -0.2545 -0.1555  0.4770
 5945TIP3    H239327   4.080   5.930   3.892  1.6406 -0.4753  2.3141
 5946TIP3   OH239328   0.380   0.259   1.400 -0.6270  0.1527  0.2260
 5946TIP3    H139329   0.311   0.262   1.467 -0.9864 -0.8127 -0.0951
 5946TIP3    H239330   0.360   0.182   1.348  0.9523 -0.4068  0.3932
 5947TIP3   OH239331   3.828   4.189   2.806 -0.5089  0.2676  0.2269
 5947TIP3    H139332   3.898   4.214   2.867  0.9595  0.1492 -1.3239
 5947TIP3    H239333   3.843   4.095   2.790 -0.7986  0.3197 -0.3811
 5948TIP3   OH239334   2.295   0.859   1.058 -0.1660 -0.3623 -0.2250
 5948TIP3    H139335   2.208   0.833   1.089 -0.1565 -1.6999 -1.2528
 5948TIP3    H239336   2.296   0.955   1.066 -0.9874 -0.4719  1.6813
 5949TIP3   OH239337   5.040   1.417   0.712  0.1580 -0.2391 -0.1518
 5949TIP3    H139338   5.042   1.371   0.796  0.0047  0.1204  0.0536
 5949TIP3    H239339   5.028   1.509   0.736  1.4760  0.0493 -0.5034
 5950TIP3   OH239340   6.523   3.810  11.340  0.3502  0.0543 -0.0242
 5950TIP3    H139341   6.544   3.880  11.278 -0.4107  0.3653  0.0534
 5950TIP3    H239342   6.461   3.850  11.401  0.8255 -0.3470  0.7362
 5951TIP3   OH239343   6.169   1.171   5.256  0.5473  0.2534 -0.1384
 5951TIP3    H139344   6.211   1.233   5.316 -1.3758 -1.3274  3.1056
 5951TIP3    H239345   6.082   1.209   5.240  0.8598  0.4078 -1.6136
 5952TIP3   OH239346   2.317   2.947   1.524 -0.0955  0.0685  0.7678
 5952TIP3    H139347   2.294   2.856   1.508 -0.3908  0.3449 -0.4286
 5952TIP3    H239348   2.235   2.988   1.552  0.1663 -0.1461  1.9266
 5953TIP3   OH239349   4.604   3.911  12.144  0.3679  0.6255 -0.7191
 5953TIP3    H139350   4.665   3.881  12.212 -1.1056 -1.2646 -0.1679
 5953TIP3    H239351   4.586   4.002  12.168 -0.4648 -0.0965  1.7466
 5954TIP3   OH239352   4.204   2.065   3.835  0.0540  0.0998 -0.1792
 5954TIP3    H139353   4.196   2.043   3.742 -1.6423  1.2198 -0.3394
 5954TIP3    H239354   4.133   2.127   3.852  0.2078 -0.2086  1.9187
 5955TIP3   OH239355   2.663   4.606  11.208 -0.1845  0.0614 -0.4928
 5955TIP3    H139356   2.568   4.602  11.198 -0.1837 -1.5041 -0.1470
 5955TIP3    H239357   2.678   4.589  11.301  0.4308  0.4787 -0.5087
 5956TIP3   OH239358   4.338   3.973   4.850 -0.6639 -0.4134  0.2621
 5956TIP3    H139359   4.323   4.032   4.924  0.0375 -2.2124  1.9150
 5956TIP3    H239360   4.277   4.003   4.782 -0.2345  2.2640  0.9510
 5957TIP3   OH239361   3.201   5.651  11.381  0.2047 -0.3895 -0.0221
 5957TIP3    H139362   3.128   5.712  11.388  1.7143  1.4419  0.6270
 5957TIP3    H239363   3.279   5.703  11.401  1.7237 -2.2443 -0.6976
 5958TIP3   OH239364   5.260   0.677   3.634 -0.1848  0.0086 -0.8386
 5958TIP3    H139365   5.199   0.703   3.704 -1.9297 -0.8940 -1.9546
 5958TIP3    H239366   5.318   0.613   3.676  0.2285  1.1180  0.3307
 5959TIP3   OH239367   0.877   1.128  11.384  0.2410 -0.8823 -0.9210
 5959TIP3    H139368   0.904   1.188  11.453 -0.8281 -2.0737  0.5974
 5959TIP3    H239369   0.853   1.185  11.311 -3.0243  0.8251  1.2196
 5960TIP3   OH239370   0.898   2.010  13.043  0.0934 -0.0432  0.2585
 5960TIP3    H139371   0.936   2.087  13.000  1.5725 -0.0006  1.5573
 5960TIP3    H239372   0.892   1.944  12.974  3.7647 -0.4788  0.2017
 5961TIP3   OH239373   6.006   5.251   1.254 -0.3268  0.5975 -0.4882
 5961TIP3    H139374   6.013   5.243   1.159  0.9457 -0.0299 -0.3518
 5961TIP3    H239375   6.010   5.161   1.287 -0.2853  0.8378  0.1868
 5962TIP3   OH239376   0.527   5.247  15.692 -0.0873 -0.9187 -0.0231
 5962TIP3    H139377   0.497   5.336  15.671 -0.0580 -0.4282  1.7877
 5962TIP3    H239378   0.478   5.190  15.633 -0.9459  0.2249 -0.4551
 5963TIP3   OH239379   4.005   1.501  13.784 -0.5139 -0.1899 -0.4780
 5963TIP3    H139380   4.087   1.472  13.744  0.8953  2.3465  0.3521
 5963TIP3    H239381   3.994   1.592  13.755 -1.4298  0.5086  1.7951
 5964TIP3   OH239382   6.771   5.635   4.400  1.0843  0.2150 -0.2581
 5964TIP3    H139383   6.792   5.657   4.309 -1.5007  0.6782 -0.8082
 5964TIP3    H239384   6.683   5.670   4.414  0.2634 -2.2904  1.5683
 5965TIP3   OH239385   0.732   4.194  11.725 -0.4786 -0.4145  0.2306
 5965TIP3    H139386   0.725   4.190  11.820 -0.7710 -0.1573  0.2250
 5965TIP3    H239387   0.739   4.103  11.697  2.5665 -0.4068  0.6850
 5966TIP3   OH239388   0.611   3.231  11.539  0.5711  0.4585  0.1142
 5966TIP3    H139389   0.597   3.268  11.452 -0.5995  1.0861  0.5517
 5966TIP3    H239390   0.706   3.228  11.549  0.8122 -1.5476 -1.9776
 5967TIP3   OH239391   4.231   6.104  11.211 -0.4150 -0.3012 -0.4226
 5967TIP3    H139392   4.177   6.040  11.257 -1.9704 -0.4106 -2.2711
 5967TIP3    H239393   4.174   6.180  11.200  0.1035 -0.0515 -1.5629
 5968TIP3   OH239394   6.710   1.638  11.015  0.2216 -0.1267 -0.6170
 5968TIP3    H139395   6.723   1.675  10.928  0.2692 -0.7331 -0.8770
 5968TIP3    H239396   6.799   1.621  11.047  0.3026  1.8232  0.3406
 5969TIP3   OH239397   1.398   1.099   0.019 -0.4486  0.1387 -0.2459
 5969TIP3    H139398   1.421   1.182   0.061  1.8690  0.1876 -1.4886
 5969TIP3    H239399   1.302   1.101   0.014 -0.6601  1.3239  2.5162
 5970TIP3   OH239400   0.631   6.822   3.282 -0.1389  0.0951  0.4972
 5970TIP3    H139401   0.547   6.796   3.245  0.4044 -0.5719 -0.3216
 5970TIP3    H239402   0.671   6.876   3.214 -0.2004  0.9963  1.1718
 5971TIP3   OH239403   5.341   4.669   3.935  0.3718  0.2479  0.7153
 5971TIP3    H139404   5.251   4.697   3.917  0.8653  0.2623 -2.1615
 5971TIP3    H239405   5.389   4.751   3.950  0.2848  0.3803  0.2725
 5972TIP3   OH239406   5.906   2.249   0.872  1.1349  0.2907  0.5770
 5972TIP3    H139407   5.968   2.271   0.942  1.0126  1.1480  0.4145
 5972TIP3    H239408   5.960   2.207   0.805  1.5398  0.9877  0.4581
 5973TIP3   OH239409   3.593   0.537  12.363  0.6374  0.3265  0.2633
 5973TIP3    H139410   3.665   0.545  12.426  1.0115 -1.9105  0.2056
 5973TIP3    H239411   3.636   0.535  12.278  0.3465  0.7970  0.1026
 5974TIP3   OH239412   0.228   1.548   3.464 -0.6916  0.1605 -0.1723
 5974TIP3    H139413   0.252   1.631   3.505 -0.2430  0.3333 -0.7651
 5974TIP3    H239414   0.133   1.551   3.457 -0.6911  0.5483 -0.0231
 5975TIP3   OH239415   0.121   1.646   1.443  0.0899  0.0191 -0.2416
 5975TIP3    H139416   0.176   1.724   1.435  2.5606 -1.6507 -0.7728
 5975TIP3    H239417   0.107   1.616   1.353 -1.3686  0.1573 -0.0834
 5976TIP3   OH239418   5.685   4.684  13.801 -0.3495 -0.0443  0.0262
 5976TIP3    H139419   5.732   4.738  13.865 -1.6860  2.2006 -0.7584
 5976TIP3    H239420   5.668   4.744  13.728 -1.0836 -1.8371 -1.3455
 5977TIP3   OH239421   4.085   4.820   1.401 -0.0075  0.0010  0.5897
 5977TIP3    H139422   4.070   4.728   1.421  0.6941 -0.0898  0.7095
 5977TIP3    H239423   4.024   4.839   1.330 -1.5604 -0.0268  1.8637
 5978TIP3   OH239424   4.802   3.150  14.073 -0.6276  0.2154 -0.2985
 5978TIP3    H139425   4.758   3.068  14.095  1.2313 -0.7628 -0.0865
 5978TIP3    H239426   4.818   3.144  13.979  0.3203 -0.0934 -0.1268
 5979TIP3   OH239427   1.671   1.820  10.652 -0.0120  0.0822  0.0429
 5979TIP3    H139428   1.629   1.768  10.721  0.9452  0.2211  0.7475
 5979TIP3    H239429   1.613   1.811  10.577 -0.7014 -0.6759  0.6476
 5980TIP3   OH239430   1.938   1.967  12.332  0.1180  0.6174  0.0976
 5980TIP3    H139431   2.016   2.008  12.370  1.9114 -1.4904 -1.0193
 5980TIP3    H239432   1.895   1.925  12.405  2.3535 -1.6048  0.2785
 5981TIP3   OH239433   5.631   0.020  16.482 -0.2915  0.1064  0.2613
 5981TIP3    H139434   5.637  -0.015  16.571  0.6555  0.9965  0.5697
 5981TIP3    H239435   5.579   0.100  16.492 -1.8801 -0.8126 -0.3273
 5982TIP3   OH239436   0.988   4.307  11.699 -0.4474  0.1378 -0.2533
 5982TIP3    H139437   0.894   4.291  11.708 -0.3668 -0.4250 -0.3764
 5982TIP3    H239438   1.008   4.372  11.766 -0.1955 -2.5919  2.5547
 5983TIP3   OH239439   1.035   1.970  14.582  0.5506  0.8537 -0.2497
 5983TIP3    H139440   0.993   2.055  14.591  1.1055  1.0885  0.1309
 5983TIP3    H239441   1.073   1.952  14.668  0.0412  0.0093 -0.1814
 5984TIP3   OH239442   3.839   1.568   2.110 -0.8705  0.3632 -0.0746
 5984TIP3    H139443   3.829   1.524   2.194  1.2344 -1.7269 -0.8116
 5984TIP3    H239444   3.850   1.497   2.047 -2.2910  1.8543 -2.1545
 5985TIP3   OH239445   1.548   6.667   4.629 -0.3410 -0.0871  0.5407
 5985TIP3    H139446   1.574   6.756   4.651  0.5326 -0.2036  0.0354
 5985TIP3    H239447   1.466   6.653   4.676 -1.7051  1.7698 -1.1240
 5986TIP3   OH239448   2.975   3.321  14.806 -0.1479  0.4769 -0.5044
 5986TIP3    H139449   2.880   3.323  14.808 -0.2895  1.4386 -3.5411
 5986TIP3    H239450   3.001   3.412  14.788  1.3818  0.2618  0.3769
 5987TIP3   OH239451   5.360   0.501   4.969  0.0326 -0.1064  0.4950
 5987TIP3    H139452   5.391   0.542   5.050 -0.6933  0.4589  0.5007
 5987TIP3    H239453   5.365   0.571   4.904  2.4679 -1.0600 -0.4484
 5988TIP3   OH239454   1.078   4.677   1.625  0.1506 -0.1504  0.8039
 5988TIP3    H139455   1.025   4.745   1.667 -1.2620 -0.4730 -0.3829
 5988TIP3    H239456   1.130   4.725   1.561  0.0368 -0.0354  0.7953
 5989TIP3   OH239457   0.845   1.063  13.651 -0.0855  0.0302  0.1812
 5989TIP3    H139458   0.801   1.065  13.736 -0.4861  0.4874 -0.0267
 5989TIP3    H239459   0.861   0.970  13.634 -1.0226 -0.1555  0.2450
 5990TIP3   OH239460   5.418   5.943  14.407  0.1848  0.1867 -0.0882
 5990TIP3    H139461   5.438   5.984  14.491 -0.8306  0.3839  0.0650
 5990TIP3    H239462   5.372   5.862  14.429  0.0231  0.1775 -0.4505
 5991TIP3   OH239463   3.894   6.206   0.526  0.3619 -0.0105 -0.2772
 5991TIP3    H139464   3.822   6.193   0.464  0.7934  0.2757 -0.8479
 5991TIP3    H239465   3.929   6.118   0.540  3.0739  0.2509 -3.8840
 5992TIP3   OH239466   2.692   4.380  11.858 -0.6760  0.3839  0.1959
 5992TIP3    H139467   2.734   4.367  11.774 -2.5996  0.0474 -0.7736
 5992TIP3    H239468   2.645   4.297  11.875  0.0263  0.2693  1.8235
 5993TIP3   OH239469   0.726   0.708  15.167 -0.5711 -0.7296 -0.5088
 5993TIP3    H139470   0.636   0.706  15.134 -0.2605 -0.3141 -1.4166
 5993TIP3    H239471   0.779   0.726  15.089  0.3899 -2.0141 -0.1791
 5994TIP3   OH239472   1.343   2.549  16.765  0.7557 -0.2713  0.5859
 5994TIP3    H139473   1.295   2.603  16.702  0.9761 -1.4691 -0.6684
 5994TIP3    H239474   1.435   2.562  16.743  0.7854 -1.7025 -0.2402
 5995TIP3   OH239475   4.293   1.250   1.314  0.1738 -0.1070  0.4094
 5995TIP3    H139476   4.355   1.184   1.346  1.3701  0.9509  0.3262
 5995TIP3    H239477   4.260   1.292   1.393 -0.5673 -0.7497  0.4607
 5996TIP3   OH239478   3.427   4.012   1.544  0.0995  0.0630 -0.0093
 5996TIP3    H139479   3.468   3.954   1.479  2.5440 -1.5416  2.6957
 5996TIP3    H239480   3.386   3.952   1.607  1.0109  1.2912  1.8522
 5997TIP3   OH239481   1.108   2.430  13.969 -0.3318 -0.2016  0.0987
 5997TIP3    H139482   1.019   2.395  13.963 -0.1782 -0.7600  0.8430
 5997TIP3    H239483   1.145   2.387  14.047  0.8538 -0.5683 -0.6439
 5998TIP3   OH239484   1.468   5.755  10.594  0.2983 -0.6927  0.9604
 5998TIP3    H139485   1.497   5.672  10.632  1.1703 -0.7271  0.2520
 5998TIP3    H239486   1.500   5.753  10.504 -0.9875 -0.2449  0.4594
 5999TIP3   OH239487   6.714   1.508   0.711 -0.0403 -0.3171  0.1634
 5999TIP3    H139488   6.675   1.579   0.761  0.0704 -0.2818  0.1987
 5999TIP3    H239489   6.753   1.550   0.634  0.4183 -0.2845  0.4116
 6000TIP3   OH239490   4.530   4.553  11.078  0.0763  0.5817 -0.1928
 6000TIP3    H139491   4.572   4.579  10.996  0.9212  1.3297  0.4616
 6000TIP3    H239492   4.474   4.627  11.102 -0.7671  0.0579 -0.4660
 6001TIP3   OH239493   1.380   5.011  12.540  0.1958 -0.1694  0.1539
 6001TIP3    H139494   1.395   4.920  12.565 -0.1979 -1.0533 -2.5302
 6001TIP3    H239495   1.310   5.007  12.475 -0.9328  2.2489  1.1215
 6002TIP3   OH239496   4.728   1.647  15.433  0.4339  0.0470  0.2086
 6002TIP3    H139497   4.695   1.696  15.509  2.2853  3.7047 -1.1009
 6002TIP3    H239498   4.650   1.605  15.397 -0.9451  0.3495  2.6021
 6003TIP3   OH239499   5.096   6.438   3.810  0.2382 -0.5653  0.2602
 6003TIP3    H139500   5.079   6.357   3.763 -0.8476  0.8243 -1.8895
 6003TIP3    H239501   5.046   6.430   3.891 -0.3474 -1.7823 -0.2087
 6004TIP3   OH239502   5.149   5.298  15.708 -0.0648  0.0706  0.0688
 6004TIP3    H139503   5.230   5.260  15.675 -0.4272 -0.3822 -0.3136
 6004TIP3    H239504   5.166   5.316  15.801  1.2215  2.0247 -0.4747
 6005TIP3   OH239505   0.018   0.965  16.832 -0.4715 -0.0341 -0.1875
 6005TIP3    H139506   0.052   0.902  16.895 -1.6289 -0.9348 -0.4089
 6005TIP3    H239507  -0.064   0.926  16.802 -1.0146  1.3931 -0.6568
 6006TIP3   OH239508   2.543   4.154   0.327 -0.0179 -0.2291 -0.3942
 6006TIP3    H139509   2.468   4.204   0.294  0.2336  0.5638  0.1893
 6006TIP3    H239510   2.618   4.186   0.275 -0.0448 -0.8968 -0.8609
 6007TIP3   OH239511   0.354   5.763  13.239  0.2305  0.5962 -0.3987
 6007TIP3    H139512   0.359   5.803  13.152  1.4988  0.9086 -0.2025
 6007TIP3    H239513   0.298   5.823  13.289  0.4549  1.0359 -0.6685
 6008TIP3   OH239514   2.766   3.565   0.703 -0.3644  0.2903  0.0993
 6008TIP3    H139515   2.848   3.582   0.748 -0.3314  1.6186 -0.4317
 6008TIP3    H239516   2.770   3.619   0.624 -1.3933 -0.2566 -0.3472
 6009TIP3   OH239517   0.541   6.351  13.549 -0.3473 -0.2774  0.3397
 6009TIP3    H139518   0.572   6.296  13.477 -0.2837  2.0907 -1.5819
 6009TIP3    H239519   0.451   6.374  13.525 -0.2648  0.6941  0.8836
 6010TIP3   OH239520   2.259   1.966   2.234 -0.5604  0.1890  0.0731
 6010TIP3    H139521   2.232   1.933   2.319 -1.9271  0.3812 -0.2606
 6010TIP3    H239522   2.244   2.060   2.239 -1.3297  0.1156 -0.5989
 6011TIP3   OH239523   3.158   2.795  13.332  0.0052 -0.2186 -0.2376
 6011TIP3    H139524   3.130   2.860  13.268 -1.2893  0.2776  0.7844
 6011TIP3    H239525   3.209   2.731  13.281 -1.1212  0.0715 -1.7890
 6012TIP3   OH239526   5.615   6.616  10.774  0.4854 -0.3881 -0.3204
 6012TIP3    H139527   5.544   6.620  10.837  0.1818 -2.3530 -0.4859
 6012TIP3    H239528   5.617   6.703  10.734  0.5319  0.8325  2.1836
 6013TIP3   OH239529   2.337   3.695   4.416 -0.0547 -0.2154 -0.0876
 6013TIP3    H139530   2.310   3.774   4.369  0.0949  0.5640  1.1163
 6013TIP3    H239531   2.388   3.727   4.490  1.3937 -1.5079 -0.4645
 6014TIP3   OH239532   4.380   4.103   3.248  0.2646 -0.0591  0.1917
 6014TIP3    H139533   4.358   4.036   3.312 -0.1823 -1.9318 -1.7833
 6014TIP3    H239534   4.471   4.084   3.225  0.4576  0.6635  0.3513
 6015TIP3   OH239535   2.457   5.055  11.377 -0.1858  0.4284 -0.2134
 6015TIP3    H139536   2.455   5.085  11.468 -0.3275 -1.3895  0.4251
 6015TIP3    H239537   2.533   4.996  11.373 -0.9536 -0.5407 -0.9059
 6016TIP3   OH239538   1.713   2.841   1.724 -0.6071  0.5136  0.1038
 6016TIP3    H139539   1.619   2.840   1.740 -1.3412  4.2806 -2.7695
 6016TIP3    H239540   1.742   2.925   1.759  1.4042  0.1361 -0.5409
 6017TIP3   OH239541   3.438   0.796  14.341  0.4403  0.0249 -0.3509
 6017TIP3    H139542   3.440   0.872  14.283 -0.5138 -0.2032 -0.7137
 6017TIP3    H239543   3.437   0.721  14.280 -2.1286 -0.2038 -0.1552
 6018TIP3   OH239544   3.469   5.190   2.221  0.0799 -0.1583 -0.1090
 6018TIP3    H139545   3.556   5.149   2.222 -0.9380 -2.5267 -1.0472
 6018TIP3    H239546   3.449   5.205   2.313  1.8760  1.4279  0.0851
 6019TIP3   OH239547   6.260   1.075   0.801  0.1607  0.2246  0.5152
 6019TIP3    H139548   6.190   1.137   0.820 -1.5091 -0.9111 -1.5218
 6019TIP3    H239549   6.313   1.118   0.734 -1.2804 -0.6421 -1.2574
 6020TIP3   OH239550   1.714   1.214   1.959 -0.2153 -0.3538 -0.1802
 6020TIP3    H139551   1.765   1.283   2.002 -1.7219  0.8745 -0.2876
 6020TIP3    H239552   1.722   1.235   1.865 -0.1745 -0.6972 -0.2523
 6021TIP3   OH239553   2.580   1.846   5.400  0.6607  0.3037 -0.2711
 6021TIP3    H139554   2.573   1.940   5.414 -0.8783 -0.0200  1.6291
 6021TIP3    H239555   2.594   1.810   5.488 -0.8346 -1.3780 -0.6653
 6022TIP3   OH239556   5.209   6.837  14.250 -0.4663  0.1952 -0.3467
 6022TIP3    H139557   5.249   6.752  14.233 -0.6254  0.4634 -2.2741
 6022TIP3    H239558   5.273   6.901  14.217 -0.2309  0.8911  1.3035
 6023TIP3   OH239559   0.430   5.352   3.798  0.1022  0.6370 -0.6328
 6023TIP3    H139560   0.393   5.361   3.886 -0.5146 -1.9599 -0.5565
 6023TIP3    H239561   0.525   5.345   3.812 -0.0874 -1.0373 -0.0181
 6024TIP3   OH239562   5.264   3.987   4.788  0.0792  0.0189 -0.0794
 6024TIP3    H139563   5.348   3.980   4.742 -0.6204 -0.6273 -1.3122
 6024TIP3    H239564   5.212   3.915   4.752 -1.2999  0.9471  0.0221
 6025TIP3   OH239565   4.753   5.790  15.288 -0.2224  0.5897  0.2669
 6025TIP3    H139566   4.694   5.864  15.303 -0.9032  0.1805 -0.3295
 6025TIP3    H239567   4.737   5.765  15.197  0.5052  0.1435  0.2559
 6026TIP3   OH239568   1.991   5.592   4.273  0.3241  0.0828  0.1553
 6026TIP3    H139569   1.962   5.529   4.339  0.0711 -1.0503 -0.9983
 6026TIP3    H239570   2.080   5.616   4.299  0.0995 -0.0692  1.0856
 6027TIP3   OH239571   4.660   4.820  12.509 -0.3435  0.2542  0.1666
 6027TIP3    H139572   4.725   4.782  12.568  2.8168  1.3544 -2.3116
 6027TIP3    H239573   4.634   4.747  12.452 -1.3159 -0.1758  1.1276
 6028TIP3   OH239574   1.853   0.007   0.069 -0.0944 -0.3591  0.1658
 6028TIP3    H139575   1.852  -0.069   0.012  0.8918 -1.7306  1.8623
 6028TIP3    H239576   1.931   0.055   0.043  2.1673 -2.6161  2.2246
 6029TIP3   OH239577   4.326   5.267   0.416 -0.3538 -0.2640  0.4446
 6029TIP3    H139578   4.283   5.199   0.467  0.8179 -0.7412  0.8314
 6029TIP3    H239579   4.264   5.340   0.416 -1.0447 -0.8332  1.1822
 6030TIP3   OH239580   3.587   6.158  16.657  0.2598 -0.0160 -0.0037
 6030TIP3    H139581   3.551   6.196  16.737  2.2185  0.2099  0.8394
 6030TIP3    H239582   3.516   6.163  16.593 -2.0005 -1.8094  2.1680
 6031TIP3   OH239583   2.691   0.881  15.164  0.0496 -0.2983  0.2003
 6031TIP3    H139584   2.637   0.817  15.118  0.1660  0.7561 -1.4726
 6031TIP3    H239585   2.640   0.962  15.161  1.2659  0.4825 -0.5810
 6032TIP3   OH239586   5.095   3.188  14.708 -0.3263 -0.3406  0.1517
 6032TIP3    H139587   5.046   3.238  14.642  0.0715  2.4229  1.8273
 6032TIP3    H239588   5.164   3.247  14.737 -0.0211 -1.7312  2.5293
 6033TIP3   OH239589   3.596   5.422   4.512 -0.1740 -0.0348 -0.0412
 6033TIP3    H139590   3.581   5.505   4.557 -0.2367  0.4440 -0.9063
 6033TIP3    H239591   3.636   5.448   4.429 -1.0854 -0.7907 -0.7329
 6034TIP3   OH239592   0.088   0.461   3.362  0.2200  0.3601  0.2943
 6034TIP3    H139593   0.021   0.438   3.426  0.4737 -0.8511  0.1417
 6034TIP3    H239594   0.039   0.480   3.282  0.0428 -0.1556  0.2824
 6035TIP3   OH239595   1.621   1.381  14.444 -0.3678  0.3114 -0.5016
 6035TIP3    H139596   1.617   1.473  14.418 -3.2069  1.0662  2.0409
 6035TIP3    H239597   1.680   1.380  14.520  0.9565 -0.3246 -1.4976
 6036TIP3   OH239598   5.205   4.628   0.911  0.2574  0.0623  0.6487
 6036TIP3    H139599   5.140   4.589   0.968  0.5870  0.4891  1.3303
 6036TIP3    H239600   5.227   4.711   0.952 -0.4843  1.0246 -0.8075
 6037TIP3   OH239601   0.877   6.342  11.937  0.2286  0.2538  0.3040
 6037TIP3    H139602   0.885   6.432  11.969  0.7377  0.3490 -0.0869
 6037TIP3    H239603   0.886   6.287  12.015  1.5900  0.4758  0.3183
 6038TIP3   OH239604   0.516   3.481  15.347  0.0389  0.4713  0.2148
 6038TIP3    H139605   0.494   3.572  15.331  0.5838  0.4000 -1.0467
 6038TIP3    H239606   0.599   3.468  15.301 -0.7396 -1.0270 -0.8426
 6039TIP3   OH239607   2.267   5.471  14.863 -0.4252  0.4248  0.7139
 6039TIP3    H139608   2.194   5.521  14.829 -0.5659 -0.6508 -0.6480
 6039TIP3    H239609   2.227   5.406  14.920 -0.5030  0.0938  0.2858
 6040TIP3   OH239610   4.861   3.209   3.037 -0.1575 -0.5175 -0.2906
 6040TIP3    H139611   4.802   3.277   3.067  0.4095 -0.5105  0.8603
 6040TIP3    H239612   4.925   3.200   3.107 -0.1992 -2.2137 -0.4376
 6041TIP3   OH239613   3.446   3.187  14.917 -0.2277  0.2047 -0.5048
 6041TIP3    H139614   3.399   3.262  14.880 -1.0680  0.3197  0.7454
 6041TIP3    H239615   3.381   3.142  14.970  1.2295  0.8348  1.9533
 6042TIP3   OH239616   0.674   0.871  11.606  0.0140 -0.2262 -0.0109
 6042TIP3    H139617   0.585   0.870  11.571  0.2746  1.5477 -0.8595
 6042TIP3    H239618   0.685   0.785  11.646 -2.6287  0.0633  1.5591
 6043TIP3   OH239619   6.042   2.433  12.210 -0.2580 -0.0496 -0.1744
 6043TIP3    H139620   6.124   2.406  12.249 -0.4915  0.9487  1.0831
 6043TIP3    H239621   5.980   2.362  12.230 -0.0211 -0.2008  0.0177
 6044TIP3   OH239622   2.137   4.762  12.461  0.0036 -0.2527 -0.6701
 6044TIP3    H139623   2.201   4.822  12.499  0.5181 -0.7741 -0.6979
 6044TIP3    H239624   2.139   4.686  12.518  2.0911 -1.8086 -2.6627
 6045TIP3   OH239625   4.351   5.637  12.224 -0.1655  0.6190  0.1903
 6045TIP3    H139626   4.273   5.591  12.256 -0.3775  0.0589 -1.0389
 6045TIP3    H239627   4.368   5.597  12.138  0.9519  1.3506  0.0527
 6046TIP3   OH239628   1.002   1.515   1.533  0.0689  0.0224  0.0877
 6046TIP3    H139629   1.063   1.469   1.590 -0.9080  0.0909  1.2411
 6046TIP3    H239630   0.962   1.447   1.479  0.8547 -0.0709 -0.3815
 6047TIP3   OH239631   3.602   2.505   4.011  0.1163 -0.2985  0.1049
 6047TIP3    H139632   3.508   2.518   3.997  0.3053 -0.6272 -1.6779
 6047TIP3    H239633   3.608   2.422   4.058 -0.4626 -0.7122 -0.5272
 6048TIP3   OH239634   0.640   4.053   2.112 -0.1287  0.2534  0.1356
 6048TIP3    H139635   0.585   4.122   2.150 -0.8387 -0.5027  0.5152
 6048TIP3    H239636   0.658   4.083   2.023  1.3619  1.9389  0.9590
 6049TIP3   OH239637   2.898   5.252   2.224 -0.9399  0.3352  0.0904
 6049TIP3    H139638   2.954   5.321   2.186 -0.3627 -0.8367 -1.3196
 6049TIP3    H239639   2.957   5.204   2.283 -1.3153  0.9633  0.9959
 6050TIP3   OH239640   3.846   1.987  16.118 -0.0347  0.5083  0.0945
 6050TIP3    H139641   3.798   1.944  16.188  0.5264  0.3937  0.4174
 6050TIP3    H239642   3.900   2.053  16.162  0.5288  0.2477 -0.1923
 6051TIP3   OH239643   1.139   2.932   4.602 -0.1684  0.1925  0.3138
 6051TIP3    H139644   1.054   2.916   4.643  1.0559 -0.4401  2.7700
 6051TIP3    H239645   1.164   2.848   4.564 -0.6939  0.4452 -0.6537
 6052TIP3   OH239646   1.499   3.225  14.698  0.2747 -0.0796  0.2695
 6052TIP3    H139647   1.461   3.142  14.668  1.5297 -0.5467 -0.1093
 6052TIP3    H239648   1.455   3.242  14.782 -0.8987 -0.4717 -0.2486
 6053TIP3   OH239649   0.906   3.402   3.216 -0.1684 -0.1253  0.4967
 6053TIP3    H139650   0.992   3.376   3.183 -0.8592 -2.7441  0.5342
 6053TIP3    H239651   0.866   3.320   3.244 -2.2901  1.1647  1.4606
 6054TIP3   OH239652   1.912   0.944  12.962 -0.3409 -0.0034  0.2957
 6054TIP3    H139653   1.951   0.981  13.042 -1.0367 -1.0284  1.1335
 6054TIP3    H239654   1.974   0.876  12.935 -1.5773 -1.8351  1.7927
 6055TIP3   OH239655   4.120   2.399   5.429 -0.0363 -0.3536 -0.7017
 6055TIP3    H139656   4.061   2.450   5.374 -1.2534 -1.1206 -0.1375
 6055TIP3    H239657   4.207   2.420   5.395 -0.5013  1.8066 -0.7182
 6056TIP3   OH239658   0.299   4.080   5.367  0.0155 -0.2449  0.3991
 6056TIP3    H139659   0.346   4.006   5.330 -0.4364  1.0522 -3.1789
 6056TIP3    H239660   0.359   4.154   5.356 -2.1260  1.2441 -3.2882
 6057TIP3   OH239661   5.694   0.437  12.895  0.4014  0.3587  0.0174
 6057TIP3    H139662   5.643   0.517  12.906  0.6782  0.5278  0.1018
 6057TIP3    H239663   5.631   0.372  12.864 -0.3002  0.0015  2.0637
 6058TIP3   OH239664   1.608   3.172  14.180 -0.5555  0.1285  0.1475
 6058TIP3    H139665   1.672   3.242  14.177  1.4530 -1.6371 -1.5920
 6058TIP3    H239666   1.623   3.122  14.099 -2.0959 -2.1223  1.1364
 6059TIP3   OH239667   1.458   3.289  16.841  0.2908  0.4662  0.0161
 6059TIP3    H139668   1.513   3.293  16.920 -0.4143 -1.0549  0.6165
 6059TIP3    H239669   1.408   3.208  16.850 -2.3485  1.9447 -0.3208
 6060TIP3   OH239670   5.954   5.540  13.577 -0.4210  0.6602 -0.4860
 6060TIP3    H139671   5.913   5.619  13.612 -2.6246  0.2364 -1.9822
 6060TIP3    H239672   6.048   5.554  13.593 -0.7518  3.4286 -0.4312
 6061TIP3   OH239673   0.522   1.203  15.224  0.4831  0.1953 -0.2707
 6061TIP3    H139674   0.446   1.260  15.208  1.0651  0.4731 -2.3657
 6061TIP3    H239675   0.534   1.155  15.142  0.8945 -1.9470  0.9408
 6062TIP3   OH239676   3.599   2.881  14.360 -0.0390  0.2152  0.1358
 6062TIP3    H139677   3.589   2.964  14.313  0.2430 -1.3369 -2.9218
 6062TIP3    H239678   3.552   2.894  14.442 -0.5117  3.1749 -0.4931
 6063TIP3   OH239679   5.627   6.134  11.179  0.5504  0.7359  0.3537
 6063TIP3    H139680   5.609   6.200  11.112 -1.5511  0.5661  0.6925
 6063TIP3    H239681   5.620   6.181  11.262  0.3371  0.3691  0.5474
 6064TIP3   OH239682   4.317   3.363  10.390  1.0197 -0.0717 -0.2492
 6064TIP3    H139683   4.326   3.436  10.328 -0.4848  0.3621  0.0032
 6064TIP3    H239684   4.360   3.290  10.347 -0.8600 -0.0560 -2.3303
 6065TIP3   OH239685   4.706   4.211   1.832  0.1710  0.2601 -0.3627
 6065TIP3    H139686   4.736   4.252   1.751 -0.9404 -0.2021 -1.0530
 6065TIP3    H239687   4.772   4.233   1.897 -0.1779  2.7970 -0.7711
 6066TIP3   OH239688   6.375   6.066   4.627  0.1279  0.0591 -0.6458
 6066TIP3    H139689   6.371   6.012   4.548 -0.5480  0.4168 -0.8612
 6066TIP3    H239690   6.358   6.155   4.597  0.2738  0.2606 -0.1518
 6067TIP3   OH239691   3.685   6.202  14.874 -0.2665 -0.0712 -0.6715
 6067TIP3    H139692   3.597   6.239  14.882 -0.3968 -0.2828 -1.1355
 6067TIP3    H239693   3.702   6.164  14.960 -0.5457  0.1449 -0.5164
 6068TIP3   OH239694   6.356   5.219  14.224 -0.7770 -0.6108 -0.2467
 6068TIP3    H139695   6.446   5.251  14.219  0.0158 -2.6995 -0.1376
 6068TIP3    H239696   6.326   5.220  14.133 -0.4825 -0.3410 -0.3432
 6069TIP3   OH239697   0.950   2.019   4.096 -0.0369 -0.1435 -0.3344
 6069TIP3    H139698   0.869   2.012   4.147 -1.2466 -2.0668 -2.2996
 6069TIP3    H239699   0.926   1.983   4.010  2.1424  1.9606 -1.9428
 6070TIP3   OH239700   0.188   6.037  10.551  0.4216 -0.0429 -0.2330
 6070TIP3    H139701   0.259   6.101  10.560  0.6935 -0.0547 -1.8447
 6070TIP3    H239702   0.231   5.952  10.566  0.4083  0.0497  0.3336
 6071TIP3   OH239703   2.481   3.468   3.374  0.3683  0.1455  0.2523
 6071TIP3    H139704   2.453   3.551   3.334  0.2643 -0.8163 -1.8186
 6071TIP3    H239705   2.405   3.439   3.425  0.4711  1.3806  1.1450
 6072TIP3   OH239706   1.502   5.190   2.186 -0.3150 -0.2777  0.6039
 6072TIP3    H139707   1.439   5.123   2.162  1.3102 -2.3692  1.8566
 6072TIP3    H239708   1.471   5.223   2.270 -2.0687  1.9239 -0.7858
 6073TIP3   OH239709   3.172   5.687   4.623 -0.3660  0.1817  0.2533
 6073TIP3    H139710   3.256   5.713   4.586  0.3663 -0.9486  1.0535
 6073TIP3    H239711   3.109   5.748   4.585  0.8976  1.4663  0.1452
 6074TIP3   OH239712   5.081   6.460  16.267  0.5095 -0.0637  0.2963
 6074TIP3    H139713   5.110   6.370  16.249 -1.6546 -1.6344  3.6521
 6074TIP3    H239714   5.034   6.486  16.188  2.3812 -1.2791 -1.3151
 6075TIP3   OH239715   2.970   2.749  12.583 -0.1520 -0.2940 -0.5036
 6075TIP3    H139716   3.059   2.777  12.603 -0.5358  0.9140 -0.4282
 6075TIP3    H239717   2.915   2.822  12.611 -1.1092 -0.7169 -1.2398
 6076TIP3   OH239718   2.826   5.323   1.917  0.8276  0.9656 -0.0880
 6076TIP3    H139719   2.875   5.278   1.849  0.4475  1.4495 -0.6919
 6076TIP3    H239720   2.830   5.264   1.993  2.4294  1.0587 -0.0749
 6077TIP3   OH239721   5.714   1.234   5.577 -0.5498 -0.3403  0.5948
 6077TIP3    H139722   5.777   1.306   5.580  0.6861 -1.3189 -0.3546
 6077TIP3    H239723   5.766   1.156   5.598 -1.2870 -1.2505 -0.7790
 6078TIP3   OH239724   1.520   4.293   4.875 -0.0604 -0.4246 -0.2284
 6078TIP3    H139725   1.564   4.378   4.872  0.4168 -0.6366  0.4073
 6078TIP3    H239726   1.455   4.302   4.945 -1.0076 -0.1349 -1.1212
 6079TIP3   OH239727   0.568   4.780   0.292 -0.2626  0.0215 -0.4615
 6079TIP3    H139728   0.587   4.769   0.385  0.4349 -0.6137 -0.6692
 6079TIP3    H239729   0.574   4.874   0.276 -2.4309  0.4009  0.5487
 6080TIP3   OH239730   6.329   2.522  10.147 -0.5386  0.2317  0.0981
 6080TIP3    H139731   6.296   2.560  10.229 -0.3297  2.0708 -0.6373
 6080TIP3    H239732   6.250   2.503  10.097 -0.6708 -0.9633  0.7280
 6081TIP3   OH239733   0.626   5.914   0.798 -0.2018 -0.1147  0.0507
 6081TIP3    H139734   0.658   5.959   0.720 -0.9620 -0.0479 -0.2248
 6081TIP3    H239735   0.531   5.922   0.794 -0.3007 -0.9039  0.5052
 6082TIP3   OH239736   0.897   1.750  15.936 -0.2512  0.2287 -0.1303
 6082TIP3    H139737   0.982   1.708  15.923  0.6218  0.8503  2.7226
 6082TIP3    H239738   0.905   1.835  15.893  0.4231  0.1064 -0.2508
 6083TIP3   OH239739   3.989   5.923  10.999  0.1289 -0.2095  0.0868
 6083TIP3    H139740   3.977   5.968  11.082  0.2279  0.4474 -0.2524
 6083TIP3    H239741   3.926   5.963  10.940 -2.0663 -2.6624  0.5805
 6084TIP3   OH239742   3.074   5.628   3.056  0.2633 -0.1273  0.0675
 6084TIP3    H139743   3.038   5.714   3.078  0.7847  0.2539 -0.5256
 6084TIP3    H239744   3.163   5.647   3.024  0.4406 -0.9005  0.0744
 6085TIP3   OH239745   2.954   4.790  14.450  0.2430  0.3946  0.6479
 6085TIP3    H139746   2.943   4.713  14.394  0.2818  0.5363  0.4459
 6085TIP3    H239747   3.016   4.762  14.518 -0.5677 -0.0973  1.2153
 6086TIP3   OH239748   6.045   5.437   1.810  0.2724 -0.2216  0.3330
 6086TIP3    H139749   6.062   5.421   1.717  0.1168  1.2811  0.0153
 6086TIP3    H239750   5.964   5.488   1.811  0.2345 -0.2741  1.3017
 6087TIP3   OH239751   2.129   5.098   1.053  0.0521  0.5319  0.3860
 6087TIP3    H139752   2.044   5.103   1.010 -0.0173  0.3185  0.4993
 6087TIP3    H239753   2.112   5.122   1.144  0.3567  1.9236  0.0980
 6088TIP3   OH239754   2.692   6.568   3.908  0.2153  0.6888 -0.3625
 6088TIP3    H139755   2.723   6.490   3.862 -1.4253  0.1188 -0.5677
 6088TIP3    H239756   2.628   6.535   3.970 -1.6778  1.9941 -1.5279
 6089TIP3   OH239757   5.444   0.128  15.596 -0.0469 -0.5222  0.2276
 6089TIP3    H139758   5.390   0.196  15.554  1.5204  0.6661  0.0567
 6089TIP3    H239759   5.451   0.059  15.530 -0.9708 -0.4932  0.0866
 6090TIP3   OH239760   3.580   4.093   5.037 -0.1561 -0.6458  0.0693
 6090TIP3    H139761   3.504   4.096   5.095  1.4886 -1.9704  2.5025
 6090TIP3    H239762   3.548   4.051   4.957 -2.2948  0.2623  0.3890
 6091TIP3   OH239763   0.964   1.494   5.093  0.3870 -0.0224 -0.0436
 6091TIP3    H139764   0.959   1.491   4.997  1.2194 -2.7892 -0.0793
 6091TIP3    H239765   0.895   1.434   5.122 -0.2794  1.2654  1.1688
 6092TIP3   OH239766   0.564   2.564   1.312 -0.5238  0.0328 -0.2039
 6092TIP3    H139767   0.613   2.537   1.234 -0.0400  0.0061  0.1065
 6092TIP3    H239768   0.625   2.551   1.385 -1.5839 -1.7900  0.4348
 6093TIP3   OH239769   6.822   4.974  15.436 -0.2213 -0.2606  1.1292
 6093TIP3    H139770   6.904   5.022  15.451 -0.9648  1.2936  0.3969
 6093TIP3    H239771   6.779   5.020  15.365 -0.4844 -2.7204 -0.4412
 6094TIP3   OH239772   2.585   0.131  12.443  0.3311 -0.4637 -0.0139
 6094TIP3    H139773   2.644   0.055  12.442  3.2599  1.6294  0.2785
 6094TIP3    H239774   2.561   0.142  12.535  2.0479  0.4028  0.3739
 6095TIP3   OH239775   5.230   4.535   0.315  0.2249 -0.2598 -0.2104
 6095TIP3    H139776   5.200   4.444   0.327 -1.4814  0.1964 -0.6955
 6095TIP3    H239777   5.205   4.579   0.396  2.0602 -0.4335  0.4901
 6096TIP3   OH239778   5.273   4.533   5.958 -0.3410  0.4404 -0.3773
 6096TIP3    H139779   5.225   4.615   5.971  0.2249  0.5780  1.0338
 6096TIP3    H239780   5.364   4.556   5.977 -0.0923 -0.3832 -0.5447
 6097TIP3   OH239781   4.547   1.557  11.634  0.3666 -0.5948  0.1619
 6097TIP3    H139782   4.545   1.633  11.575 -0.1578  0.3606  1.3643
 6097TIP3    H239783   4.602   1.585  11.707 -1.6616 -0.4801  1.7321
 6098TIP3   OH239784   2.077   5.328   0.637  0.2390 -0.3069 -0.3238
 6098TIP3    H139785   2.049   5.384   0.564 -1.9063  0.7712  1.2070
 6098TIP3    H239786   2.111   5.389   0.702  0.1896 -1.0407  0.4015
 6099TIP3   OH239787   4.320   5.863  15.522  0.0270  0.3995 -0.0513
 6099TIP3    H139788   4.322   5.833  15.431  0.5706  0.6094 -0.1144
 6099TIP3    H239789   4.286   5.789  15.571  0.7026 -0.0873 -0.2975
 6100TIP3   OH239790   3.293   2.681  16.405 -0.0203  0.2597  0.1641
 6100TIP3    H139791   3.202   2.653  16.399  0.3337 -0.5890 -2.4134
 6100TIP3    H239792   3.312   2.720  16.320  1.6408  1.8022  1.1595
 6101TIP3   OH239793   1.155   5.936   0.095 -0.7926  0.5138 -0.5820
 6101TIP3    H139794   1.084   5.895   0.047 -0.8231 -2.4279  1.7051
 6101TIP3    H239795   1.233   5.887   0.069 -0.3297  0.8577  0.1175
 6102TIP3   OH239796   2.239   3.857  11.433  0.0516 -0.9086 -0.4797
 6102TIP3    H139797   2.206   3.767  11.434 -0.4192 -0.7347  0.0967
 6102TIP3    H239798   2.162   3.911  11.422  0.2790 -0.5514 -0.3331
 6103TIP3   OH239799   4.483   6.109  12.857  0.5856 -0.1053  0.5067
 6103TIP3    H139800   4.444   6.036  12.906  0.0034 -0.3236 -0.2659
 6103TIP3    H239801   4.521   6.068  12.779 -1.0245  0.5600 -0.6735
 6104TIP3   OH239802   5.317   0.822  13.581 -0.1690 -0.2872  0.2639
 6104TIP3    H139803   5.293   0.913  13.565  2.3038  0.2521 -0.8346
 6104TIP3    H239804   5.235   0.773  13.567 -1.4064  1.6605  0.2790
 6105TIP3   OH239805   6.582   4.610  15.622 -0.0374 -0.4142  0.1467
 6105TIP3    H139806   6.617   4.696  15.599  0.6226 -0.4024  1.1086
 6105TIP3    H239807   6.491   4.613  15.595  0.2579  0.1909 -0.8329
 6106TIP3   OH239808   0.790   4.604  14.201  0.2514 -0.0380 -1.0844
 6106TIP3    H139809   0.722   4.543  14.228 -0.2119 -0.2743 -2.6816
 6106TIP3    H239810   0.872   4.563  14.230 -0.2250 -0.0037  0.3742
 6107TIP3   OH239811   3.574   6.555  12.761  0.1647 -0.5725 -0.1279
 6107TIP3    H139812   3.644   6.495  12.738  1.7272  0.7158  0.9867
 6107TIP3    H239813   3.578   6.561  12.857 -0.4551  0.6842 -0.1553
 6108TIP3   OH239814   0.376   0.726   0.315  0.1380  0.0360 -0.1947
 6108TIP3    H139815   0.395   0.640   0.279  0.6348 -0.0192  0.1903
 6108TIP3    H239816   0.288   0.718   0.352 -0.5760  0.2236 -1.7753
 6109TIP3   OH239817   0.425   1.941   0.242  0.5713 -0.0380 -0.0172
 6109TIP3    H139818   0.412   2.027   0.281 -2.7833 -0.2009 -0.4335
 6109TIP3    H239819   0.365   1.940   0.167 -0.0184 -2.9192  0.3610
 6110TIP3   OH239820   6.324   4.262  14.394 -0.9294  0.5787 -0.0900
 6110TIP3    H139821   6.392   4.230  14.452 -1.0974  1.5818  0.6898
 6110TIP3    H239822   6.348   4.353  14.376 -1.3788  0.5628 -0.8373
 6111TIP3   OH239823   2.512   6.675   1.094 -0.1743  0.0405  0.5858
 6111TIP3    H139824   2.569   6.735   1.046 -0.9496  2.4694  2.5158
 6111TIP3    H239825   2.485   6.610   1.029  0.1176  2.1971 -1.8173
 6112TIP3   OH239826   1.249   0.554  14.179 -0.0944 -0.7460 -0.3150
 6112TIP3    H139827   1.333   0.533  14.139  0.3773 -0.5426  0.5385
 6112TIP3    H239828   1.241   0.649  14.172  0.9308 -0.4496  1.7966
 6113TIP3   OH239829   3.295   3.006   4.831  0.1122 -0.0047  0.0714
 6113TIP3    H139830   3.319   2.913   4.825 -0.4305 -0.1339 -0.2514
 6113TIP3    H239831   3.270   3.019   4.922 -0.1276 -0.2632  0.0447
 6114TIP3   OH239832   2.674   1.941  11.862  0.0488  0.0425  0.5890
 6114TIP3    H139833   2.607   1.937  11.793  1.2685 -0.2939 -0.6120
 6114TIP3    H239834   2.682   1.851  11.892  0.1538  0.0378  0.5458
 6115TIP3   OH239835   4.678   5.743   5.336  0.1196 -0.2905  0.4336
 6115TIP3    H139836   4.703   5.828   5.299 -0.6105  0.1329  0.8688
 6115TIP3    H239837   4.654   5.690   5.260  1.4124 -0.4010  0.0933
 6116TIP3   OH239838   1.071   4.672   0.433  0.3890 -0.2377 -0.1240
 6116TIP3    H139839   1.080   4.666   0.337 -1.4168  0.6354 -0.3941
 6116TIP3    H239840   1.033   4.588   0.459  0.2435 -0.2147 -0.2625
 6117TIP3   OH239841   1.613   6.778  16.339  0.1542 -0.0789  0.5755
 6117TIP3    H139842   1.685   6.826  16.379 -0.3788 -0.3180  1.8732
 6117TIP3    H239843   1.622   6.689  16.372 -0.9940 -0.0047  1.1453
 6118TIP3   OH239844   5.465   2.119  14.736  0.5465  0.1530 -0.0021
 6118TIP3    H139845   5.422   2.185  14.682  1.1967  0.9193  0.3902
 6118TIP3    H239846   5.412   2.040  14.725 -0.1652  0.7007 -0.5857
 6119TIP3   OH239847   3.625   0.893   1.137 -0.2274 -0.3245  0.3042
 6119TIP3    H139848   3.622   0.835   1.213  1.6198  0.2733  0.8776
 6119TIP3    H239849   3.609   0.980   1.173 -1.2619 -0.2462 -0.2974
 6120TIP3   OH239850   3.844   2.362   3.984 -0.0937  0.3308 -0.5243
 6120TIP3    H139851   3.763   2.412   3.981 -0.5329 -0.3934 -1.5821
 6120TIP3    H239852   3.906   2.419   4.029 -1.0048  1.1650 -0.2929
 6121TIP3   OH239853   4.172   2.608   4.117  0.1663 -0.1446  0.2768
 6121TIP3    H139854   4.209   2.521   4.132  0.2184  0.2466  3.0052
 6121TIP3    H239855   4.247   2.662   4.091  0.5602 -0.4638  0.7388
 6122TIP3   OH239856   5.908   4.150  16.055 -0.0091  0.0999  0.1042
 6122TIP3    H139857   5.960   4.223  16.022 -0.4135 -0.3334 -1.5924
 6122TIP3    H239858   5.817   4.182  16.054 -0.2030 -0.4468 -0.7729
 6123TIP3   OH239859   3.368   0.267  16.663 -0.0422  0.3500 -0.8917
 6123TIP3    H139860   3.457   0.288  16.636  1.4319 -1.6381  1.8310
 6123TIP3    H239861   3.333   0.213  16.593  0.9202  1.0424 -1.9401
 6124TIP3   OH239862   0.371   4.122  14.161 -0.1665 -0.2013  0.5556
 6124TIP3    H139863   0.361   4.204  14.210 -0.2278  1.0749 -1.4885
 6124TIP3    H239864   0.439   4.140  14.097 -0.6314 -1.5519 -0.3568
 6125TIP3   OH239865   3.807   1.660   0.644 -0.4027 -0.0458  0.2644
 6125TIP3    H139866   3.812   1.716   0.721  1.2595 -1.5339  1.3064
 6125TIP3    H239867   3.713   1.644   0.632 -0.6839 -0.5633  2.6166
 6126TIP3   OH239868   2.959   4.914  12.782 -0.2695  0.1219 -0.2550
 6126TIP3    H139869   3.032   4.975  12.792 -0.6189  0.7872 -1.4897
 6126TIP3    H239870   2.998   4.827  12.788  0.1113  0.4046  2.4256
 6127TIP3   OH239871   1.826   1.004  11.886  0.3561 -0.4914 -0.1575
 6127TIP3    H139872   1.850   0.921  11.928  1.3137 -0.1943 -0.1025
 6127TIP3    H239873   1.796   1.059  11.957  0.8520 -0.3921 -0.0201
 6128TIP3   OH239874   2.037   5.590  12.709 -0.5406  0.1547 -0.1032
 6128TIP3    H139875   2.082   5.674  12.713  0.4315 -0.3156 -0.8900
 6128TIP3    H239876   2.072   5.540  12.783  0.9083 -0.5120 -1.1878
 6129TIP3   OH239877   5.017   2.767  13.238  0.0508  0.5487 -0.4537
 6129TIP3    H139878   5.070   2.700  13.197 -1.3724 -1.5643  0.9715
 6129TIP3    H239879   5.074   2.844  13.243  2.1654 -0.9165 -1.0146
 6130TIP3   OH239880   0.311   3.625   0.217  0.9136  0.1905  0.4497
 6130TIP3    H139881   0.384   3.686   0.220  0.6088  0.5799  0.0999
 6130TIP3    H239882   0.253   3.660   0.149  0.9804 -0.7624 -0.1221
 6131TIP3   OH239883   6.719   2.542  13.232 -0.6664  0.0561  0.4163
 6131TIP3    H139884   6.731   2.447  13.240 -1.5349 -0.4444 -2.8357
 6131TIP3    H239885   6.774   2.567  13.158 -1.4041  1.9005  0.4292
 6132TIP3   OH239886   2.619   4.465  14.069 -0.0940  0.5261  0.5482
 6132TIP3    H139887   2.710   4.439  14.056  0.2996  2.0252  0.0077
 6132TIP3    H239888   2.585   4.405  14.135  1.3436  0.0542  0.8905
 6133TIP3   OH239889   0.104   4.558   4.788  0.2075 -0.5154  0.1304
 6133TIP3    H139890   0.184   4.506   4.797  0.5270 -0.1043 -0.3285
 6133TIP3    H239891   0.041   4.498   4.747 -0.1305 -1.2431  1.6250
 6134TIP3   OH239892   6.253   0.999  15.046 -0.1250 -0.3176  0.2286
 6134TIP3    H139893   6.310   0.922  15.049 -1.1177 -1.1258 -0.7475
 6134TIP3    H239894   6.231   1.015  15.138  3.7159  1.6903  1.0136
 6135TIP3   OH239895   1.777   6.469  10.689  0.3356 -0.1885 -0.1858
 6135TIP3    H139896   1.819   6.423  10.617  0.1342 -0.2737 -0.2488
 6135TIP3    H239897   1.777   6.406  10.761  0.4531 -0.1361 -0.1406
 6136TIP3   OH239898   5.260   0.952  15.568 -0.8891 -1.0474  0.1677
 6136TIP3    H139899   5.299   1.035  15.539 -1.0204 -1.4561 -1.2319
 6136TIP3    H239900   5.333   0.890  15.569 -0.9922 -1.1675  0.1884
 6137TIP3   OH239901   6.706   2.697   4.230  0.4615  0.1285 -0.5903
 6137TIP3    H139902   6.726   2.604   4.222 -0.3532 -0.0291 -0.8261
 6137TIP3    H239903   6.663   2.720   4.148 -3.1932 -0.2782  1.0238
 6138TIP3   OH239904   4.781   3.602   6.000  0.1041 -0.2341  0.6974
 6138TIP3    H139905   4.780   3.644   6.086 -2.5256  0.5803  0.3487
 6138TIP3    H239906   4.766   3.509   6.019  1.0282 -0.2958  1.1798
 6139TIP3   OH239907   3.998   0.620   1.499 -0.0566  0.4895 -0.2651
 6139TIP3    H139908   3.925   0.585   1.449 -0.8237  0.7449  0.6534
 6139TIP3    H239909   3.958   0.660   1.576  1.1069 -0.2708  0.7930
 6140TIP3   OH239910   4.574   6.219  16.536 -0.4947 -0.9013 -0.7875
 6140TIP3    H139911   4.641   6.161  16.571 -1.1990 -2.0509 -1.2821
 6140TIP3    H239912   4.622   6.296  16.506  0.3630 -0.8138  0.6904
 6141TIP3   OH239913   0.445   1.785  15.694 -0.4584 -0.2031 -0.5411
 6141TIP3    H139914   0.460   1.691  15.687  0.6896 -0.0891  0.1216
 6141TIP3    H239915   0.350   1.794  15.693 -0.5744 -1.2533 -1.8241
 6142TIP3   OH239916   6.751   2.253  14.815  0.1522 -0.1737  0.2980
 6142TIP3    H139917   6.825   2.198  14.842 -1.5305 -3.3093 -0.8637
 6142TIP3    H239918   6.709   2.279  14.897  0.8155 -1.0089  0.9217
 6143TIP3   OH239919   4.929   6.605   3.650  0.1959 -0.4623  0.0152
 6143TIP3    H139920   5.003   6.575   3.703 -0.7859 -0.2863  1.5707
 6143TIP3    H239921   4.968   6.631   3.567  1.7327 -1.3311  0.4191
 6144TIP3   OH239922   2.285   1.432   0.191 -1.1084  0.5626  0.9431
 6144TIP3    H139923   2.367   1.384   0.194 -0.2283  1.5306 -2.7478
 6144TIP3    H239924   2.233   1.395   0.262  0.5801 -3.7235  0.2333
 6145TIP3   OH239925   3.923   3.567   3.393  0.0599  0.4513 -0.2646
 6145TIP3    H139926   3.955   3.502   3.330 -1.1660  1.2809 -1.8304
 6145TIP3    H239927   3.873   3.629   3.340 -1.3085  1.0337  1.5927
 6146TIP3   OH239928   4.829   4.377  14.313  0.2343  0.5941  0.0277
 6146TIP3    H139929   4.875   4.459  14.299  0.2302  1.0893  2.4926
 6146TIP3    H239930   4.762   4.397  14.378 -0.8890 -1.0095 -0.5444
 6147TIP3   OH239931   4.421   0.465  16.052  0.7484  0.1827 -0.6490
 6147TIP3    H139932   4.477   0.444  16.127  0.8035  0.0786 -0.7197
 6147TIP3    H239933   4.481   0.502  15.987  0.3071  3.1200  0.4429
 6148TIP3   OH239934   4.463   0.737   1.517 -0.1333 -0.0005 -0.3989
 6148TIP3    H139935   4.426   0.824   1.498  0.8475  0.7116  0.7812
 6148TIP3    H239936   4.387   0.681   1.531 -0.7832  0.8948 -0.2727
 6149TIP3   OH239937   4.658   3.077   0.109  0.4095  0.6043  0.2732
 6149TIP3    H139938   4.720   3.094   0.180 -0.7318  1.4174  1.1152
 6149TIP3    H239939   4.582   3.038   0.153  0.1787 -0.0533 -0.6871
 6150TIP3   OH239940   2.606   5.793  15.895  0.0705  0.4739  0.2568
 6150TIP3    H139941   2.556   5.828  15.969 -1.8575  0.7754 -1.1317
 6150TIP3    H239942   2.643   5.711  15.928  1.2948  1.7458  2.2884
 6151TIP3   OH239943   4.521   5.233   0.003  0.3009  0.2011  0.3148
 6151TIP3    H139944   4.532   5.189   0.088 -0.2359  1.4616  1.0702
 6151TIP3    H239945   4.532   5.326   0.023  2.6188  0.3736 -1.4449
 6152TIP3   OH239946   0.864   4.885   0.475  0.3467  0.0959 -0.0428
 6152TIP3    H139947   0.802   4.837   0.530  0.1395  0.8659  0.4270
 6152TIP3    H239948   0.942   4.831   0.472  1.4050  1.1786  3.2741
 6153TIP3   OH239949   1.868   6.367   0.906  0.0301 -0.6951  0.3097
 6153TIP3    H139950   1.893   6.370   0.814 -2.9284 -1.7546 -0.6551
 6153TIP3    H239951   1.875   6.457   0.936 -0.3539 -0.0611 -1.4103
 6154TIP3   OH239952   3.404   4.895   4.969 -0.1422 -0.0223 -0.1033
 6154TIP3    H139953   3.364   4.978   4.996 -0.3140 -0.0089 -0.3980
 6154TIP3    H239954   3.335   4.849   4.921 -0.2397 -0.5997  0.5781
 6155TIP3   OH239955   0.087   5.118  11.749 -0.0437 -0.3067 -0.3090
 6155TIP3    H139956   0.120   5.208  11.744 -1.3876  0.1879 -1.0191
 6155TIP3    H239957   0.159   5.065  11.716  0.4805  0.6060 -0.6999
 6156TIP3   OH239958   4.176   1.137  14.167  0.4953  0.1009 -0.4330
 6156TIP3    H139959   4.244   1.141  14.235  0.6683  1.7361 -0.6608
 6156TIP3    H239960   4.163   1.044  14.152  1.8777 -0.2687  0.4399
 6157TIP3   OH239961   3.442   4.483  15.594 -0.5489 -0.3173 -0.6720
 6157TIP3    H139962   3.466   4.574  15.607 -0.1621 -0.4052 -0.7604
 6157TIP3    H239963   3.388   4.484  15.514 -2.8343  0.1991  0.7869
 6158TIP3   OH239964   1.392   6.671  11.997  0.6083  0.4427 -0.4226
 6158TIP3    H139965   1.392   6.606  11.926  1.5830  1.6334 -1.5696
 6158TIP3    H239966   1.422   6.623  12.074  1.3708 -0.4515 -1.2590
 6159TIP3   OH239967   3.228   5.017  11.729  0.3384  0.4577 -0.1647
 6159TIP3    H139968   3.261   4.935  11.693 -0.6153 -0.4263  0.9043
 6159TIP3    H239969   3.251   5.083  11.663  0.6188 -0.7469 -1.3171
 6160TIP3   OH239970   1.675   6.840  12.904  0.1142 -0.5561  0.9880
 6160TIP3    H139971   1.618   6.884  12.968  0.0922 -0.1631  0.7011
 6160TIP3    H239972   1.763   6.851  12.940  0.4008  1.8184 -0.2305
 6161TIP3   OH239973   2.384   2.309   6.641  0.9015  0.5928  0.2301
 6161TIP3    H139974   2.388   2.225   6.595  1.0167  1.5585 -1.6087
 6161TIP3    H239975   2.298   2.309   6.683  1.6515 -1.2293  1.9392
 6162TIP3   OH239976   6.595   1.192   5.218  0.5738  0.5240  0.5969
 6162TIP3    H139977   6.526   1.191   5.152  2.0918  0.6274 -1.0584
 6162TIP3    H239978   6.621   1.100   5.227 -0.4620  0.3228  2.0482
 6163TIP3   OH239979   3.888   3.299  14.607 -0.6648  0.0379 -0.7297
 6163TIP3    H139980   3.954   3.246  14.652 -0.4505 -0.3698 -1.4978
 6163TIP3    H239981   3.804   3.268  14.643 -0.4148  2.1639  1.9714
 6164TIP3   OH239982   2.798   3.114  14.143 -0.6883  0.8624 -0.3497
 6164TIP3    H139983   2.756   3.174  14.205 -1.7468  1.7982 -1.9198
 6164TIP3    H239984   2.889   3.143  14.140 -1.0591  2.0382 -0.6474
 6165TIP3   OH239985   4.218   2.160  14.110  0.2059 -0.2347  0.0882
 6165TIP3    H139986   4.250   2.078  14.147  0.4545  0.3100  1.1165
 6165TIP3    H239987   4.164   2.199  14.179  1.1151  1.0605  0.1136
 6166TIP3   OH239988   6.445   2.814  12.912  0.4358 -0.2828 -0.8904
 6166TIP3    H139989   6.451   2.730  12.956 -0.4805  0.4156  0.6145
 6166TIP3    H239990   6.536   2.838  12.895  0.7388 -1.2059 -0.6362
 6167TIP3   OH239991   0.484   5.536   3.587  0.5136  0.6951 -0.1650
 6167TIP3    H139992   0.465   5.628   3.604  0.7838  0.7269 -0.0404
 6167TIP3    H239993   0.460   5.491   3.668 -0.5729  0.5193 -0.5626
 6168TIP3   OH239994   4.437   5.204  12.166 -0.0698  0.3344  0.1955
 6168TIP3    H139995   4.489   5.248  12.098  0.4910 -0.9417 -0.2239
 6168TIP3    H239996   4.497   5.194  12.239  0.2002 -0.8246 -0.1614
 6169TIP3   OH239997   1.410   3.906   0.410  0.0810  0.3359 -0.2188
 6169TIP3    H139998   1.359   3.831   0.441  0.4301  0.6618  1.1994
 6169TIP3    H239999   1.374   3.925   0.323  1.0762 -2.4736 -1.3693
 6170TIP3   OH240000   3.573   1.193   5.857 -0.6744  0.7336 -0.3777
 6170TIP3    H140001   3.623   1.188   5.939  0.9185  1.1198 -1.3053
 6170TIP3    H240002   3.586   1.282   5.827 -1.5590  0.6972 -0.8818
 6171TIP3   OH240003   4.832   1.883   1.564 -0.5739 -0.7144 -0.2237
 6171TIP3    H140004   4.846   1.960   1.620  1.4593 -0.9248 -0.3647
 6171TIP3    H240005   4.738   1.881   1.549 -0.8187  1.0266  0.8120
 6172TIP3   OH240006   6.547   2.886  14.008  0.0209  0.2941  0.2257
 6172TIP3    H140007   6.466   2.837  13.994 -0.8195  1.2088  1.6508
 6172TIP3    H240008   6.611   2.819  14.032  0.2843 -0.7012 -2.8079
 6173TIP3   OH240009   5.211   1.814   3.957  0.1657  0.0111  0.2508
 6173TIP3    H140010   5.138   1.835   3.899  1.5987 -1.3366 -2.2039
 6173TIP3    H240011   5.206   1.720   3.969  1.2331 -0.0336  0.4243
 6174TIP3   OH240012   5.663   2.114   6.037  0.6473 -0.4526  0.1817
 6174TIP3    H140013   5.675   2.124   6.132 -0.3468 -2.9399  0.6668
 6174TIP3    H240014   5.631   2.024   6.027 -0.4456  0.1405 -2.4271
 6175TIP3   OH240015   6.560   5.873  11.316  0.5219 -0.0188  0.3095
 6175TIP3    H140016   6.530   5.880  11.406 -0.3678  2.3239 -0.0829
 6175TIP3    H240017   6.596   5.960  11.296  0.4510 -0.3937 -1.6491
 6176TIP3   OH240018   2.041   4.319   0.033  0.7891  0.3012 -0.0613
 6176TIP3    H140019   2.095   4.398   0.032  0.6668  0.4202  1.1803
 6176TIP3    H240020   2.024   4.301  -0.059  1.4607  1.2814 -0.3991
 6177TIP3   OH240021   1.670   3.173   4.332  0.4509  0.0862  0.6131
 6177TIP3    H140022   1.677   3.118   4.411  1.1471  0.8703  1.1134
 6177TIP3    H240023   1.664   3.110   4.260  1.8649 -0.6762  1.1122
 6178TIP3   OH240024   2.697   3.310  15.631  0.1290  0.3630  0.9639
 6178TIP3    H140025   2.604   3.321  15.655 -0.6051 -1.8624 -0.5822
 6178TIP3    H240026   2.721   3.224  15.664  1.4516  0.6134  0.7133
 6179TIP3   OH240027   2.730   0.537   0.408 -0.3352 -0.2550  0.4889
 6179TIP3    H140028   2.729   0.449   0.445  1.2555 -0.7868 -0.6659
 6179TIP3    H240029   2.813   0.543   0.362 -1.4222  1.0477 -1.4123
 6180TIP3   OH240030   0.835   2.781   4.486  0.4571  0.3875 -0.2084
 6180TIP3    H140031   0.748   2.750   4.508 -0.0257  0.9172 -1.2639
 6180TIP3    H240032   0.856   2.846   4.552  0.8898 -1.1055  1.1917
 6181TIP3   OH240033   2.642   2.207  12.479 -0.2610 -0.7679  0.2636
 6181TIP3    H140034   2.620   2.300  12.479 -1.8244 -1.0992  1.2019
 6181TIP3    H240035   2.737   2.205  12.471 -0.3671  0.7944 -2.8956
 6182TIP3   OH240036   1.244   4.714   1.334 -0.5545 -0.2531  0.2064
 6182TIP3    H140037   1.220   4.766   1.258  1.0686 -0.4266 -0.4734
 6182TIP3    H240038   1.333   4.744   1.356 -0.8529 -0.4322  1.8437
 6183TIP3   OH240039   1.085   4.256   0.680 -0.3727 -0.5238  0.0984
 6183TIP3    H140040   1.158   4.296   0.633  0.0231 -2.6639 -1.2278
 6183TIP3    H240041   1.007   4.293   0.639 -0.0256 -1.9015 -1.9534
 6184TIP3   OH240042   4.307   4.091   1.754 -0.0989  0.3307 -0.3042
 6184TIP3    H140043   4.215   4.078   1.780  0.4732 -1.7591  0.9261
 6184TIP3    H240044   4.335   4.005   1.723  1.6793  0.7007  0.1806
 6185TIP3   OH240045   3.231   5.908  14.104  0.4918 -0.5060  0.1747
 6185TIP3    H140046   3.262   5.821  14.076  1.5058  0.2685 -1.2350
 6185TIP3    H240047   3.216   5.955  14.022 -3.1085 -0.2961  0.7670
 6186TIP3   OH240048   3.896   0.380  15.585 -0.4924  0.5713 -0.4164
 6186TIP3    H140049   3.850   0.296  15.582 -0.9498  0.6003  2.5497
 6186TIP3    H240050   3.988   0.356  15.595 -0.7144  0.3274  1.4355
 6187TIP3   OH240051   4.631   6.700  14.865  0.4610 -0.0950 -0.2517
 6187TIP3    H140052   4.644   6.743  14.780 -0.1564  2.7503  0.9643
 6187TIP3    H240053   4.538   6.680  14.868  0.1992  1.1036  0.2557
 6188TIP3   OH240054   1.067   1.293   6.645  0.5788 -0.1537 -0.1192
 6188TIP3    H140055   1.090   1.364   6.704 -0.2210 -0.5502  0.6853
 6188TIP3    H240056   1.134   1.226   6.659  0.0729 -0.4858  0.7730
 6189TIP3   OH240057   0.028   0.514   2.237 -0.1512  1.1972 -0.4991
 6189TIP3    H140058  -0.063   0.490   2.253 -0.0585  0.7370 -0.6675
 6189TIP3    H240059   0.028   0.550   2.148 -0.1004  0.8637 -0.6319
 6190TIP3   OH240060   4.900   6.367   1.147  0.0869  0.3702  0.4234
 6190TIP3    H140061   4.937   6.440   1.195 -1.0147  1.8939 -0.9140
 6190TIP3    H240062   4.910   6.391   1.055 -2.8335  0.2422 -0.0354
 6191TIP3   OH240063   5.006   5.314   0.783 -0.1693  0.1529  0.6827
 6191TIP3    H140064   5.015   5.359   0.867  0.0383  1.6762 -0.1266
 6191TIP3    H240065   5.083   5.257   0.778  1.6937  2.5852  0.0675
 6192TIP3   OH240066   5.252   1.292   3.128 -0.4696 -0.4845 -0.3069
 6192TIP3    H140067   5.337   1.258   3.159 -0.3380 -0.4370 -0.6078
 6192TIP3    H240068   5.187   1.247   3.181 -0.2624 -0.6859 -0.2229
 6193TIP3   OH240069   3.682   3.390   5.462 -0.0297  0.1369 -0.2794
 6193TIP3    H140070   3.767   3.425   5.487  0.5969 -0.1281 -1.9179
 6193TIP3    H240071   3.700   3.298   5.441 -1.0985 -0.4415  1.1447
 6194TIP3   OH240072   1.244   3.753  16.985  0.3925  0.2684 -0.0364
 6194TIP3    H140073   1.203   3.714  16.908  1.6010 -2.2512  0.4809
 6194TIP3    H240074   1.326   3.790  16.952 -0.4326  1.8258 -0.4106
 6195TIP3   OH240075   3.418   1.651   5.814  0.6354 -0.0096 -0.7382
 6195TIP3    H140076   3.429   1.728   5.759 -0.9889 -0.5250 -1.8582
 6195TIP3    H240077   3.475   1.585   5.774  2.3587  0.6715  0.4721
 6196TIP3   OH240078   6.704   2.131  12.000 -0.6958  0.1952 -0.0570
 6196TIP3    H140079   6.765   2.114  11.928  0.0480  0.0816  0.5796
 6196TIP3    H240080   6.727   2.220  12.029  0.5367 -0.5907  1.4685
 6197TIP3   OH240081   3.450   2.694  16.617 -0.1866  0.1269 -0.4028
 6197TIP3    H140082   3.368   2.702  16.567  1.3801 -1.4207 -3.4665
 6197TIP3    H240083   3.503   2.632  16.567  2.9750  1.1875  1.3694
 6198TIP3   OH240084   6.653   3.952   0.803  0.1890  0.1071 -0.1952
 6198TIP3    H140085   6.670   3.968   0.896  0.1195 -0.2189 -0.1258
 6198TIP3    H240086   6.559   3.967   0.792  0.0637 -0.5709 -0.0628
 6199TIP3   OH240087   6.259   3.793   1.118  0.1713 -0.2307 -0.3444
 6199TIP3    H140088   6.251   3.786   1.213 -1.8424  0.3223 -0.4047
 6199TIP3    H240089   6.271   3.887   1.102  2.8512 -0.5596 -0.5669
 6200TIP3   OH240090   1.598   1.451  13.779 -0.7519  0.2906  0.9462
 6200TIP3    H140091   1.608   1.546  13.781 -1.6379  0.4244 -0.0553
 6200TIP3    H240092   1.635   1.421  13.862 -0.7672  1.5328  1.4201
 6201TIP3   OH240093   6.219   0.315   1.251  0.0857 -0.0634  0.3989
 6201TIP3    H140094   6.274   0.254   1.202  1.1982  1.6811 -0.6244
 6201TIP3    H240095   6.258   0.318   1.338  0.5851 -0.1090  0.1787
 6202TIP3   OH240096   2.579   6.571  14.778  0.6465 -0.2396  0.3490
 6202TIP3    H140097   2.608   6.660  14.759 -0.9002  0.0899 -0.6188
 6202TIP3    H240098   2.577   6.567  14.874 -2.3910  1.9050  0.5129
 6203TIP3   OH240099   5.031   3.242   0.883  0.0243  0.4095  0.0622
 6203TIP3    H140100   5.032   3.193   0.965 -0.8464 -1.0540 -0.7755
 6203TIP3    H240101   5.117   3.284   0.880 -0.8733  2.8039  3.0200
 6204TIP3   OH240102   4.683   0.641   2.026 -0.2463 -0.2269 -0.3045
 6204TIP3    H140103   4.648   0.552   2.025  1.8466 -1.1098 -0.6559
 6204TIP3    H240104   4.648   0.682   1.947 -0.5432 -1.0317 -0.5984
 6205TIP3   OH240105   2.932   1.550  13.446 -0.2686 -0.2123  0.1857
 6205TIP3    H140106   2.869   1.517  13.511 -0.1033  1.1655  1.0850
 6205TIP3    H240107   2.964   1.632  13.483  1.2634 -0.3402 -0.7697
 6206TIP3   OH240108   5.331   5.664   0.097  0.2717 -0.1868  0.5785
 6206TIP3    H140109   5.275   5.742   0.103 -0.0422 -0.3791  0.1809
 6206TIP3    H240110   5.370   5.669   0.010 -0.6210 -1.0529  0.1140
 6207TIP3   OH240111   5.055   4.603   5.213 -0.5764 -0.1409  0.4684
 6207TIP3    H140112   5.034   4.578   5.123  0.5157 -0.9077  0.4000
 6207TIP3    H240113   4.987   4.666   5.238  1.5566  3.7164 -2.4404
 6208TIP3   OH240114   0.829   4.328  12.002  0.2916 -0.5712 -0.2509
 6208TIP3    H140115   0.811   4.261  12.068 -0.5169 -2.0032 -1.8689
 6208TIP3    H240116   0.764   4.397  12.019 -1.8855 -2.2599 -1.3320
 6209TIP3   OH240117   0.254   1.103  14.678  0.0274 -0.3188 -0.2669
 6209TIP3    H140118   0.191   1.156  14.630 -0.7658 -0.0776  0.9827
 6209TIP3    H240119   0.313   1.069  14.611 -0.4738  0.7488 -1.2842
 6210TIP3   OH240120   1.902   5.735   5.759  0.5417 -0.0820  0.1175
 6210TIP3    H140121   1.822   5.734   5.811 -0.2171 -1.8358 -0.9866
 6210TIP3    H240122   1.911   5.645   5.727  2.2633  0.3789 -0.8349
 6211TIP3   OH240123   5.425   3.169  14.155 -0.1415 -0.1984  0.0045
 6211TIP3    H140124   5.463   3.112  14.222 -0.2179 -0.8601 -0.5077
 6211TIP3    H240125   5.379   3.110  14.096  1.7986  0.1115 -1.9129
 6212TIP3   OH240126   0.098   0.064   6.267 -0.1613  0.0320  0.1714
 6212TIP3    H140127   0.090  -0.023   6.228 -0.2690  0.0530  0.1465
 6212TIP3    H240128   0.192   0.077   6.277 -0.1793 -0.5489  1.2041
 6213TIP3   OH240129   1.947   6.025  12.389  0.0737 -0.3910 -0.2943
 6213TIP3    H140130   1.979   5.950  12.338  0.5437 -0.8270  0.6295
 6213TIP3    H240131   1.990   6.101  12.349  1.5663 -0.8735  0.3269
 6214TIP3   OH240132   6.695   4.193   1.608 -0.0673 -0.4352  0.0181
 6214TIP3    H140133   6.705   4.173   1.515  1.0400 -1.9534  0.4259
 6214TIP3    H240134   6.615   4.148   1.634  1.4529 -3.0548  0.5190
 6215TIP3   OH240135   0.936   4.713   5.984  0.5125 -0.5505 -1.0012
 6215TIP3    H140136   0.867   4.660   6.025 -1.0656  0.5859 -2.0600
 6215TIP3    H240137   0.950   4.785   6.045  1.5252 -1.3247 -0.3021
 6216TIP3   OH240138   6.021   1.302  17.024 -0.0704  0.3373 -0.3284
 6216TIP3    H140139   6.020   1.263  16.937 -1.1270  0.8694 -0.5696
 6216TIP3    H240140   5.956   1.251  17.073 -0.0677  0.5666 -0.0869
 6217TIP3   OH240141   3.781   1.574  15.451  0.2462 -0.5831  0.3361
 6217TIP3    H140142   3.693   1.608  15.466  0.1939  0.5995 -2.2029
 6217TIP3    H240143   3.781   1.489  15.495 -1.5477  0.1459  1.8986
 6218TIP3   OH240144   0.385   4.538  13.606 -0.6061 -0.6910 -0.6453
 6218TIP3    H140145   0.460   4.487  13.573  1.0133  0.1657  1.4488
 6218TIP3    H240146   0.352   4.487  13.680  1.4460  1.3340  1.9121
 6219TIP3   OH240147   3.844   2.945  15.879 -0.0112  0.0620  0.6432
 6219TIP3    H140148   3.932   2.961  15.846 -0.2988  1.9068  0.6696
 6219TIP3    H240149   3.838   2.850  15.888  0.5620 -0.4742 -3.2031
 6220TIP3   OH240150   6.384   5.917  16.226  0.0592  1.6939 -0.8234
 6220TIP3    H140151   6.431   5.926  16.309 -1.5486 -0.1424  0.3594
 6220TIP3    H240152   6.438   5.857  16.175  0.3205  1.6872 -0.5405
 6221TIP3   OH240153   3.023   3.939  16.223 -0.0848  1.1050 -0.1820
 6221TIP3    H140154   2.979   3.967  16.144  0.5134  0.5239 -0.7326
 6221TIP3    H240155   2.954   3.900  16.277 -0.0740 -1.0598 -1.6132
 6222TIP3   OH240156   6.067   4.841   2.213  0.5238  0.1073  0.3922
 6222TIP3    H140157   6.108   4.894   2.281 -2.1520 -0.2446  2.4566
 6222TIP3    H240158   6.051   4.902   2.142 -0.5918  1.6362  1.8755
 6223TIP3   OH240159   3.145   0.753   3.626  0.6610 -0.5492  1.0414
 6223TIP3    H140160   3.077   0.691   3.654  0.6474 -0.7684  0.5246
 6223TIP3    H240161   3.131   0.829   3.682 -0.5211 -0.2761  0.4259
 6224TIP3   OH240162   6.547   2.065  14.381  0.2383 -0.0712  0.2707
 6224TIP3    H140163   6.541   2.142  14.437 -1.6089  0.9759 -1.2377
 6224TIP3    H240164   6.459   2.026  14.385  0.1196 -0.0948 -1.6467
 6225TIP3   OH240165   4.151   4.260   1.950 -0.4768 -0.2797  0.6162
 6225TIP3    H140166   4.057   4.262   1.970 -0.5539 -1.6798  0.4790
 6225TIP3    H240167   4.186   4.189   2.003 -0.0363 -1.7100 -1.4836
 6226TIP3   OH240168   3.575   3.396  12.371 -0.4693 -0.5792 -0.5966
 6226TIP3    H140169   3.660   3.390  12.328  0.3041  2.0051  0.4356
 6226TIP3    H240170   3.514   3.417  12.300  0.8265  3.9264 -0.6890
 6227TIP3   OH240171   3.730   0.120   3.226 -0.0427 -0.3761 -0.5598
 6227TIP3    H140172   3.682   0.062   3.285  2.0516 -2.4726 -0.7649
 6227TIP3    H240173   3.709   0.087   3.139 -1.0749  1.0527 -0.8795
 6228TIP3   OH240174   3.985   5.639   1.225  0.3188  0.0255 -0.1082
 6228TIP3    H140175   3.966   5.608   1.137  0.9537  0.3489 -0.3608
 6228TIP3    H240176   3.968   5.563   1.281  0.0589 -0.2241 -0.5232
 6229TIP3   OH240177   0.459   6.460   2.390  0.0214  0.3275  0.7453
 6229TIP3    H140178   0.392   6.451   2.322  0.9666  1.4682 -0.3753
 6229TIP3    H240179   0.456   6.552   2.416  0.1930  0.0717  1.7201
 6230TIP3   OH240180   0.482   6.801   1.560  0.0690  0.0164 -0.6999
 6230TIP3    H140181   0.483   6.886   1.604  2.3800  0.6111 -1.7682
 6230TIP3    H240182   0.391   6.773   1.565 -1.1811  3.3392 -1.7336
 6231TIP3   OH240183   1.356   5.553   1.826  0.0803 -0.4675 -0.0342
 6231TIP3    H140184   1.404   5.636   1.829  0.6708 -0.7798 -0.6549
 6231TIP3    H240185   1.382   5.508   1.907 -0.7538  0.2164  0.6363
 6232TIP3   OH240186   0.762   5.300  14.069 -0.4131 -0.0438  1.0460
 6232TIP3    H140187   0.836   5.359  14.053 -0.5593  0.8948  3.4685
 6232TIP3    H240188   0.694   5.328  14.008  0.4569  0.5091  0.3085
 6233TIP3   OH240189   4.392   6.038   0.828  0.5056 -0.2317 -0.0250
 6233TIP3    H140190   4.462   5.981   0.797  1.3251 -0.0823  1.4355
 6233TIP3    H240191   4.420   6.126   0.801 -0.1764 -0.3550 -1.2396
 6234TIP3   OH240192   2.477   2.927  13.716 -0.1477 -1.0961 -0.1390
 6234TIP3    H140193   2.571   2.913  13.723  0.1677  0.8280  0.1009
 6234TIP3    H240194   2.468   3.017  13.682 -1.8932 -1.2950 -0.3395
 6235TIP3   OH240195   3.600   0.189   2.176  0.2808 -0.3144  0.2348
 6235TIP3    H140196   3.684   0.235   2.181  0.4838 -0.6304 -0.2491
 6235TIP3    H240197   3.579   0.168   2.267  1.1056 -0.9016  0.3019
 6236TIP3   OH240198   4.852   2.670   3.377 -0.3801 -0.2299  0.4471
 6236TIP3    H140199   4.897   2.724   3.312 -0.1811 -1.2971 -0.3267
 6236TIP3    H240200   4.887   2.581   3.364  1.0584 -0.2052  3.2186
 6237TIP3   OH240201   1.903   4.940  14.915  0.3751 -0.3189 -0.4528
 6237TIP3    H140202   1.851   4.882  14.860 -0.0399  1.1528 -1.6792
 6237TIP3    H240203   1.839   4.999  14.954  0.5665 -1.7140  2.2319
 6238TIP3   OH240204   3.423   1.735  15.050 -0.2951 -0.6257 -0.1706
 6238TIP3    H140205   3.373   1.762  15.127  2.3790 -0.0082  1.4828
 6238TIP3    H240206   3.382   1.781  14.977 -1.3466  0.8129  1.2648
 6239TIP3   OH240207   3.465   2.121  15.335  0.1404  0.7563  0.2602
 6239TIP3    H140208   3.373   2.142  15.323 -0.0072  0.5135  0.9171
 6239TIP3    H240209   3.508   2.152  15.255 -0.4844  1.0120  0.0207
 6240TIP3   OH240210   4.949   4.809  11.286  0.4436  0.1765  0.0630
 6240TIP3    H140211   4.955   4.715  11.271 -0.1238  0.2352 -0.5743
 6240TIP3    H240212   4.986   4.822  11.373  1.7001 -0.4790 -0.3513
 6241TIP3   OH240213   2.054   0.060   5.975 -0.1582 -0.2867 -0.1210
 6241TIP3    H140214   2.014   0.095   5.896  0.2666 -0.3553 -0.3713
 6241TIP3    H240215   2.055   0.133   6.037  2.0277  0.6218 -1.1176
 6242TIP3   OH240216   5.584   5.755   4.160  0.3050 -0.1326  0.0151
 6242TIP3    H140217   5.500   5.801   4.158 -0.6662 -1.7802  0.8027
 6242TIP3    H240218   5.610   5.748   4.068 -0.3914  0.4085 -0.2342
 6243TIP3   OH240219   5.860   6.611   3.050 -0.2455 -0.0036 -0.2924
 6243TIP3    H140220   5.828   6.621   2.961  0.1096 -1.7327 -0.6459
 6243TIP3    H240221   5.790   6.645   3.105 -0.2355  1.6403 -1.2091
 6244TIP3   OH240222   1.538   6.770  15.857  0.2426  0.5426 -0.3554
 6244TIP3    H140223   1.510   6.744  15.945  1.0101 -0.0655 -0.2726
 6244TIP3    H240224   1.513   6.696  15.802  0.3038  0.6615 -0.5415
 6245TIP3   OH240225   0.256   5.996  11.881  0.1616  0.2519 -1.0815
 6245TIP3    H140226   0.188   6.031  11.939  0.4912 -0.0672 -0.4944
 6245TIP3    H240227   0.338   6.017  11.925  0.4297  0.3007 -1.6018
 6246TIP3   OH240228   1.149   2.873   3.671  0.1981 -0.2327  0.1303
 6246TIP3    H140229   1.136   2.854   3.764 -1.5075 -0.7867 -0.1783
 6246TIP3    H240230   1.243   2.861   3.657  0.4985 -0.1082  1.7729
 6247TIP3   OH240231   1.516   0.767   1.317 -0.6063 -0.8123  0.0511
 6247TIP3    H140232   1.433   0.813   1.305  0.0649  0.2674 -0.6188
 6247TIP3    H240233   1.583   0.831   1.294  0.4567 -1.4587  1.2134
 6248TIP3   OH240234   5.390   5.722  13.418 -0.4159 -0.3265 -0.0428
 6248TIP3    H140235   5.332   5.788  13.455  1.4888  1.1143  0.5111
 6248TIP3    H240236   5.370   5.722  13.324 -1.1276  0.3043  0.1006
 6249TIP3   OH240237   6.592   1.570   1.111 -0.0962  0.5263  0.3901
 6249TIP3    H140238   6.581   1.556   1.205 -2.3467 -1.4038 -0.0567
 6249TIP3    H240239   6.641   1.494   1.081 -0.7789  0.3173 -0.2143
 6250TIP3   OH240240   0.580   3.958  14.582  0.0380 -0.3897  0.5925
 6250TIP3    H140241   0.568   4.040  14.629  0.2153  0.9462 -1.5732
 6250TIP3    H240242   0.507   3.903  14.610 -0.8240  0.9712  1.0980
 6251TIP3   OH240243   5.736   2.779   6.079  0.1569  0.1129 -0.5540
 6251TIP3    H140244   5.674   2.718   6.040 -0.0369 -0.7820  1.0377
 6251TIP3    H240245   5.795   2.724   6.131 -0.2643  1.2487  1.2548
 6252TIP3   OH240246   6.023   3.897   2.613 -0.1310 -0.2499  0.4606
 6252TIP3    H140247   6.080   3.850   2.553  0.1099 -0.3368  0.7571
 6252TIP3    H240248   5.935   3.870   2.588 -0.0855  0.3265 -0.3737
 6253TIP3   OH240249   2.930   4.442  16.982 -0.1354 -0.4896  0.2685
 6253TIP3    H140250   2.977   4.454  17.065  0.6394  0.1140 -0.2400
 6253TIP3    H240251   2.887   4.357  16.990  2.3090 -1.8088  0.1804
 6254TIP3   OH240252   1.350   1.360   4.188 -0.2446  0.0187 -0.1427
 6254TIP3    H140253   1.309   1.322   4.266  1.0579 -1.4507 -0.1199
 6254TIP3    H240254   1.389   1.285   4.143  0.0700  1.0027 -1.5909
 6255TIP3   OH240255   2.390   4.007   0.778 -0.3168 -0.1069  0.6484
 6255TIP3    H140256   2.360   4.095   0.754 -0.7602 -0.2441  0.7023
 6255TIP3    H240257   2.346   3.949   0.716 -0.6421 -0.3645  1.1234
 6256TIP3   OH240258   0.055   1.286  11.950 -0.2067 -0.3573  0.6450
 6256TIP3    H140259   0.048   1.222  12.020  0.3451 -1.0204  0.1117
 6256TIP3    H240260   0.150   1.299  11.939 -0.0936 -2.5667 -1.9792
 6257TIP3   OH240261   1.083   3.664  14.139  0.2091  0.6765  0.0391
 6257TIP3    H140262   1.159   3.713  14.107  1.2132 -0.8579 -0.0181
 6257TIP3    H240263   1.069   3.696  14.228  1.4341  0.4166  0.3414
 6258TIP3   OH240264   1.712   5.206  11.395  0.4964  0.0074 -0.7645
 6258TIP3    H140265   1.684   5.120  11.364 -0.2541 -0.0540  0.0210
 6258TIP3    H240266   1.794   5.223  11.350 -0.7262  0.1446 -3.1060
 6259TIP3   OH240267   6.173   1.697   0.342 -0.3861  0.3767  0.3004
 6259TIP3    H140268   6.194   1.622   0.397  0.3624 -0.6352 -1.2921
 6259TIP3    H240269   6.182   1.773   0.400 -1.4664 -0.7644  2.0202
 6260TIP3   OH240270   6.647   1.500   3.636  0.5524 -0.2383 -0.8855
 6260TIP3    H140271   6.558   1.523   3.610  0.6405 -0.5394 -1.4707
 6260TIP3    H240272   6.639   1.413   3.675  0.2930  0.5442  0.8889
 6261TIP3   OH240273   2.835   6.676   1.956  0.0079 -0.4228 -0.4040
 6261TIP3    H140274   2.828   6.657   2.050 -0.1967 -0.1796 -0.3712
 6261TIP3    H240275   2.745   6.692   1.928  0.2666  1.5009 -0.2289
 6262TIP3   OH240276   4.385   4.850   2.170  0.0683 -0.0922  0.2948
 6262TIP3    H140277   4.399   4.932   2.217 -1.3231 -0.2128  0.9603
 6262TIP3    H240278   4.335   4.795   2.231 -2.0179 -0.1570 -1.3800
 6263TIP3   OH240279   1.099   5.669   3.535  0.0557 -0.0151  0.1945
 6263TIP3    H140280   1.118   5.763   3.527  1.4472 -0.3000 -0.2373
 6263TIP3    H240281   1.051   5.648   3.455  0.7887  0.1097 -0.2911
 6264TIP3   OH240282   6.207   3.010   2.812  0.3113  0.0454 -0.0200
 6264TIP3    H140283   6.221   3.011   2.717  0.0246 -1.0172 -0.0883
 6264TIP3    H240284   6.272   3.072   2.846 -0.2435  1.1950 -0.9805
 6265TIP3   OH240285   0.477   0.680  11.868  0.2088  0.3721  0.2062
 6265TIP3    H140286   0.561   0.689  11.822 -0.5159  1.0524 -1.0240
 6265TIP3    H240287   0.475   0.589  11.895  1.4422  0.3943  0.4508
 6266TIP3   OH240288   3.365   0.296   2.054  0.0491  0.3065  0.0534
 6266TIP3    H140289   3.415   0.336   1.982 -1.4814  1.2213 -0.5531
 6266TIP3    H240290   3.428   0.239   2.098  1.7730  1.8126 -0.3365
 6267TIP3   OH240291   1.601   5.805  10.904 -0.5466 -0.1705  0.7511
 6267TIP3    H140292   1.644   5.721  10.889  0.6523  0.4328  0.7307
 6267TIP3    H240293   1.669   5.870  10.890 -1.8169  0.9066 -0.6968
 6268TIP3   OH240294   0.522   1.365  11.086  0.0370  0.3622 -0.1303
 6268TIP3    H140295   0.588   1.361  11.156  0.3360 -1.8698 -0.4398
 6268TIP3    H240296   0.508   1.273  11.061 -0.7409  1.0051 -2.3710
 6269TIP3   OH240297   6.355   1.440  14.972  0.1828 -0.3593 -0.5364
 6269TIP3    H140298   6.386   1.427  14.883  2.5045  1.5163 -0.0984
 6269TIP3    H240299   6.306   1.522  14.969  1.7439  0.6428  0.1719
 6270TIP3   OH240300   4.860   5.842  14.089  0.1329  0.3688  0.2311
 6270TIP3    H140301   4.844   5.842  13.994  0.8922  1.1018  0.0935
 6270TIP3    H240302   4.951   5.814  14.098 -0.4963 -1.6117  0.8830
 6271TIP3   OH240303   0.920   3.747   0.143  0.4839  0.0657 -0.3034
 6271TIP3    H140304   0.836   3.750   0.098  1.0284 -1.4463 -1.5093
 6271TIP3    H240305   0.899   3.722   0.233 -0.4335  0.8746 -0.2822
 6272TIP3   OH240306   2.306   6.076   4.470 -0.2431 -0.3354 -0.7138
 6272TIP3    H140307   2.292   6.007   4.534  1.7779  0.8487  1.1587
 6272TIP3    H240308   2.400   6.092   4.473 -0.3948  1.2113 -2.4733
 6273TIP3   OH240309   0.769   1.239  12.078 -0.4177 -0.3364 -0.9026
 6273TIP3    H140310   0.790   1.277  12.164 -0.7216 -0.9684 -0.5448
 6273TIP3    H240311   0.811   1.299  12.016  1.6198 -0.9899 -0.2646
 6274TIP3   OH240312   4.512   3.518   6.331  0.4790  0.0834  0.3819
 6274TIP3    H140313   4.528   3.598   6.282  2.0175  0.5270  1.5358
 6274TIP3    H240314   4.599   3.486   6.354 -0.1386 -1.3368  0.8751
 6275TIP3   OH240315   6.647   6.501   2.423 -0.3358  0.4345  0.0997
 6275TIP3    H140316   6.719   6.479   2.364 -0.5748 -0.0385 -0.0205
 6275TIP3    H240317   6.689   6.520   2.507 -0.0469  0.4854 -0.0564
 6276TIP3   OH240318   6.647   6.161  13.846  0.0874  0.0725  0.3890
 6276TIP3    H140319   6.732   6.117  13.855  0.1806  0.2239  0.2621
 6276TIP3    H240320   6.643   6.219  13.922 -0.0585 -0.1916  0.5831
 6277TIP3   OH240321   3.139   2.282   0.698  0.1582 -0.1783  0.1889
 6277TIP3    H140322   3.182   2.216   0.752  1.4078  0.8497  0.4630
 6277TIP3    H240323   3.075   2.323   0.756  1.2089  0.6396  0.7897
 6278TIP3   OH240324   6.716   4.015  15.293  0.4421 -0.1958 -0.3664
 6278TIP3    H140325   6.780   4.039  15.225  0.4597  0.2774 -0.1829
 6278TIP3    H240326   6.748   3.932  15.327  0.1887 -0.6702 -1.2496
 6279TIP3   OH240327   5.090   3.158  10.541  0.0551 -0.2465 -0.0339
 6279TIP3    H140328   5.104   3.152  10.635 -0.0101 -0.6068 -0.0461
 6279TIP3    H240329   5.050   3.244  10.528  0.2180 -0.1286  0.2474
 6280TIP3   OH240330   6.368   3.316   2.578  0.5209  0.3964  0.2090
 6280TIP3    H140331   6.450   3.279   2.545 -0.0280  0.7816 -1.7058
 6280TIP3    H240332   6.356   3.396   2.526 -0.7305  0.6955  0.9301
 6281TIP3   OH240333   3.338   2.759  16.156 -0.0169  0.2217  0.2489
 6281TIP3    H140334   3.289   2.824  16.105 -0.1590 -0.7001 -0.8235
 6281TIP3    H240335   3.430   2.783  16.142 -0.0217 -0.3977 -1.0097
 6282TIP3   OH240336   6.109   1.173  16.726  0.0834  0.3672 -0.0316
 6282TIP3    H140337   6.095   1.078  16.726  0.0133  0.2485  3.2300
 6282TIP3    H240338   6.198   1.183  16.693  0.4884 -0.9711  0.5420
 6283TIP3   OH240339   2.554   1.778   4.723  0.0073  0.1837  0.2326
 6283TIP3    H140340   2.633   1.735   4.691  1.0830  1.0213  1.6420
 6283TIP3    H240341   2.503   1.707   4.764 -0.2714 -0.4556 -1.1693
 6284TIP3   OH240342   3.667   3.647   4.515  0.7382 -0.0034  0.3617
 6284TIP3    H140343   3.709   3.669   4.431 -1.7570  0.5851 -0.8182
 6284TIP3    H240344   3.650   3.553   4.509  1.3427 -0.1354  0.6118
 6285TIP3   OH240345   6.282   1.663  15.250  0.0202 -0.6407  0.1480
 6285TIP3    H140346   6.250   1.625  15.168  0.9911  0.0423 -0.5786
 6285TIP3    H240347   6.207   1.659  15.309 -0.9209 -0.5343 -0.9826
 6286TIP3   OH240348   3.875   0.290   2.250  0.1860 -0.3893 -0.4573
 6286TIP3    H140349   3.964   0.309   2.222  0.7233  0.7630  1.7440
 6286TIP3    H240350   3.842   0.373   2.285 -1.7097 -0.8327 -1.0415
 6287TIP3   OH240351   0.896   6.304   5.325  0.5597  0.0789  0.2226
 6287TIP3    H140352   0.865   6.214   5.332 -0.4221  0.3552 -0.3029
 6287TIP3    H240353   0.980   6.298   5.281  1.3971 -0.7270  1.8558
 6288TIP3   OH240354   4.737   5.859  11.933  0.2620 -0.0226  0.0498
 6288TIP3    H140355   4.768   5.879  12.021  0.7109 -0.5479  0.0189
 6288TIP3    H240356   4.663   5.799  11.946  0.0986  0.1834  0.0780
 6289TIP3   OH240357   3.525   1.345   0.684 -0.1064  0.2895 -0.5012
 6289TIP3    H140358   3.609   1.303   0.665  0.2428  1.0126 -0.6049
 6289TIP3    H240359   3.507   1.322   0.776  0.1459  0.0366 -0.5134
 6290TIP3   OH240360   5.314   2.832   6.093  0.1277 -0.0466  0.3493
 6290TIP3    H140361   5.349   2.774   6.160 -1.2256 -1.0287  0.2480
 6290TIP3    H240362   5.246   2.780   6.049 -1.6098  1.8210  0.6852
 6291TIP3   OH240363   3.788   6.482   2.442  0.0701  0.6411 -0.4641
 6291TIP3    H140364   3.842   6.435   2.378  2.7213  2.0905  0.5677
 6291TIP3    H240365   3.736   6.542   2.389  0.9896  0.6552 -1.3834
 6292TIP3   OH240366   1.537   4.142  10.788 -0.2667 -0.0426  0.0624
 6292TIP3    H140367   1.464   4.203  10.797  0.0033  0.0365  2.2316
 6292TIP3    H240368   1.513   4.087  10.713 -1.7147  1.0718 -0.3423
 6293TIP3   OH240369   3.030   2.026  13.668 -0.1502  0.5816  0.5042
 6293TIP3    H140370   3.085   2.084  13.615  0.4665  0.1600  0.6819
 6293TIP3    H240371   3.016   2.075  13.749  0.0840  0.6222  0.5195
 6294TIP3   OH240372   5.148   1.760  12.573 -0.2927 -0.3868  0.0424
 6294TIP3    H140373   5.185   1.789  12.656 -1.0831 -1.7830  0.9321
 6294TIP3    H240374   5.111   1.674  12.593 -0.0570 -0.9788 -1.8883
 6295TIP3   OH240375   5.851   0.581  12.339 -0.2971  0.5199 -0.2936
 6295TIP3    H140376   5.916   0.650  12.356  0.0644  0.3845 -1.1175
 6295TIP3    H240377   5.768   0.628  12.331 -0.8475  0.4938  3.4685
 6296TIP3   OH240378   4.599   2.211   4.297 -0.2203  0.1569 -0.7581
 6296TIP3    H140379   4.540   2.285   4.277 -1.5536 -0.6847 -0.0735
 6296TIP3    H240380   4.551   2.159   4.361  1.1402 -0.7682 -0.4612
 6297TIP3   OH240381   0.866   0.862  11.395 -0.3868  0.4542  0.1197
 6297TIP3    H140382   0.864   0.957  11.412  0.2290  0.1198  2.4082
 6297TIP3    H240383   0.796   0.826  11.449 -0.4633 -0.4298 -0.5493
 6298TIP3   OH240384   4.646   1.917   2.825 -0.8406 -0.2077 -0.0345
 6298TIP3    H140385   4.651   1.824   2.845 -1.2097 -0.8187 -2.4161
 6298TIP3    H240386   4.573   1.924   2.763  2.1441  0.7532 -3.8425
 6299TIP3   OH240387   3.047   3.574   3.978  0.3288 -0.7461  0.3457
 6299TIP3    H140388   3.004   3.520   4.044  0.0928 -0.5982  0.3128
 6299TIP3    H240389   2.982   3.639   3.954  1.3132  0.8738  1.8781
 6300TIP3   OH240390   2.551   6.293  16.522  0.1456  0.0999 -0.0044
 6300TIP3    H140391   2.479   6.348  16.553  0.8713  1.3192 -0.4182
 6300TIP3    H240392   2.630   6.343  16.542  0.7073  0.4544 -2.7465
 6301TIP3   OH240393   1.977   2.078   2.071  0.2279  0.0146 -0.3355
 6301TIP3    H140394   1.947   2.133   2.143  0.7618 -0.4269  0.2424
 6301TIP3    H240395   1.943   2.120   1.992  2.5368  2.5122 -0.1320
 6302TIP3   OH240396   3.119   2.590   6.639  0.1957  0.7618 -0.9629
 6302TIP3    H140397   3.033   2.589   6.680  1.0529  2.9413  1.0707
 6302TIP3    H240398   3.110   2.650   6.565 -0.5331 -0.7064 -2.1144
 6303TIP3   OH240399   4.598   2.115  11.608  0.2501 -0.4520  0.0332
 6303TIP3    H140400   4.629   2.049  11.547  0.2401  0.2878 -0.7951
 6303TIP3    H240401   4.595   2.196  11.557 -0.7673 -0.0264  0.7234
 6304TIP3   OH240402   5.763   6.846   5.729 -0.1110 -0.3999 -0.0261
 6304TIP3    H140403   5.793   6.921   5.678  0.1170 -0.7189 -0.3582
 6304TIP3    H240404   5.840   6.817   5.778 -0.0988 -0.6657 -0.2026
 6305TIP3   OH240405   1.636   4.110  15.929 -0.1689 -0.1974 -0.8707
 6305TIP3    H140406   1.658   4.084  15.840  1.1134  1.8835 -1.2432
 6305TIP3    H240407   1.697   4.062  15.984  0.5951  0.2113 -1.3385
 6306TIP3   OH240408   1.137   3.049  11.302  0.2075  0.4836  0.2418
 6306TIP3    H140409   1.198   2.994  11.351  0.3938  1.3644  1.0070
 6306TIP3    H240410   1.088   3.096  11.368  1.1673  2.4772 -0.3915
 6307TIP3   OH240411   0.234   6.040  12.504 -0.6685 -0.3358 -0.1107
 6307TIP3    H140412   0.210   6.105  12.438 -0.9343 -1.1573 -0.8464
 6307TIP3    H240413   0.181   5.964  12.483  0.2704 -1.0929  0.1864
 6308TIP3   OH240414   4.790   3.992   3.896  0.1432 -0.0421 -0.0401
 6308TIP3    H140415   4.853   3.943   3.948 -1.6489 -1.2387  1.1415
 6308TIP3    H240416   4.717   4.008   3.956 -0.1286  2.5074 -0.9424
 6309TIP3   OH240417   4.129   4.442  11.359 -0.2914 -0.5820  0.7911
 6309TIP3    H140418   4.185   4.514  11.388 -0.4714 -0.6448  1.3098
 6309TIP3    H240419   4.191   4.373  11.335 -0.0475  0.3272 -1.3915
 6310TIP3   OH240420   6.511   3.692   5.006  0.5391 -0.3177  0.0716
 6310TIP3    H140421   6.566   3.744   5.065  2.4562 -3.0671  0.9004
 6310TIP3    H240422   6.422   3.712   5.033  1.3027 -0.5829  3.2182
 6311TIP3   OH240423   0.780   2.594  14.793 -0.4739  0.3002 -0.3057
 6311TIP3    H140424   0.699   2.550  14.819 -1.0878  1.4834 -0.1378
 6311TIP3    H240425   0.834   2.526  14.754 -0.4683 -1.0904  1.9445
 6312TIP3   OH240426   4.632   0.700  13.093 -0.3370  0.3934 -0.2334
 6312TIP3    H140427   4.600   0.613  13.114 -0.1349  0.7590  1.8113
 6312TIP3    H240428   4.725   0.698  13.117  0.0408  0.7710 -1.5404
 6313TIP3   OH240429   2.736   6.329   2.613  0.1670  0.1738 -0.7136
 6313TIP3    H140430   2.655   6.325   2.662  0.0796 -1.1061 -0.9415
 6313TIP3    H240431   2.724   6.403   2.552 -0.8043  0.0086 -0.7307
 6314TIP3   OH240432   4.352   4.802  10.389  0.2243  0.4862  0.3743
 6314TIP3    H140433   4.327   4.711  10.405 -0.5648  0.5710 -0.2957
 6314TIP3    H240434   4.287   4.854  10.436  0.7228  0.7101  0.8252
 6315TIP3   OH240435   0.872   6.435   0.503  0.4541 -0.3525 -0.2912
 6315TIP3    H140436   0.850   6.371   0.570  1.8513  0.1450  0.6742
 6315TIP3    H240437   0.787   6.473   0.478 -0.0626 -0.2092  1.5301
 6316TIP3   OH240438   6.086   6.020   4.252 -0.3642  0.1586 -0.1095
 6316TIP3    H140439   6.018   6.085   4.235 -0.0137  0.6205  0.2503
 6316TIP3    H240440   6.038   5.937   4.257 -0.5029 -0.1443 -3.8061
 6317TIP3   OH240441   5.899   1.335   1.842 -0.7472  0.0989 -0.0280
 6317TIP3    H140442   5.949   1.402   1.889  0.5574  0.3433 -1.6510
 6317TIP3    H240443   5.942   1.252   1.866 -1.3853 -0.0106  0.7770
 6318TIP3   OH240444   6.304   3.953  14.426  0.8847 -0.1532 -0.1666
 6318TIP3    H140445   6.236   4.007  14.467  0.2258 -0.0106 -1.3854
 6318TIP3    H240446   6.358   4.015  14.377  1.4021 -0.3660  0.1274
 6319TIP3   OH240447   4.390   4.878   4.853 -0.1245 -0.5199 -0.2204
 6319TIP3    H140448   4.329   4.945   4.883  0.5983  0.0907 -0.0828
 6319TIP3    H240449   4.463   4.928   4.816  1.0531 -1.1937  1.1080
 6320TIP3   OH240450   3.048   1.098  16.331  0.4967 -0.3911  0.3862
 6320TIP3    H140451   3.076   1.029  16.391  0.6230  0.0827  0.8822
 6320TIP3    H240452   3.113   1.167  16.342  1.4053 -0.8994 -1.4386
 6321TIP3   OH240453   3.555   2.714  11.537  0.0039 -0.2388  0.1077
 6321TIP3    H140454   3.548   2.702  11.631  0.0362  0.4456  0.2009
 6321TIP3    H240455   3.579   2.627  11.503  1.4791 -0.1505  0.8781
 6322TIP3   OH240456   5.329   2.188  15.730  0.1535 -0.3525 -0.1476
 6322TIP3    H140457   5.345   2.097  15.703 -1.9406 -1.5608  2.2124
 6322TIP3    H240458   5.253   2.215  15.678  0.9247  0.1823 -1.0257
 6323TIP3   OH240459   4.302   6.830  12.624 -0.4783 -0.5956  0.7129
 6323TIP3    H140460   4.293   6.769  12.697  1.0965 -1.2170  0.4380
 6323TIP3    H240461   4.346   6.906  12.662 -1.0290 -0.2850  0.7295
 6324TIP3   OH240462   2.447   1.111  15.172 -0.8224  0.7702 -0.6715
 6324TIP3    H140463   2.522   1.150  15.217 -2.1102  1.5481  0.8804
 6324TIP3    H240464   2.425   1.174  15.103  0.0023  0.4766 -1.2207
 6325TIP3   OH240465   0.525   5.245   4.678 -0.1365 -0.6450 -0.1995
 6325TIP3    H140466   0.498   5.312   4.741  0.9977  1.0997 -1.4841
 6325TIP3    H240467   0.445   5.195   4.660 -1.5413  1.6281 -0.6844
 6326TIP3   OH240468   2.138   5.907  12.822 -0.4443 -0.6275 -0.2963
 6326TIP3    H140469   2.136   5.936  12.914 -0.2176  1.2589 -0.8341
 6326TIP3    H240470   2.046   5.906  12.796 -0.4599 -0.4286 -0.2537
 6327TIP3   OH240471   1.954   3.472  13.037  0.1329 -0.3552  0.1519
 6327TIP3    H140472   1.886   3.500  12.977  0.1373 -0.0045  0.3060
 6327TIP3    H240473   2.000   3.402  12.991  0.1443 -0.0847 -0.2576
 6328TIP3   OH240474   0.441   5.233   5.080 -0.0771 -0.2344 -0.1037
 6328TIP3    H140475   0.477   5.150   5.050  0.2872  0.3185 -1.2560
 6328TIP3    H240476   0.360   5.209   5.124  0.7084 -1.3195  0.8376
 6329TIP3   OH240477   5.044   4.972  15.816 -0.1118  0.2050  0.0092
 6329TIP3    H140478   5.002   5.002  15.897 -1.1425  1.1378 -0.8293
 6329TIP3    H240479   5.137   4.987  15.829 -0.0992 -1.0209  1.5677
 6330TIP3   OH240480   1.758   5.433   1.115 -0.0134  0.1333 -0.8622
 6330TIP3    H140481   1.820   5.424   1.043  0.2405 -0.3124 -0.5906
 6330TIP3    H240482   1.721   5.346   1.126  0.5107  0.0151  0.0430
 6331TIP3   OH240483   2.259   4.945   3.090 -0.1192  0.4044  0.0526
 6331TIP3    H140484   2.174   4.986   3.073 -1.9540 -3.0713  0.0606
 6331TIP3    H240485   2.245   4.893   3.169  1.5307 -1.4774 -0.8115
 6332TIP3   OH240486   2.947   6.875   2.772 -0.4405  0.2093  0.3487
 6332TIP3    H140487   2.944   6.965   2.805  0.1436  0.4133 -0.1468
 6332TIP3    H240488   3.027   6.871   2.720 -1.2485 -0.1610 -0.9081
 6333TIP3   OH240489   1.430   1.869   3.890  0.1288  0.3335  0.4075
 6333TIP3    H140490   1.487   1.848   3.816 -0.2024  0.5937  0.0764
 6333TIP3    H240491   1.438   1.794   3.948 -1.1141 -0.8015 -0.8056
 6334TIP3   OH240492   0.699   5.311  16.274  0.1587  0.1085 -0.3788
 6334TIP3    H140493   0.643   5.388  16.282  0.3017  0.3415 -1.5240
 6334TIP3    H240494   0.682   5.261  16.354  1.0288  1.9606  1.0565
 6335TIP3   OH240495   0.389   0.129   2.328 -0.0158  0.0711  0.2422
 6335TIP3    H140496   0.333   0.206   2.340 -0.7257 -0.4894  0.6394
 6335TIP3    H240497   0.374   0.102   2.238  0.4231  0.5391  0.0270
 6336TIP3   OH240498   3.177   1.707   4.277  0.4636  0.1884 -0.6275
 6336TIP3    H140499   3.182   1.702   4.182  0.7673  2.0789 -0.7610
 6336TIP3    H240500   3.153   1.619   4.305  0.0154 -0.3181 -2.4680
 6337TIP3   OH240501   4.878   4.589   4.020 -0.4699  0.0258  0.6525
 6337TIP3    H140502   4.887   4.520   3.955 -3.7066 -1.3921  1.5096
 6337TIP3    H240503   4.877   4.670   3.969  0.1676 -0.7698 -0.6907
 6338TIP3   OH240504   3.993   4.754  10.534  0.2938 -0.4211  0.6739
 6338TIP3    H140505   3.900   4.735  10.545  0.8216 -1.5535  4.0916
 6338TIP3    H240506   3.996   4.849  10.519 -1.3906 -0.4631 -0.2488
 6339TIP3   OH240507   0.600   2.230  16.326  0.1538 -0.4188  0.1934
 6339TIP3    H140508   0.568   2.148  16.364 -0.4561 -0.0653  0.4651
 6339TIP3    H240509   0.542   2.297  16.363  0.2332  0.0573 -0.5371
 6340TIP3   OH240510   2.092   2.912  16.398  0.2364  0.1618  0.1596
 6340TIP3    H140511   2.168   2.879  16.350  1.1656  2.0160  0.2935
 6340TIP3    H240512   2.052   2.975  16.338 -2.0680 -1.7229 -0.4788
 6341TIP3   OH240513   0.637   4.456   4.654  0.3012 -0.0520  0.2792
 6341TIP3    H140514   0.575   4.486   4.588  0.2800 -1.1159 -0.2003
 6341TIP3    H240515   0.715   4.433   4.605  0.2371 -0.9800  0.6001
 6342TIP3   OH240516   2.981   5.484  14.816  0.0345 -0.2856  0.6200
 6342TIP3    H140517   2.898   5.448  14.785 -0.8226 -1.4135  3.8547
 6342TIP3    H240518   3.021   5.522  14.738 -1.8753 -2.7840 -1.7667
 6343TIP3   OH240519   3.141   3.779   1.627 -0.2249  0.0401 -0.1291
 6343TIP3    H140520   3.110   3.829   1.702  2.0821  1.7749 -0.2034
 6343TIP3    H240521   3.236   3.772   1.641 -0.1363 -2.2284 -1.4078
 6344TIP3   OH240522   6.726   1.513  16.555 -0.4398 -0.3441  0.0152
 6344TIP3    H140523   6.680   1.473  16.629  1.1332  0.3103  1.4334
 6344TIP3    H240524   6.816   1.523  16.586  0.4060 -0.5019 -2.2071
 6345TIP3   OH240525   6.537   3.099  11.647 -0.6080  0.4176 -0.2182
 6345TIP3    H140526   6.448   3.134  11.657 -1.2499 -0.7028 -1.5851
 6345TIP3    H240527   6.526   3.005  11.660 -0.2545 -0.1839 -3.4457
 6346TIP3   OH240528   3.125   4.550   2.751  0.3143  0.1534  0.6301
 6346TIP3    H140529   3.071   4.472   2.766  0.1734 -0.1996 -1.4296
 6346TIP3    H240530   3.215   4.519   2.761  0.3789 -0.8745 -2.1800
 6347TIP3   OH240531   0.674   6.221   0.241 -0.3678 -0.0992 -0.5777
 6347TIP3    H140532   0.747   6.161   0.256  0.1435  0.5416 -0.4248
 6347TIP3    H240533   0.596   6.168   0.255  0.0519 -0.1681  1.9032
 6348TIP3   OH240534   5.106   4.410   6.136  1.0491  0.4570  0.6622
 6348TIP3    H140535   5.176   4.449   6.085 -0.2974  0.3278 -1.4242
 6348TIP3    H240536   5.060   4.484   6.176  0.6295  0.7937 -0.3991
 6349TIP3   OH240537   2.216   1.484   0.871 -0.2946  0.4209  0.1223
 6349TIP3    H140538   2.241   1.552   0.809  0.1080 -0.1189 -0.3225
 6349TIP3    H240539   2.259   1.509   0.953 -0.0640  0.6451 -0.0660
 6350TIP3   OH240540   0.968   6.804  15.575 -0.4680 -0.0838 -0.0336
 6350TIP3    H140541   0.982   6.824  15.483  0.0961  0.3078  0.1370
 6350TIP3    H240542   0.908   6.729  15.574 -0.5428 -0.0202 -0.7124
 6351TIP3   OH240543   5.501   5.128  13.305 -0.3434 -0.3696 -0.6246
 6351TIP3    H140544   5.416   5.162  13.332 -0.0565  0.1599 -0.3592
 6351TIP3    H240545   5.491   5.107  13.212 -1.4484 -2.5208 -0.0957
 6352TIP3   OH240546   6.046   2.223  11.951  0.0027  0.4085 -0.5539
 6352TIP3    H140547   6.122   2.220  12.009  0.3248  0.7688 -0.9477
 6352TIP3    H240548   6.079   2.193  11.867 -0.4029  0.1312 -0.6123
 6353TIP3   OH240549   5.430   4.276  12.960 -0.1101 -0.3473  0.0651
 6353TIP3    H140550   5.390   4.259  12.875 -1.1702  1.9766  0.0368
 6353TIP3    H240551   5.439   4.371  12.964  1.2224 -0.4922  1.9903
 6354TIP3   OH240552   4.777   1.652   2.316 -0.1533  0.3111  0.1350
 6354TIP3    H140553   4.770   1.562   2.347 -0.0342  0.2358 -0.0603
 6354TIP3    H240554   4.700   1.695   2.353 -0.5257 -0.0123 -0.2513
 6355TIP3   OH240555   1.631   1.206  14.220  0.5969  0.5748 -0.7637
 6355TIP3    H140556   1.592   1.127  14.257  1.3598  0.7196  0.4109
 6355TIP3    H240557   1.626   1.271  14.291  5.2539 -0.1400  0.5367
 6356TIP3   OH240558   1.820   3.632  16.960 -0.1002 -0.0869 -0.5624
 6356TIP3    H140559   1.893   3.638  16.898  0.0501  0.1703 -0.3615
 6356TIP3    H240560   1.828   3.710  17.015 -1.1792  0.5391 -1.2419
 6357TIP3   OH240561   3.995   1.438  13.309 -0.4616  0.2745  0.2511
 6357TIP3    H140562   3.945   1.405  13.384  0.0766  0.1000  0.5440
 6357TIP3    H240563   4.042   1.361  13.277  1.5977  0.9142  1.5566
 6358TIP3   OH240564   4.047   1.021  14.643 -0.0638 -0.4355 -0.7937
 6358TIP3    H140565   3.956   0.996  14.630  0.1695 -1.5116 -0.5012
 6358TIP3    H240566   4.046   1.116  14.650 -1.3157 -0.5075  0.3111
 6359TIP3   OH240567   1.375   3.622   1.877 -0.4845  0.3240  0.4092
 6359TIP3    H140568   1.446   3.686   1.882 -0.6013  0.4345  0.7038
 6359TIP3    H240569   1.296   3.672   1.898 -0.4741 -0.0831  1.4702
 6360TIP3   OH240570   0.711   2.109   5.875  0.3539 -0.4936 -0.1495
 6360TIP3    H140571   0.681   2.178   5.934  1.8972 -0.7606  1.0189
 6360TIP3    H240572   0.700   2.145   5.787  0.9229  1.1458  0.4302
 6361TIP3   OH240573   0.253   3.694   2.904 -0.1084  0.3532 -0.2771
 6361TIP3    H140574   0.299   3.673   2.823  0.8277 -1.4000  0.6472
 6361TIP3    H240575   0.211   3.778   2.887 -0.2141 -0.1167 -2.6777
 6362TIP3   OH240576   5.885   3.336  14.296 -0.4786 -0.4844  0.3538
 6362TIP3    H140577   5.802   3.375  14.326 -1.4478 -2.4475  0.4054
 6362TIP3    H240578   5.869   3.316  14.203  0.9303  1.5221 -0.3894
 6363TIP3   OH240579   1.376   3.518  12.747 -0.2208  0.5022 -0.0913
 6363TIP3    H140580   1.409   3.606  12.725  2.0824 -0.2830 -0.0667
 6363TIP3    H240581   1.307   3.502  12.683  1.0477  1.3542 -1.7453
 6364TIP3   OH240582   0.808   0.308   5.316 -0.5911 -0.2708  0.0373
 6364TIP3    H140583   0.812   0.228   5.263 -0.9196 -0.1108 -0.2294
 6364TIP3    H240584   0.747   0.285   5.387  1.1203 -1.0503  1.3131
 6365TIP3   OH240585   6.214   2.466   4.614 -0.4259  0.0990 -0.1822
 6365TIP3    H140586   6.208   2.372   4.630  1.7488 -0.0109  0.3629
 6365TIP3    H240587   6.160   2.481   4.537  1.0933 -2.0416 -1.7770
 6366TIP3   OH240588   3.277   2.083   5.625 -0.6087 -0.7570  0.3373
 6366TIP3    H140589   3.338   2.014   5.600 -0.2675 -0.2637 -0.2126
 6366TIP3    H240590   3.190   2.043   5.613 -0.4119 -1.2392  0.4792
 6367TIP3   OH240591   5.098   5.069   3.533 -0.8604 -0.3001  0.2029
 6367TIP3    H140592   5.165   5.081   3.601 -0.7602 -0.4325  0.1296
 6367TIP3    H240593   5.117   4.982   3.497 -2.1275 -1.0921  1.3495
 6368TIP3   OH240594   4.982   4.753   5.739 -0.5274 -0.3399  0.2851
 6368TIP3    H140595   5.025   4.783   5.819 -1.1590  0.7569  0.2395
 6368TIP3    H240596   5.053   4.727   5.681  0.0062  0.2687  0.6607
 6369TIP3   OH240597   4.834   4.985  15.634 -0.4095 -0.5215 -0.1073
 6369TIP3    H140598   4.772   4.922  15.671  0.1868 -0.5516  0.9047
 6369TIP3    H240599   4.912   4.976  15.689 -0.4603  1.4198  0.3492
 6370TIP3   OH240600   6.397   0.221  16.152  0.3848 -0.3123 -0.4438
 6370TIP3    H140601   6.440   0.273  16.084  0.9730 -2.7731 -2.0621
 6370TIP3    H240602   6.312   0.197  16.114  0.0069 -0.3439  0.3907
 6371TIP3   OH240603   4.092   2.237  15.842  0.4409  0.3753  0.0767
 6371TIP3    H140604   4.147   2.305  15.804  1.6220  0.3348  1.5939
 6371TIP3    H240605   4.048   2.196  15.767  3.2637 -0.2762 -1.3612
 6372TIP3   OH240606   1.087   1.294  15.442 -0.3290 -0.4057 -0.4164
 6372TIP3    H140607   1.035   1.271  15.519 -0.0097 -0.2869 -0.1598
 6372TIP3    H240608   1.144   1.218  15.428 -1.4160 -1.0603 -1.4485
 6373TIP3   OH240609   3.908   2.814   0.120  0.0384 -0.1387 -0.5639
 6373TIP3    H140610   3.956   2.864   0.054  0.8763  0.9473  0.7998
 6373TIP3    H240611   3.818   2.846   0.115  0.5958  1.7290  0.4098
 6374TIP3   OH240612   1.045   0.461   3.797 -0.7170  0.4825 -0.5534
 6374TIP3    H140613   0.983   0.534   3.798 -0.8964  0.3289 -0.2897
 6374TIP3    H240614   0.992   0.384   3.774 -0.9042  0.1084  1.0071
 6375TIP3   OH240615   4.937   5.895   4.086 -0.1464  0.4003 -0.2118
 6375TIP3    H140616   4.878   5.958   4.044 -1.1298 -0.3922 -0.0450
 6375TIP3    H240617   4.931   5.816   4.032  0.6409  0.2482 -0.0914
 6376TIP3   OH240618   5.750   6.756  13.254  0.0360 -0.5317  0.6660
 6376TIP3    H140619   5.727   6.795  13.338 -1.4875 -1.6648  0.8192
 6376TIP3    H240620   5.815   6.815  13.217 -0.0755  0.5731  2.1458
 6377TIP3   OH240621   5.113   4.191   2.808  0.2664 -0.3463  0.0463
 6377TIP3    H140622   5.123   4.232   2.722  0.6152  0.3321  0.3998
 6377TIP3    H240623   5.125   4.098   2.792 -1.3489 -0.4266 -0.9188
 6378TIP3   OH240624   0.002   3.581  12.289 -0.2649  0.5349  0.1501
 6378TIP3    H140625   0.084   3.601  12.243 -0.7535  0.5156 -0.7494
 6378TIP3    H240626   0.008   3.631  12.370  0.8596  0.1424  0.3350
 6379TIP3   OH240627   4.159   1.671   4.102  0.2684  0.3586 -0.6647
 6379TIP3    H140628   4.139   1.664   4.195  2.4981  1.1705 -0.0641
 6379TIP3    H240629   4.139   1.762   4.079 -0.5921  0.0748 -1.0810
 6380TIP3   OH240630   5.137   6.008   5.145  0.7453 -0.6717 -0.2204
 6380TIP3    H140631   5.145   5.990   5.238 -0.4290  3.3738  0.8572
 6380TIP3    H240632   5.227   6.005   5.112  1.3530 -0.6315  1.3559
 6381TIP3   OH240633   4.887   6.520   2.035  0.4929  0.5316 -0.0997
 6381TIP3    H140634   4.911   6.465   2.109 -0.4006  0.4669  0.1463
 6381TIP3    H240635   4.921   6.474   1.958 -0.2518 -0.3685  0.0986
 6382TIP3   OH240636   4.647   4.535  13.019  0.0629 -0.9576  0.4101
 6382TIP3    H140637   4.650   4.496  12.932  0.6146 -0.3888  0.1691
 6382TIP3    H240638   4.737   4.530  13.051  0.0809 -0.1897  0.5041
 6383TIP3   OH240639   2.804   3.562   4.639 -0.5894  0.8749 -0.8833
 6383TIP3    H140640   2.805   3.638   4.582  1.1436  0.2720 -1.7033
 6383TIP3    H240641   2.813   3.598   4.727  1.0252  1.6119 -1.3181
 6384TIP3   OH240642   5.208   4.718   0.589  0.5198 -0.2220  0.5304
 6384TIP3    H140643   5.190   4.812   0.592 -0.1231 -0.2773 -1.0258
 6384TIP3    H240644   5.303   4.712   0.592  0.6179  0.5444 -0.5755
 6385TIP3   OH240645   2.328   4.222   0.603 -0.1360  0.0855  0.5328
 6385TIP3    H140646   2.319   4.196   0.511  0.6119 -2.3286  1.0784
 6385TIP3    H240647   2.238   4.228   0.635 -0.3805 -1.4373  0.2108
 6386TIP3   OH240648   6.744   5.911   4.181 -0.0756  0.2464  0.5498
 6386TIP3    H140649   6.734   6.002   4.157  0.1585  0.5661  1.5928
 6386TIP3    H240650   6.816   5.911   4.244  0.4754 -0.7677 -0.0565
 6387TIP3   OH240651   1.980   1.587   1.912 -0.6281 -0.1057 -0.5335
 6387TIP3    H140652   2.007   1.548   1.995 -0.8975 -0.0506 -0.4199
 6387TIP3    H240653   2.056   1.639   1.884 -0.6760  0.1798 -0.1372
 6388TIP3   OH240654   5.046   5.200  13.887  0.3101  0.5337 -0.0818
 6388TIP3    H140655   5.125   5.239  13.924 -0.0731  0.7086  0.5670
 6388TIP3    H240656   5.007   5.270  13.834  0.2061  0.6730  0.1821
 6389TIP3   OH240657   5.732   6.158  15.151 -0.0277  0.3046 -0.4283
 6389TIP3    H140658   5.737   6.070  15.189  0.5776  0.1470 -0.8616
 6389TIP3    H240659   5.781   6.213  15.212 -1.1870  0.5249  0.3339
 6390TIP3   OH240660   3.448   4.773   1.491  0.0279  0.4924 -0.4032
 6390TIP3    H140661   3.536   4.810   1.495  0.4073 -0.4855  1.8580
 6390TIP3    H240662   3.462   4.679   1.480 -0.8478  0.5603 -2.7388
 6391TIP3   OH240663   6.071   3.534  11.811 -0.3811 -0.1540 -0.2876
 6391TIP3    H140664   6.048   3.490  11.729 -2.2166  0.3509 -0.0819
 6391TIP3    H240665   6.044   3.625  11.798  0.0740  0.1198  0.5920
 6392TIP3   OH240666   6.415   6.291  13.287  0.2012  0.6972 -0.2846
 6392TIP3    H140667   6.338   6.331  13.246  0.4198  1.8237  0.3528
 6392TIP3    H240668   6.399   6.301  13.381  0.3582 -0.5797 -0.0961
 6393TIP3   OH240669   0.014   4.215  14.586 -0.6579  0.1764  0.1361
 6393TIP3    H140670  -0.007   4.308  14.593  0.9043  0.4757  1.1360
 6393TIP3    H240671  -0.038   4.185  14.511  1.5004  2.6541 -2.5826
 6394TIP3   OH240672   4.004   3.003  16.967 -0.7245 -0.3567  0.7284
 6394TIP3    H140673   4.068   2.985  16.898 -0.1840  1.5269  0.6854
 6394TIP3    H240674   3.923   3.024  16.921 -0.7014 -0.3401  0.6962
 6395TIP3   OH240675   4.932   4.942  13.371  0.3243 -0.3650 -0.6470
 6395TIP3    H140676   4.968   5.008  13.430 -0.9358 -0.6336  0.4784
 6395TIP3    H240677   4.864   4.989  13.322 -0.5418 -0.7858  0.1213
 6396TIP3   OH240678   5.982   1.390   4.693  0.0711  0.1014  0.3462
 6396TIP3    H140679   5.898   1.357   4.724 -0.1651 -0.6751 -1.0436
 6396TIP3    H240680   5.985   1.365   4.601  2.4811 -1.2216  0.7034
 6397TIP3   OH240681   0.920   4.819   1.799  0.6623 -0.1901 -0.8991
 6397TIP3    H140682   0.841   4.849   1.755  0.5788 -0.4305 -0.9153
 6397TIP3    H240683   0.912   4.851   1.888  0.0877 -1.0214 -0.6380
 6398TIP3   OH240684   6.698   1.079   1.446 -0.1969  0.4770 -0.4008
 6398TIP3    H140685   6.731   1.065   1.357 -0.3016 -0.7150 -0.2612
 6398TIP3    H240686   6.629   1.014   1.457  0.0346  0.3969  0.6679
 6399TIP3   OH240687   2.979   1.922   4.775 -0.0847 -0.3674 -0.4208
 6399TIP3    H140688   2.904   1.942   4.831 -0.8947 -1.2196 -1.1592
 6399TIP3    H240689   3.016   2.007   4.752 -0.9516  0.0777 -0.2030
 6400TIP3   OH240690   2.727   1.369   0.011  0.5188  0.3698 -0.5219
 6400TIP3    H140691   2.659   1.309  -0.020 -1.0234  1.5576  0.3682
 6400TIP3    H240692   2.730   1.355   0.106  1.3115  0.5500 -0.5116
 6401TIP3   OH240693   1.837   5.508  13.888  0.3723  0.6394  0.7244
 6401TIP3    H140694   1.797   5.478  13.970 -0.3682 -0.7358 -0.1018
 6401TIP3    H240695   1.894   5.435  13.861 -0.5554  0.4105 -0.7279
 6402TIP3   OH240696   6.104   1.216  12.571  0.5423  0.0113  0.6672
 6402TIP3    H140697   6.167   1.223  12.643 -0.0337  1.3300  1.0768
 6402TIP3    H240698   6.141   1.149  12.513  1.4149 -0.5090  1.7842
 6403TIP3   OH240699   5.589   2.653  15.149  0.2784 -0.0193  0.1261
 6403TIP3    H140700   5.556   2.737  15.182  0.0255 -0.6034  1.4226
 6403TIP3    H240701   5.590   2.663  15.054 -1.8119  0.7060  0.1298
 6404TIP3   OH240702   0.452   1.285   1.587  0.4756 -0.1161  0.3474
 6404TIP3    H140703   0.395   1.284   1.665 -1.1136 -0.1832 -0.7570
 6404TIP3    H240704   0.415   1.218   1.530  1.4895  0.0759 -0.5502
 6405TIP3   OH240705   0.340   3.082  15.840 -0.1470  0.5383 -0.1470
 6405TIP3    H140706   0.394   3.064  15.916 -0.3370  0.4733 -0.0276
 6405TIP3    H240707   0.257   3.039  15.858 -0.5526  1.3806  0.0631
 6406TIP3   OH240708   5.171   2.704  16.578  0.2232 -0.1403  0.6569
 6406TIP3    H140709   5.161   2.672  16.667  3.3272 -2.1720  0.4140
 6406TIP3    H240710   5.232   2.778  16.586  0.0801  0.0252  0.2589
 6407TIP3   OH240711   6.503   0.124  10.872 -0.7477 -0.2212  0.6248
 6407TIP3    H140712   6.496   0.049  10.812 -0.1615 -1.3212  1.8795
 6407TIP3    H240713   6.418   0.167  10.866 -0.6541 -0.2010 -1.1091
 6408TIP3   OH240714   3.908   4.902   1.207 -0.2544 -0.1258 -0.4021
 6408TIP3    H140715   3.940   4.865   1.124 -1.0616  0.0262 -0.7987
 6408TIP3    H240716   3.895   4.995   1.188  2.9502  0.7204  0.9430
 6409TIP3   OH240717   5.901   0.244   4.607  0.9063  0.1340  0.3227
 6409TIP3    H140718   5.835   0.305   4.638  1.5564  1.4351 -0.7459
 6409TIP3    H240719   5.915   0.269   4.515  1.2164 -1.6092 -0.1397
 6410TIP3   OH240720   3.880   4.087   3.912  0.2069  0.5742  0.0080
 6410TIP3    H140721   3.854   4.126   3.996  1.1592  1.8693 -0.2776
 6410TIP3    H240722   3.923   4.158   3.865 -1.0732  0.1285 -1.9540
 6411TIP3   OH240723   6.733   5.737   3.009 -0.4750 -0.2200 -0.5638
 6411TIP3    H140724   6.651   5.694   2.983 -0.3412 -0.6249 -0.3292
 6411TIP3    H240725   6.775   5.674   3.068  0.1394 -0.1349 -0.9050
 6412TIP3   OH240726   1.037   5.865  11.934 -0.7533 -0.4901  0.0908
 6412TIP3    H140727   0.951   5.848  11.897 -0.6691  1.4989 -1.1915
 6412TIP3    H240728   1.083   5.781  11.927 -2.1734 -1.2681 -0.3155
 6413TIP3   OH240729   0.594   5.734   0.990 -0.2062 -0.1363 -0.5466
 6413TIP3    H140730   0.545   5.749   1.071  0.2835 -1.5074  0.0481
 6413TIP3    H240731   0.612   5.821   0.956 -1.3500  0.4377  0.2524
 6414TIP3   OH240732   5.675   1.590   2.783  0.0012 -0.2227  0.0332
 6414TIP3    H140733   5.592   1.613   2.741  0.2044  1.0919  0.3011
 6414TIP3    H240734   5.657   1.507   2.828 -1.4604  0.5002  0.8634
 6415TIP3   OH240735   4.053   3.791  11.760 -0.0744 -0.1786 -0.0995
 6415TIP3    H140736   4.070   3.848  11.836 -0.4182  1.1513 -0.9874
 6415TIP3    H240737   4.016   3.850  11.694 -0.5121 -1.4665 -1.0322
 6416TIP3   OH240738   0.479   1.199   2.040  0.2368 -0.3786  0.4351
 6416TIP3    H140739   0.549   1.225   1.982  1.1443  1.0460  2.0657
 6416TIP3    H240740   0.482   1.103   2.041  0.6962 -0.4019 -1.1865
 6417TIP3   OH240741   0.892   4.560  13.590  0.7664  0.2712  0.3656
 6417TIP3    H140742   0.873   4.561  13.684  1.1272 -0.5801  0.4541
 6417TIP3    H240743   0.867   4.648  13.560 -0.5893  0.1406  1.0041
 6418TIP3   OH240744   5.279   4.570   2.522  0.1881 -0.1796 -0.3397
 6418TIP3    H140745   5.362   4.568   2.570  0.2020  0.6887 -0.2981
 6418TIP3    H240746   5.304   4.595   2.433  0.0352 -0.5726 -0.4929
 6419TIP3   OH240747   0.131   3.667  16.933  0.0598 -0.8451 -0.3125
 6419TIP3    H140748   0.090   3.753  16.934 -1.0109 -1.3313 -0.8774
 6419TIP3    H240749   0.121   3.637  16.842 -1.8379 -2.6127  0.4313
 6420TIP3   OH240750   5.633   2.885   2.857 -0.0848  0.8028  0.2581
 6420TIP3    H140751   5.696   2.815   2.873  0.3256  1.2116  0.4371
 6420TIP3    H240752   5.571   2.848   2.794 -1.0943 -0.4615  1.9130
 6421TIP3   OH240753   6.304   0.991  16.151  0.3716  0.0699 -0.1174
 6421TIP3    H140754   6.336   0.952  16.070  1.4772  1.9310 -0.6544
 6421TIP3    H240755   6.293   1.084  16.130  2.0332  0.8799  2.2095
 6422TIP3   OH240756   3.809   3.026  16.771 -0.6690 -0.5116 -0.2289
 6422TIP3    H140757   3.889   3.005  16.723 -0.3323 -2.0142  0.8902
 6422TIP3    H240758   3.769   2.941  16.788 -2.6520  0.2174 -0.9431
 6423TIP3   OH240759   2.242   1.176   5.573  0.0106  0.0219  0.1418
 6423TIP3    H140760   2.199   1.208   5.493 -0.6578 -0.8030  0.1547
 6423TIP3    H240761   2.177   1.188   5.642  0.8942  1.5297  0.7514
 6424TIP3   OH240762   2.086   1.593  13.126 -0.0268 -0.0579 -0.0489
 6424TIP3    H140763   2.038   1.524  13.171 -1.1727  0.7199 -0.0376
 6424TIP3    H240764   2.117   1.552  13.045  0.4162 -0.9275  0.5458
 6425TIP3   OH240765   0.617   3.139  11.009 -0.5067  0.2248 -0.4728
 6425TIP3    H140766   0.602   3.233  10.997  0.7686  0.3789 -1.1441
 6425TIP3    H240767   0.686   3.134  11.076 -0.5754 -0.2309 -0.4333
 6426TIP3   OH240768   5.844   6.780   2.196  0.3289 -0.0325  0.0049
 6426TIP3    H140769   5.882   6.756   2.280 -0.0871 -1.9273 -0.2865
 6426TIP3    H240770   5.918   6.811   2.144  0.4284  2.1176  1.3487
 6427TIP3   OH240771   1.605   5.760  12.529 -0.6917 -0.1860 -0.3875
 6427TIP3    H140772   1.591   5.823  12.458  0.0285 -0.3838 -0.7189
 6427TIP3    H240773   1.689   5.720  12.509 -1.4137 -1.6880 -0.4996
 6428TIP3   OH240774   1.486   2.006  13.293  0.2427 -0.2831  0.4720
 6428TIP3    H140775   1.526   1.936  13.242 -0.4398 -0.6792  0.4666
 6428TIP3    H240776   1.479   1.970  13.382  1.8268  0.5605  0.9845
 6429TIP3   OH240777   0.229   4.398   4.074  0.0911  0.0158  0.1040
 6429TIP3    H140778   0.147   4.422   4.031  0.1381  0.7895  0.4313
 6429TIP3    H240779   0.247   4.309   4.042 -1.7829 -0.8971  1.3733
 6430TIP3   OH240780   3.018   3.283  12.148 -0.2244 -0.6023 -0.3441
 6430TIP3    H140781   3.096   3.256  12.100  1.3880  0.9488  1.2723
 6430TIP3    H240782   3.051   3.316  12.231 -2.5868  0.4214  0.2638
 6431TIP3   OH240783   1.262   1.395   4.591  0.4326 -0.1573 -0.2322
 6431TIP3    H140784   1.238   1.340   4.665 -1.0196  0.1320 -0.4705
 6431TIP3    H240785   1.257   1.337   4.515 -0.0759  0.0462 -0.3545
 6432TIP3   OH240786   0.951   1.448   3.692 -0.4236  0.1545  0.1884
 6432TIP3    H140787   0.866   1.489   3.676  0.0223  0.7101 -0.9035
 6432TIP3    H240788   0.937   1.355   3.674 -1.0501  0.0563  1.0893
 6433TIP3   OH240789   2.676   4.041   1.412 -0.1267  0.0376 -0.0317
 6433TIP3    H140790   2.689   4.126   1.370  0.3476 -0.1913 -0.3578
 6433TIP3    H240791   2.755   4.026   1.463  0.3342 -0.7521 -0.9443
 6434TIP3   OH240792   6.611   6.437   4.620  0.7175  0.0932 -0.3585
 6434TIP3    H140793   6.662   6.511   4.585  0.2312  0.7394  0.2673
 6434TIP3    H240794   6.677   6.371   4.640  1.4507  1.2269  1.2141
 6435TIP3   OH240795   5.194   6.427   4.739 -0.4822  0.1843  0.2970
 6435TIP3    H140796   5.280   6.399   4.709 -0.5531  0.1969  0.0792
 6435TIP3    H240797   5.132   6.379   4.684 -0.6153  0.1791  0.4487
 6436TIP3   OH240798   3.388   1.686   5.294  0.0362  0.4475 -0.7536
 6436TIP3    H140799   3.369   1.779   5.284  0.0979  0.6342  0.6552
 6436TIP3    H240800   3.344   1.661   5.376 -1.6055 -1.2385 -2.0728
 6437TIP3   OH240801   5.798   6.544  11.202 -0.3179  0.0090 -0.1039
 6437TIP3    H140802   5.800   6.578  11.112 -0.3526 -0.0380 -0.1230
 6437TIP3    H240803   5.889   6.550  11.232 -0.4994  1.0904  0.2675
 6438TIP3   OH240804   0.246   0.568   4.329 -1.0563 -0.7398  0.1843
 6438TIP3    H140805   0.195   0.501   4.375 -0.5349 -2.0507 -1.0843
 6438TIP3    H240806   0.245   0.541   4.237  0.5537  0.0859 -0.1100
 6439TIP3   OH240807   2.791   5.972   6.293  0.2167 -0.0050 -0.4151
 6439TIP3    H140808   2.756   5.913   6.227 -1.8134  0.0632  0.5198
 6439TIP3    H240809   2.853   5.918   6.343 -1.8385 -1.5624  0.6350
 6440TIP3   OH240810   4.068   5.880  15.787 -0.3127 -0.0716 -0.6218
 6440TIP3    H140811   3.988   5.834  15.812  0.9658 -2.0439  0.1278
 6440TIP3    H240812   4.055   5.970  15.815 -1.7090 -0.6800  0.7724
 6441TIP3   OH240813   2.290   6.634   2.157  0.0895 -0.3382  0.5823
 6441TIP3    H140814   2.313   6.545   2.184  1.8826  0.4979  1.9762
 6441TIP3    H240815   2.223   6.621   2.089  0.8266 -2.7615  0.2010
 6442TIP3   OH240816   5.770   5.013  12.528 -0.1120 -0.3760 -0.5370
 6442TIP3    H140817   5.860   5.044  12.515 -0.2251 -0.0771 -0.6194
 6442TIP3    H240818   5.775   4.918  12.515  0.0729 -0.2805 -1.1690
 6443TIP3   OH240819   3.857   1.219  16.600  0.3379 -0.2648 -0.5669
 6443TIP3    H140820   3.920   1.184  16.537  0.3114  1.3173 -1.5303
 6443TIP3    H240821   3.774   1.217  16.553 -0.0025 -0.6563  0.0480
 6444TIP3   OH240822   2.961   6.276   0.501  0.1031  0.5570  0.3425
 6444TIP3    H140823   2.965   6.195   0.552 -1.0612  0.4821  0.3473
 6444TIP3    H240824   3.014   6.339   0.551 -1.1489  0.5273  1.7672
 6445TIP3   OH240825   1.216   5.828  10.445 -0.1350  0.5694  0.1456
 6445TIP3    H140826   1.245   5.919  10.441 -1.4152  0.9598 -1.0040
 6445TIP3    H240827   1.285   5.783  10.494  0.9048  1.9955  0.0589
 6446TIP3   OH240828   1.130   5.632  13.063  0.5853 -0.1828  0.7230
 6446TIP3    H140829   1.034   5.632  13.067  0.4731 -1.6497 -0.8660
 6446TIP3    H240830   1.155   5.543  13.091  1.4294 -0.0963  0.2818
 6447TIP3   OH240831   1.875   2.223   0.587 -0.2605  0.5684 -0.3539
 6447TIP3    H140832   1.965   2.224   0.620 -0.1445 -1.6707 -0.4115
 6447TIP3    H240833   1.821   2.246   0.663  0.1702 -1.9927  0.8471
 6448TIP3   OH240834   4.238   5.172   0.151 -1.0677 -0.1112 -0.2952
 6448TIP3    H140835   4.261   5.197   0.240  4.1795  0.3152 -1.4761
 6448TIP3    H240836   4.207   5.253   0.110 -0.1046  0.5332  0.2340
 6449TIP3   OH240837   2.335   2.795  16.278  0.3145 -0.1555 -0.3634
 6449TIP3    H140838   2.279   2.793  16.200  0.4808 -0.2661 -0.4817
 6449TIP3    H240839   2.380   2.711  16.277  1.3845  0.3970 -0.9445
 6450TIP3   OH240840   6.078   4.015  12.901  0.0565 -0.4304 -0.9107
 6450TIP3    H140841   6.141   4.073  12.945 -0.4118  0.2083 -1.0727
 6450TIP3    H240842   6.132   3.944  12.866  0.2105 -2.4326  2.9143
 6451TIP3   OH240843   1.233   2.705   5.039 -0.4686  0.3030  0.4503
 6451TIP3    H140844   1.186   2.727   4.958  0.7598  1.3021 -0.0349
 6451TIP3    H240845   1.295   2.638   5.013 -0.3162  0.3693  0.6426
 6452TIP3   OH240846   5.026   5.590  10.624  0.2749  0.6755 -0.3614
 6452TIP3    H140847   5.096   5.581  10.689 -1.5389 -1.7965  1.4079
 6452TIP3    H240848   5.066   5.562  10.542  1.4501 -0.4186  0.5487
 6453TIP3   OH240849   4.802   0.514  15.589 -0.3950 -0.5672 -0.8172
 6453TIP3    H140850   4.870   0.542  15.650  0.3030 -1.9894 -0.9020
 6453TIP3    H240851   4.722   0.557  15.620  0.4779  0.9365 -0.5714
 6454TIP3   OH240852   5.455   3.181  13.084  0.2557 -0.0506  0.0796
 6454TIP3    H140853   5.445   3.207  12.992  0.0363 -0.5618 -0.0478
 6454TIP3    H240854   5.453   3.263  13.133  3.6513  0.5796 -0.6222
 6455TIP3   OH240855   1.888   3.459  12.365  0.4535  0.3568  0.6355
 6455TIP3    H140856   1.878   3.554  12.357 -0.8623  0.1861 -0.1377
 6455TIP3    H240857   1.806   3.423  12.331  0.7254 -1.0527  1.3478
 6456TIP3   OH240858   5.857   3.442   3.657 -0.9205 -0.1739 -0.0147
 6456TIP3    H140859   5.808   3.411   3.581 -1.2254  1.4029 -0.5027
 6456TIP3    H240860   5.868   3.365   3.712 -0.5483 -1.3951 -1.7276
 6457TIP3   OH240861   2.190   0.674   4.102 -0.5829 -0.1772  0.1258
 6457TIP3    H140862   2.113   0.619   4.092  0.7286 -2.0740 -0.0430
 6457TIP3    H240863   2.208   0.706   4.014 -1.4867  0.7552  0.2635
 6458TIP3   OH240864   0.736   2.831   2.444  0.6850  0.1581  0.3117
 6458TIP3    H140865   0.790   2.756   2.469 -0.8516 -0.7962  0.9591
 6458TIP3    H240866   0.798   2.898   2.418  2.1395 -1.1309  0.3059
 6459TIP3   OH240867   4.248   1.830  12.421 -0.4016  0.0311 -0.2503
 6459TIP3    H140868   4.170   1.861  12.467  0.3311  0.7816  0.5029
 6459TIP3    H240869   4.239   1.866  12.333 -0.8504  0.1983 -0.1425
 6460TIP3   OH240870   0.274   4.901   5.738  0.0565  0.0600  0.2488
 6460TIP3    H140871   0.208   4.964   5.766  0.0379  0.2834 -0.2862
 6460TIP3    H240872   0.225   4.820   5.724  0.1881 -0.2848  1.6173
 6461TIP3   OH240873   5.705   4.612  12.275 -0.3124  0.3623 -0.3118
 6461TIP3    H140874   5.696   4.595  12.181  0.9967  0.5384 -0.4878
 6461TIP3    H240875   5.633   4.565  12.315  0.8218 -2.2796 -1.1323
 6462TIP3   OH240876   3.363   2.306   4.481  0.1895  0.8295  0.7559
 6462TIP3    H140877   3.297   2.375   4.480 -1.3623 -0.5716  1.0373
 6462TIP3    H240878   3.375   2.284   4.573  0.0614  0.1757  0.6205
 6463TIP3   OH240879   4.224   5.068  12.109  0.7905  0.8077  0.0151
 6463TIP3    H140880   4.308   5.110  12.127  0.8288  0.5049  0.5907
 6463TIP3    H240881   4.158   5.134  12.133  0.8597  0.7888  0.2645
 6464TIP3   OH240882   0.878   1.125   5.796 -0.1823  0.1900  0.2947
 6464TIP3    H140883   0.899   1.043   5.751 -0.5386 -0.1207  0.6921
 6464TIP3    H240884   0.844   1.182   5.727 -2.1687 -0.7928  0.4016
 6465TIP3   OH240885   0.636   2.002  12.400 -0.0627  0.7576 -0.3987
 6465TIP3    H140886   0.696   2.010  12.474 -0.2392 -0.0204 -0.1695
 6465TIP3    H240887   0.685   2.040  12.326  0.2242  1.2675  0.0431
 6466TIP3   OH240888   2.637   1.664   3.002 -0.4131  0.0563  0.1250
 6466TIP3    H140889   2.550   1.638   2.971  0.5853 -1.6709 -1.4371
 6466TIP3    H240890   2.641   1.633   3.093 -1.3201 -0.1167  0.1092
 6467TIP3   OH240891   1.821   5.655   5.126  0.4646 -0.1106 -0.0305
 6467TIP3    H140892   1.741   5.609   5.099 -0.5206  1.4701  0.0714
 6467TIP3    H240893   1.840   5.621   5.213 -1.0371  0.6211  0.6194
 6468TIP3   OH240894   1.422   6.319  14.117 -0.3043  0.2656  0.5208
 6468TIP3    H140895   1.447   6.272  14.197 -2.2262 -2.4436 -0.3199
 6468TIP3    H240896   1.343   6.367  14.143 -1.0716 -0.8098  0.2464
 6469TIP3   OH240897   0.853   5.144  14.297 -0.0906 -0.3724 -0.3875
 6469TIP3    H140898   0.806   5.222  14.271 -0.7355 -0.8950 -0.8196
 6469TIP3    H240899   0.909   5.122  14.222  1.1600  0.4598  0.2620
 6470TIP3   OH240900   5.864   1.463  15.330 -0.1195  0.2745 -0.1332
 6470TIP3    H140901   5.786   1.502  15.292  1.0851  0.3090 -2.7922
 6470TIP3    H240902   5.869   1.376  15.290 -1.1765 -1.6629  3.4751
 6471TIP3   OH240903   2.784   5.330   0.798  0.1123 -0.2159  0.0821
 6471TIP3    H140904   2.842   5.287   0.735 -1.2398 -1.5220 -0.3454
 6471TIP3    H240905   2.820   5.305   0.884  1.3638  0.7196 -0.1432
 6472TIP3   OH240906   1.660   4.244   0.912  0.1215  0.3535  0.9808
 6472TIP3    H140907   1.747   4.265   0.946  0.0650  2.2905  0.0167
 6472TIP3    H240908   1.677   4.209   0.824 -0.0898  1.6990  0.3783
 6473TIP3   OH240909   1.514   2.653  15.809 -0.5655 -0.7036  0.0007
 6473TIP3    H140910   1.517   2.560  15.787 -3.0747 -0.6190 -1.1490
 6473TIP3    H240911   1.460   2.692  15.740 -2.3015  1.0219  2.1620
 6474TIP3   OH240912   5.108   4.234   2.537  0.2049 -0.3587 -0.1825
 6474TIP3    H140913   5.025   4.235   2.490 -0.1323  0.4420  0.4021
 6474TIP3    H240914   5.159   4.165   2.494  0.0028  0.4677 -1.8517
 6475TIP3   OH240915   1.776   6.371   0.533  0.1044 -0.5839  0.4047
 6475TIP3    H140916   1.725   6.350   0.455  0.1186  1.1747 -0.1360
 6475TIP3    H240917   1.711   6.399   0.597 -0.0181 -3.1468  1.4787
 6476TIP3   OH240918   2.694   2.444  14.555  0.0097 -0.3140  0.1291
 6476TIP3    H140919   2.643   2.414  14.480  0.1910  0.6450 -0.3874
 6476TIP3    H240920   2.765   2.380  14.563  1.8265  1.1788 -2.4652
 6477TIP3   OH240921   3.194   4.558  11.643 -0.1415  0.4511  0.0041
 6477TIP3    H140922   3.215   4.582  11.553  0.3917  0.8952  0.2372
 6477TIP3    H240923   3.101   4.578  11.652 -0.7572 -1.6534 -1.0793
 6478TIP3   OH240924   5.373   2.587  13.936 -0.1355  0.5405 -0.0990
 6478TIP3    H140925   5.353   2.546  14.020  0.2895 -0.3507 -0.4091
 6478TIP3    H240926   5.292   2.629  13.909 -0.0887  1.4104  1.0632
 6479TIP3   OH240927   2.462   5.041   1.228  0.2345 -0.0461 -0.2221
 6479TIP3    H140928   2.372   5.069   1.242 -1.0388 -3.7724  0.0683
 6479TIP3    H240929   2.481   5.067   1.137 -1.6361 -0.3624 -0.7478
 6480TIP3   OH240930   0.128   5.476   0.877 -0.3561  0.0842  0.4636
 6480TIP3    H140931   0.156   5.387   0.856 -0.8766  0.0790 -0.2549
 6480TIP3    H240932   0.209   5.527   0.881 -0.0416 -0.4505  1.0540
 6481TIP3   OH240933   5.449   2.315   1.692  0.7309 -0.4027 -0.3298
 6481TIP3    H140934   5.542   2.302   1.711  0.3411 -1.6727  0.8546
 6481TIP3    H240935   5.420   2.232   1.654  0.0413 -0.0827 -0.5267
 6482TIP3   OH240936   6.212   2.470   4.941  0.2779  0.2676 -0.3605
 6482TIP3    H140937   6.288   2.412   4.945 -0.0616 -0.1610 -0.0423
 6482TIP3    H240938   6.213   2.505   4.852  0.4783 -0.2359 -0.5607
 6483TIP3   OH240939   4.983   3.674  15.887  0.4232 -0.2005  0.1036
 6483TIP3    H140940   5.016   3.585  15.892  0.2441 -0.2053  1.7187
 6483TIP3    H240941   5.015   3.716  15.967 -0.0032  1.0109 -0.3320
 6484TIP3   OH240942   0.473   1.886   5.484  0.4281  0.2467 -0.4514
 6484TIP3    H140943   0.402   1.863   5.424  1.0246  1.2207 -1.5936
 6484TIP3    H240944   0.539   1.927   5.427  1.0373  1.1678  0.8704
 6485TIP3   OH240945   0.035   0.902   3.047  0.2542  0.0974  0.1651
 6485TIP3    H140946  -0.009   0.973   2.999 -0.3454  0.1940  0.8468
 6485TIP3    H240947   0.101   0.947   3.101 -0.0116  0.1228  0.4705
 6486TIP3   OH240948   5.267   1.382   4.959 -0.4057  0.8579 -0.3626
 6486TIP3    H140949   5.356   1.392   4.924  0.0366  0.1356  0.5082
 6486TIP3    H240950   5.216   1.347   4.886 -0.2109  2.1571 -1.1513
 6487TIP3   OH240951   3.081   5.626   1.704 -0.4265 -0.2080  0.5410
 6487TIP3    H140952   3.157   5.584   1.663  0.4758  0.8919  1.0440
 6487TIP3    H240953   3.005   5.581   1.665  0.4507 -0.7808 -0.5688
 6488TIP3   OH240954   2.572   4.393  15.589 -0.0250  0.0399  0.7768
 6488TIP3    H140955   2.604   4.425  15.673 -0.6551  2.5887  0.1356
 6488TIP3    H240956   2.644   4.407  15.528 -0.3516  0.3612  0.4571
 6489TIP3   OH240957   2.482   3.462  11.127  0.2935  0.1125 -0.8618
 6489TIP3    H140958   2.445   3.401  11.064 -0.4684  0.5507 -0.8492
 6489TIP3    H240959   2.529   3.527  11.074  0.1827  0.1297 -0.9371
 6490TIP3   OH240960   6.462   2.306   4.381 -0.1720  0.1462  0.0672
 6490TIP3    H140961   6.464   2.358   4.462 -0.1992 -0.1456  0.2552
 6490TIP3    H240962   6.536   2.245   4.390 -0.2064  0.0785 -0.1054
 6491TIP3   OH240963   0.226   6.205  14.898 -0.4017 -0.1367 -0.8012
 6491TIP3    H140964   0.271   6.196  14.814 -0.1870 -1.1093 -0.5923
 6491TIP3    H240965   0.295   6.226  14.960 -0.4531 -0.1608 -0.7354
 6492TIP3   OH240966   5.169   2.624  10.646  0.1965 -0.9226  0.0506
 6492TIP3    H140967   5.156   2.529  10.638 -0.7438 -0.8010 -0.0345
 6492TIP3    H240968   5.263   2.635  10.659  0.4815 -1.8029 -1.0976
 6493TIP3   OH240969   4.706   4.433  15.358 -0.0306 -0.1312 -0.5408
 6493TIP3    H140970   4.772   4.367  15.377  1.2297  0.3223 -2.8569
 6493TIP3    H240971   4.634   4.384  15.319  1.1413 -0.2099 -2.8115
 6494TIP3   OH240972   0.022   2.560  13.619  0.3936 -0.0461  0.0069
 6494TIP3    H140973   0.069   2.579  13.538 -0.7065 -2.0204 -1.1834
 6494TIP3    H240974   0.063   2.479  13.652  0.1408  0.1574  0.8516
 6495TIP3   OH240975   0.649   5.772  16.667 -0.2034 -0.4028 -0.5116
 6495TIP3    H140976   0.604   5.762  16.751  1.9505 -1.7200  0.5727
 6495TIP3    H240977   0.624   5.859  16.636 -1.0764  0.1050  1.4802
 6496TIP3   OH240978   5.963   6.660  16.948 -0.0113  0.3071 -0.7578
 6496TIP3    H140979   5.888   6.715  16.969 -1.2959 -1.0544 -1.6154
 6496TIP3    H240980   6.026   6.721  16.908 -1.2825  1.2256 -1.4698
 6497TIP3   OH240981   3.959   6.043  11.634  0.3055  0.0604 -0.1556
 6497TIP3    H140982   3.891   5.995  11.682  0.3997 -2.1576 -2.0209
 6497TIP3    H240983   4.006   6.092  11.701 -2.6085  1.0727  1.3049
 6498TIP3   OH240984   1.029   4.814   0.158 -0.0562 -0.1304 -0.0888
 6498TIP3    H140985   1.082   4.853   0.088 -0.1161  0.3170  0.1105
 6498TIP3    H240986   1.014   4.886   0.220 -0.8855 -0.2587 -0.1346
 6499TIP3   OH240987   6.603   5.444  14.745 -0.5616 -0.6029  0.3532
 6499TIP3    H140988   6.517   5.483  14.728 -0.1800 -0.3616 -1.1765
 6499TIP3    H240989   6.627   5.475  14.832 -1.0540  1.1680 -0.1073
 6500TIP3   OH240990   2.842   1.933  13.225  0.0173  0.1832 -0.1548
 6500TIP3    H140991   2.781   1.883  13.171 -0.6449 -0.5567  1.2154
 6500TIP3    H240992   2.928   1.896  13.206 -0.1870  0.0522 -0.8270
 6501TIP3   OH240993   2.308   4.289   3.135 -0.5237  0.0710 -0.1708
 6501TIP3    H140994   2.396   4.314   3.162 -0.8466  1.2117 -0.0905
 6501TIP3    H240995   2.315   4.274   3.040  0.0559 -1.3249  0.0772
 6502TIP3   OH240996   2.613   6.375   1.992  0.0289 -0.6540 -0.2234
 6502TIP3    H140997   2.633   6.284   1.967  1.5844 -0.3767 -0.0732
 6502TIP3    H240998   2.624   6.425   1.911 -1.3832 -0.6347 -0.4447
 6503TIP3   OH240999   2.377   5.859  11.065 -0.1378 -0.2671 -0.3715
 6503TIP3    H141000   2.369   5.830  10.974  0.0489 -2.3851  0.2398
 6503TIP3    H241001   2.322   5.798  11.115  1.0684 -0.1870  1.1232
 6504TIP3   OH241002   2.111   1.960   1.421  0.2997 -0.5699 -0.1485
 6504TIP3    H141003   2.199   1.924   1.414  0.5836  0.3667 -2.0673
 6504TIP3    H241004   2.066   1.902   1.483  1.5758 -2.4226 -0.8690
 6505TIP3   OH241005   5.577   1.259   2.273  0.3774  0.5566  0.1558
 6505TIP3    H141006   5.634   1.187   2.247 -0.1850  0.1916 -0.0762
 6505TIP3    H241007   5.563   1.308   2.193  1.4490  1.4352  0.4730
 6506TIP3   OH241008   4.482   0.042  13.430 -0.6643 -0.0578  0.3198
 6506TIP3    H141009   4.521   0.110  13.376 -0.1233 -1.0500 -0.5631
 6506TIP3    H241010   4.537   0.039  13.508  0.1548 -0.4491 -0.2656
 6507TIP3   OH241011   4.168   6.387  14.703  0.3690  0.5997  0.4961
 6507TIP3    H141012   4.172   6.349  14.615 -0.6618  2.0863 -0.2317
 6507TIP3    H241013   4.098   6.339  14.747 -0.2862  0.9885 -0.0988
 6508TIP3   OH241014   1.259   1.188  13.478 -0.1260 -0.7537  0.0540
 6508TIP3    H141015   1.275   1.215  13.388  2.3039  0.4928  0.7849
 6508TIP3    H241016   1.345   1.162  13.511 -0.9914 -1.3469  1.9677
 6509TIP3   OH241017   4.880   6.028  15.134  0.8248 -0.1249  0.7531
 6509TIP3    H141018   4.879   6.015  15.040  1.4175 -0.0440  0.7328
 6509TIP3    H241019   4.850   5.945  15.171  2.0133 -0.6707  0.5358
 6510TIP3   OH241020   6.028   5.335  11.837  0.4424  0.0517 -0.2505
 6510TIP3    H141021   6.002   5.314  11.748 -0.8301  0.6914 -0.0478
 6510TIP3    H241022   5.949   5.322  11.889  0.4447  2.1861  0.3742
 6511TIP3   OH241023   3.107   5.936  16.187  0.1879  0.2059 -0.0197
 6511TIP3    H141024   3.187   5.939  16.134  0.0381 -0.7894 -0.3198
 6511TIP3    H241025   3.059   5.861  16.154  0.0468 -0.4008  1.4914
 6512TIP3   OH241026   3.507   1.870  11.394  0.0035  0.2004  0.3014
 6512TIP3    H141027   3.525   1.949  11.446 -3.0392  1.3103 -0.0870
 6512TIP3    H241028   3.462   1.811  11.455  1.0703 -0.7017  0.2368
 6513TIP3   OH241029   3.509   3.771  11.374  0.1612 -0.7226  0.1850
 6513TIP3    H141030   3.519   3.694  11.318 -0.4376  0.4515 -1.6395
 6513TIP3    H241031   3.495   3.843  11.313  0.6555  0.8484  1.8271
 6514TIP3   OH241032   3.533   5.771  12.544 -0.2452  0.2086 -0.0569
 6514TIP3    H141033   3.449   5.796  12.506 -0.4196  0.2288  0.3425
 6514TIP3    H241034   3.543   5.827  12.621 -0.2486 -0.3670  0.3652
 6515TIP3   OH241035   0.153   3.777  16.396 -0.2074 -0.5015  0.0152
 6515TIP3    H141036   0.076   3.800  16.344  0.1109  1.4678  0.3712
 6515TIP3    H241037   0.203   3.717  16.340 -1.2322 -0.6123 -0.8064
 6516TIP3   OH241038   4.781   5.131   1.362 -0.4973 -0.1368  0.2111
 6516TIP3    H141039   4.686   5.139   1.367 -1.1231 -4.4862 -0.6509
 6516TIP3    H241040   4.805   5.073   1.434  1.3417  0.0235 -0.2061
 6517TIP3   OH241041   2.016   1.065   1.735  0.4289  0.2031  0.0652
 6517TIP3    H141042   1.946   1.070   1.670 -0.0361  0.7307  0.5942
 6517TIP3    H241043   2.023   1.154   1.769  1.7254  0.2748 -0.3516
 6518TIP3   OH241044   0.375   0.198  13.953 -0.3240  0.6375 -0.2682
 6518TIP3    H141045   0.454   0.253  13.951 -0.4562  0.8231 -0.4324
 6518TIP3    H241046   0.370   0.167  14.044  1.7671 -2.0437 -0.9430
 6519TIP3   OH241047   2.536   4.526   4.577 -0.5603  0.0040  0.1967
 6519TIP3    H141048   2.585   4.574   4.511 -0.4072 -0.6127 -0.1456
 6519TIP3    H241049   2.602   4.500   4.642 -0.5162 -0.3412  0.0205
 6520TIP3   OH241050   4.797   4.781  14.113  0.4320  0.1481  0.1618
 6520TIP3    H141051   4.866   4.715  14.099  0.5598 -0.6438  3.6816
 6520TIP3    H241052   4.831   4.860  14.070  1.2776 -1.4255 -2.2977
 6521TIP3   OH241053   3.540   4.507  17.008 -0.0064  0.2008 -0.4690
 6521TIP3    H141054   3.515   4.548  17.091  0.1361  0.2721 -0.4632
 6521TIP3    H241055   3.555   4.415  17.031 -0.3140  0.1438 -0.4821
 6522TIP3   OH241056   1.217   0.387  14.904  0.2294 -0.3312 -0.3826
 6522TIP3    H141057   1.164   0.312  14.879 -0.6104 -0.0142  0.3861
 6522TIP3    H241058   1.276   0.401  14.830  0.5073 -1.8298 -0.4748
 6523TIP3   OH241059   6.221   0.887  11.106 -0.1685  0.2041  0.0807
 6523TIP3    H141060   6.268   0.816  11.063 -0.6164  0.4804 -0.8923
 6523TIP3    H241061   6.139   0.895  11.057 -0.4872  0.8380  0.6974
 6524TIP3   OH241062   6.195   1.413  11.221 -0.0377  0.2287  0.4785
 6524TIP3    H141063   6.249   1.412  11.300  1.7549 -1.8870 -0.6745
 6524TIP3    H241064   6.132   1.342  11.233  1.5087 -1.4268 -0.7300
 6525TIP3   OH241065   1.142   3.264  11.516 -0.5024  0.2954  0.0764
 6525TIP3    H141066   1.110   3.335  11.571  0.4057  0.4890  0.3751
 6525TIP3    H241067   1.144   3.188  11.573 -2.0109 -0.1324 -0.3898
 6526TIP3   OH241068   3.154   4.269  17.013  0.3436 -0.2868  0.4062
 6526TIP3    H141069   3.131   4.292  17.104 -0.3030 -0.2842  0.2467
 6526TIP3    H241070   3.109   4.186  16.998  1.2820 -0.8106  0.4139
 6527TIP3   OH241071   2.924   3.637  13.219  0.2894 -0.0339 -0.6430
 6527TIP3    H141072   2.979   3.714  13.231  0.5633 -0.1853 -0.9276
 6527TIP3    H241073   2.936   3.613  13.127 -1.4695  0.8697 -1.1491
 6528TIP3   OH241074   6.824   3.915  12.079  0.2226  0.2802  0.5092
 6528TIP3    H141075   6.775   3.980  12.130 -0.6339  0.7216 -0.8103
 6528TIP3    H241076   6.914   3.923  12.110 -0.2279  0.6773  1.7810
 6529TIP3   OH241077   3.998   3.248  11.805  0.4903 -0.1506  0.1169
 6529TIP3    H141078   3.994   3.301  11.884 -0.6803 -1.4692  0.9802
 6529TIP3    H241079   4.011   3.312  11.734  0.9285  1.1026  1.2798
 6530TIP3   OH241080   2.276   5.572  16.303  0.0849 -0.1844  0.3814
 6530TIP3    H141081   2.318   5.536  16.226  3.2734  0.0463  1.8690
 6530TIP3    H241082   2.292   5.666  16.298 -1.9047  0.1826  0.1172
 6531TIP3   OH241083   0.434   3.564   1.882 -0.2272 -0.4601  0.3873
 6531TIP3    H141084   0.354   3.558   1.829 -1.2989 -0.1008  1.9165
 6531TIP3    H241085   0.420   3.641   1.937  1.5648  0.1222  0.0932
 6532TIP3   OH241086   2.077   3.893   2.566  0.3977 -0.1864  0.1282
 6532TIP3    H141087   2.095   3.839   2.489 -1.2186 -0.0503 -0.3850
 6532TIP3    H241088   2.146   3.870   2.628  1.9585 -0.0487 -1.4603
 6533TIP3   OH241089   6.670   3.870  13.223  0.0013  0.3963  0.2592
 6533TIP3    H141090   6.577   3.878  13.243  0.3036  0.5102  1.7158
 6533TIP3    H241091   6.714   3.925  13.287  1.1703 -0.9532  0.6846
 6534TIP3   OH241092   5.568   0.699   1.686  0.2009 -0.2658  0.3861
 6534TIP3    H141093   5.639   0.679   1.746  0.0340  0.6204  0.8896
 6534TIP3    H241094   5.506   0.750   1.738  1.1999  2.7232 -1.0954
 6535TIP3   OH241095   6.552   4.126  13.077  0.7337 -0.1047  0.0253
 6535TIP3    H141096   6.600   4.093  13.001 -0.3728 -0.8795 -0.3591
 6535TIP3    H241097   6.482   4.061  13.091  0.4219  0.4621  1.1928
 6536TIP3   OH241098   0.737   6.651  12.456  0.0948 -0.6732 -0.2647
 6536TIP3    H141099   0.801   6.722  12.462  0.1376 -0.8283  1.5353
 6536TIP3    H241100   0.785   6.574  12.487 -0.0512 -1.4599 -1.8827
 6537TIP3   OH241101   0.412   4.892   2.935 -0.7982  0.1881  0.0237
 6537TIP3    H141102   0.379   4.977   2.964 -1.9616 -0.0803 -0.4650
 6537TIP3    H241103   0.355   4.828   2.978  0.3687 -0.3863  0.7770
 6538TIP3   OH241104   3.270   1.522   3.561  0.1117  0.1968  0.0378
 6538TIP3    H141105   3.233   1.454   3.618  0.7141 -0.6848 -0.6015
 6538TIP3    H241106   3.351   1.484   3.528  1.3222  1.8608  0.9459
 6539TIP3   OH241107   4.207   1.986   2.131 -0.4538 -0.4209 -0.5821
 6539TIP3    H141108   4.123   1.946   2.153  0.5579 -1.3232  2.2280
 6539TIP3    H241109   4.238   2.022   2.214  1.5715  0.5762 -1.7073
 6540TIP3   OH241110   4.924   3.880  15.134  0.0949  0.2290 -0.5910
 6540TIP3    H141111   4.926   3.879  15.039  1.2273 -0.0431 -0.5704
 6540TIP3    H241112   4.831   3.868  15.156 -0.2467  0.8325 -1.6523
 6541TIP3   OH241113   0.448   4.468  15.605 -0.0548 -0.1518  0.0922
 6541TIP3    H141114   0.511   4.520  15.555  0.8326 -1.5827 -0.3348
 6541TIP3    H241115   0.363   4.502  15.578  0.4882  1.2896  0.0926
 6542TIP3   OH241116   2.274   6.619   3.829  0.0152 -0.4060 -0.3951
 6542TIP3    H141117   2.280   6.526   3.804  1.5164 -0.5956  0.5397
 6542TIP3    H241118   2.187   6.628   3.868 -0.3035 -1.3243 -0.8555
 6543TIP3   OH241119   3.128   2.051  16.026  0.6871  0.3024  0.2749
 6543TIP3    H141120   3.137   2.097  16.109 -0.2107 -1.5219  1.4632
 6543TIP3    H241121   3.094   2.117  15.965  3.1726  2.1897  0.7654
 6544TIP3   OH241122   5.133   3.214   2.338 -0.5558 -0.2462 -0.3567
 6544TIP3    H141123   5.100   3.302   2.357 -0.2390  0.3502 -2.3291
 6544TIP3    H241124   5.106   3.162   2.414 -1.7352  1.2865  0.3486
 6545TIP3   OH241125   3.291   2.397   2.288  0.6028 -0.2696 -0.6778
 6545TIP3    H141126   3.296   2.416   2.382 -0.7916 -0.2396 -0.5934
 6545TIP3    H241127   3.277   2.483   2.248  0.1500 -0.4011 -0.8090
 6546TIP3   OH241128   0.667   0.067   4.938  0.0429 -0.2580  0.1961
 6546TIP3    H141129   0.655  -0.013   4.887 -2.8079 -1.1958  2.0744
 6546TIP3    H241130   0.578   0.102   4.948  1.2102  3.3945 -0.7803
 6547TIP3   OH241131   6.369   2.073  13.748 -0.0061  0.1476 -1.0886
 6547TIP3    H141132   6.286   2.072  13.701  0.0398  0.7538 -1.1896
 6547TIP3    H241133   6.423   2.137  13.701  1.0839 -1.3539 -1.9833
 6548TIP3   OH241134   2.260   0.408  16.521  0.1492 -0.2038  0.2925
 6548TIP3    H141135   2.329   0.355  16.481 -0.6461 -0.9576 -0.1070
 6548TIP3    H241136   2.201   0.345  16.562  0.8642  0.5344  2.6181
 6549TIP3   OH241137   3.247   3.889  16.346  0.1417 -0.2079  0.2602
 6549TIP3    H141138   3.161   3.923  16.319  0.1602 -0.3333  0.0409
 6549TIP3    H241139   3.293   3.872  16.263  0.1358 -0.7589  0.3672
 6550TIP3   OH241140   2.152   1.614  11.551 -0.3125  0.1137  0.3248
 6550TIP3    H141141   2.153   1.533  11.603 -1.9368 -0.1538  0.0029
 6550TIP3    H241142   2.105   1.590  11.471  1.1905  0.8035 -0.8348
 6551TIP3   OH241143   0.499   0.203  15.522 -0.8016 -0.8425 -0.1917
 6551TIP3    H141144   0.586   0.239  15.535 -0.7726 -1.4473  1.5400
 6551TIP3    H241145   0.507   0.111  15.548 -1.8264 -1.0430 -0.5384
 6552TIP3   OH241146   1.539   6.217   4.646 -0.0944  0.4473  0.2927
 6552TIP3    H141147   1.496   6.247   4.566  1.9206  0.7578 -0.7259
 6552TIP3    H241148   1.616   6.273   4.655  1.1955 -1.3400  0.9291
 6553TIP3   OH241149   2.648   0.142  15.592  0.1027 -0.2921  0.6449
 6553TIP3    H141150   2.669   0.193  15.514 -4.8376 -1.1380 -1.6056
 6553TIP3    H241151   2.622   0.207  15.657  0.6540  0.2820  0.3051
 6554TIP3   OH241152   6.191   1.211  13.995 -0.0828 -0.0489  0.0937
 6554TIP3    H141153   6.225   1.288  14.041  0.9331 -0.2638 -0.2869
 6554TIP3    H241154   6.200   1.233  13.903 -0.6065 -0.2795 -0.0153
 6555TIP3   OH241155   2.614   4.695  15.025 -0.4613 -0.1313  0.4594
 6555TIP3    H141156   2.581   4.698  15.115 -0.2023 -1.5854  0.6220
 6555TIP3    H241157   2.704   4.725  15.032 -0.3114 -0.6373  0.7603
 6556TIP3   OH241158   2.654   6.476  14.402  0.3808  0.3663  0.0968
 6556TIP3    H141159   2.605   6.421  14.463  1.4844  1.0273  1.6238
 6556TIP3    H241160   2.727   6.421  14.373 -0.0330  0.1222 -0.5333
 6557TIP3   OH241161   1.494   0.612  15.289  0.1506  0.2142 -0.6253
 6557TIP3    H141162   1.421   0.556  15.261 -0.3050  0.7233 -0.4786
 6557TIP3    H241163   1.466   0.700  15.266  1.2365  0.3079 -1.6270
 6558TIP3   OH241164   0.900   2.618  11.911  0.1234 -0.6935 -0.1067
 6558TIP3    H141165   0.923   2.697  11.862  0.5244 -1.1565 -0.6772
 6558TIP3    H241166   0.907   2.644  12.003  1.8125 -0.4819 -0.2593
 6559TIP3   OH241167   4.183   3.723  15.501 -0.4873 -0.1450  0.4035
 6559TIP3    H141168   4.245   3.784  15.460 -0.6483  0.9546  1.7303
 6559TIP3    H241169   4.097   3.762  15.487 -0.5438  0.2718  1.7744
 6560TIP3   OH241170   1.480   5.376  15.848  0.0479 -0.1184 -0.0369
 6560TIP3    H141171   1.419   5.450  15.857  0.8163  0.5333 -0.1192
 6560TIP3    H241172   1.537   5.400  15.776 -0.5663 -1.4381 -1.0157
 6561TIP3   OH241173   4.616   2.016  11.869 -0.2798  0.9033 -0.1625
 6561TIP3    H141174   4.537   2.061  11.898 -0.2693  0.4571  0.5967
 6561TIP3    H241175   4.638   2.056  11.785 -0.8591  1.5746  0.0034
 6562TIP3   OH241176   3.794   0.604  12.189  0.2114  0.1205 -0.0012
 6562TIP3    H141177   3.829   0.677  12.138 -0.3771  0.6359  0.3225
 6562TIP3    H241178   3.855   0.593  12.262 -0.1269  0.8266  0.4002
 6563TIP3   OH241179   2.834   3.516   5.315 -0.4778 -0.7110 -0.0121
 6563TIP3    H141180   2.799   3.530   5.227 -1.1792  0.4102  0.4188
 6563TIP3    H241181   2.782   3.574   5.371  2.0175  1.0311  0.6872
 6564TIP3   OH241182   4.493   5.945   6.140  0.7093 -0.0657  0.5401
 6564TIP3    H141183   4.431   5.884   6.180 -1.6405  0.9652 -1.2504
 6564TIP3    H241184   4.579   5.912   6.165 -0.4167 -3.9183 -0.0265
 6565TIP3   OH241185   3.243   3.003  15.020 -0.0119  0.2801 -0.1517
 6565TIP3    H141186   3.190   3.026  14.944  1.4000  1.0265 -0.9285
 6565TIP3    H241187   3.279   2.916  14.999 -0.3284  0.0923  0.0651
 6566TIP3   OH241188   6.296   0.678  13.297 -0.2941 -0.0378  0.1618
 6566TIP3    H141189   6.253   0.604  13.255 -0.8001  0.2521  0.1681
 6566TIP3    H241190   6.226   0.727  13.338  0.0820  0.2467  0.4748
 6567TIP3   OH241191   0.386   5.854   3.261  0.1094  0.6167  0.1668
 6567TIP3    H141192   0.297   5.878   3.289  0.4018  1.5972  0.3006
 6567TIP3    H241193   0.386   5.866   3.166  0.1085  0.6440  0.1704
 6568TIP3   OH241194   4.379   4.892  15.509  0.1577 -0.1127 -0.2113
 6568TIP3    H141195   4.322   4.815  15.507 -0.2205  0.1830 -1.1275
 6568TIP3    H241196   4.389   4.917  15.418 -0.4165  1.4235  0.1164
 6569TIP3   OH241197   6.129   5.837   0.737  0.2243 -0.2253  0.1098
 6569TIP3    H141198   6.106   5.787   0.815  0.6956 -0.7400 -0.0766
 6569TIP3    H241199   6.150   5.771   0.671 -0.8099  0.1882 -0.6589
 6570TIP3   OH241200   4.756   0.298   5.136 -0.2394  0.0093 -0.4581
 6570TIP3    H141201   4.743   0.279   5.228  0.0758  1.1204 -0.1694
 6570TIP3    H241202   4.851   0.292   5.123 -0.2902 -0.2388 -0.7272
 6571TIP3   OH241203   3.557   5.767   5.863  0.3162 -0.2375  0.5404
 6571TIP3    H141204   3.526   5.777   5.953  1.1584 -0.6454  0.8877
 6571TIP3    H241205   3.479   5.781   5.809 -0.2970 -0.4386  1.3468
 6572TIP3   OH241206   3.613   1.267   0.037  0.0073  0.2789 -0.1228
 6572TIP3    H141207   3.604   1.177   0.068  1.6965 -0.7216 -2.2953
 6572TIP3    H241208   3.680   1.305   0.094 -1.7760  0.7539  1.8015
 6573TIP3   OH241209   5.314   4.158  13.278  0.3942 -0.5008  0.6429
 6573TIP3    H141210   5.362   4.241  13.273 -1.1806  0.4150  0.0407
 6573TIP3    H241211   5.347   4.106  13.205  1.8641 -0.7099  1.4147
 6574TIP3   OH241212   0.710   2.518  11.676 -0.2116  0.1542  0.2624
 6574TIP3    H141213   0.657   2.575  11.622 -0.8527  1.3607  2.0682
 6574TIP3    H241214   0.767   2.577  11.726  0.2075 -0.8769  1.0634
 6575TIP3   OH241215   6.073   5.462  11.379 -0.0416 -0.4327  0.2173
 6575TIP3    H141216   6.092   5.394  11.444  0.6255  0.0517  0.5432
 6575TIP3    H241217   6.155   5.511  11.371 -0.5737  0.4777  0.1680
 6576TIP3   OH241218   5.888   1.835   4.226  0.5185  0.2644  0.4652
 6576TIP3    H141219   5.905   1.928   4.210 -1.6576  0.3624 -1.7924
 6576TIP3    H241220   5.857   1.802   4.142 -1.8219 -1.7532  2.0064
 6577TIP3   OH241221   5.661   4.850  15.097 -0.1212  0.1086 -0.0496
 6577TIP3    H141222   5.743   4.854  15.146 -0.5162 -0.7686  0.7067
 6577TIP3    H241223   5.593   4.875  15.160 -0.6218 -0.8796 -0.1811
 6578TIP3   OH241224   5.375   2.880  14.915 -0.1254  0.0494  0.3469
 6578TIP3    H141225   5.439   2.812  14.894 -0.0603 -0.0266  0.7933
 6578TIP3    H241226   5.322   2.887  14.835 -1.0733 -1.5783  0.7671
 6579TIP3   OH241227   3.385   0.753  15.945  0.4028  0.3744  0.2377
 6579TIP3    H141228   3.432   0.671  15.958  0.4392  0.4697  0.7214
 6579TIP3    H241229   3.330   0.738  15.868  1.0858  0.2019 -0.2229
 6580TIP3   OH241230   6.412   5.921  14.571 -0.1827  0.2800  0.0205
 6580TIP3    H141231   6.467   5.845  14.586  0.0055  0.2571 -0.7426
 6580TIP3    H241232   6.435   5.951  14.483 -0.1231  1.3245  0.3702
 6581TIP3   OH241233   4.450   3.796  16.090  0.5000  0.1131 -0.3461
 6581TIP3    H141234   4.525   3.800  16.029  0.1891  1.4933 -0.6764
 6581TIP3    H241235   4.380   3.842  16.044 -0.5476 -1.0809  0.0051
 6582TIP3   OH241236   3.372   2.099  14.664  0.2494  0.0637  0.4096
 6582TIP3    H141237   3.414   2.179  14.632  0.7048 -0.3345 -0.0075
 6582TIP3    H241238   3.306   2.130  14.726 -1.5387  1.0005 -1.7989
 6583TIP3   OH241239   4.347   0.831  16.804 -0.6756  1.0593 -0.5944
 6583TIP3    H141240   4.409   0.846  16.734 -0.1503  1.5936 -0.0295
 6583TIP3    H241241   4.370   0.895  16.871  0.7548 -1.2917  1.3359
 6584TIP3   OH241242   5.630   2.680   4.851  0.2831  0.3102  0.1089
 6584TIP3    H141243   5.712   2.726   4.868  1.4400 -2.1179  1.6580
 6584TIP3    H241244   5.581   2.688   4.933 -0.3431  0.3402 -0.2559
 6585TIP3   OH241245   4.589   2.814  16.507 -0.0660 -0.0839 -0.3534
 6585TIP3    H141246   4.557   2.809  16.597 -0.5464 -0.7087 -0.5544
 6585TIP3    H241247   4.563   2.901  16.476 -0.8070 -0.2550 -0.2256
 6586TIP3   OH241248   2.442   3.199   2.722 -0.3435  0.7253 -0.1141
 6586TIP3    H141249   2.450   3.111   2.684 -1.8858  0.8128 -0.7104
 6586TIP3    H241250   2.404   3.252   2.652  1.1081  2.0518  0.0312
 6587TIP3   OH241251   6.469   1.922   0.580 -0.4037  0.4263  0.2395
 6587TIP3    H141252   6.500   1.877   0.501 -0.0945 -1.3836  1.3335
 6587TIP3    H241253   6.388   1.964   0.553  0.9482  2.0127 -1.6892
 6588TIP3   OH241254   2.788   0.200  12.697 -0.3743 -0.2420  0.3240
 6588TIP3    H141255   2.826   0.281  12.732 -0.1333  0.6571 -1.8575
 6588TIP3    H241256   2.851   0.132  12.721  0.7512  0.6354 -0.0477
 6589TIP3   OH241257   5.704   2.139   6.327  0.4111 -0.3749 -0.1246
 6589TIP3    H141258   5.713   2.233   6.314  0.8448 -0.4102 -0.0883
 6589TIP3    H241259   5.738   2.123   6.415  1.7280 -0.7624 -0.6814
 6590TIP3   OH241260   3.095   3.832   2.452 -0.4883 -0.0889 -0.7115
 6590TIP3    H141261   3.030   3.901   2.440 -1.5457 -0.9809 -0.2927
 6590TIP3    H241262   3.171   3.862   2.403 -1.2136  0.9741 -1.2276
 6591TIP3   OH241263   0.319   4.607   5.338  0.0855 -0.0659 -0.2963
 6591TIP3    H141264   0.369   4.680   5.375  0.4820  0.3492 -1.5951
 6591TIP3    H241265   0.319   4.623   5.243 -0.1521 -1.5483 -0.5788
 6592TIP3   OH241266   1.509   0.717  16.290  0.5707  0.0156 -0.0570
 6592TIP3    H141267   1.478   0.634  16.255  0.7823 -0.3629  0.6320
 6592TIP3    H241268   1.456   0.732  16.368 -0.4674  1.2579 -0.9440
 6593TIP3   OH241269   0.228   6.713   1.537 -0.0071 -0.6523  0.2119
 6593TIP3    H141270   0.202   6.782   1.477 -0.7941 -0.9697  0.1679
 6593TIP3    H241271   0.190   6.738   1.621 -1.1929 -1.5305 -0.0339
 6594TIP3   OH241272   6.184   6.171   3.407 -0.0873  0.2552  0.5092
 6594TIP3    H141273   6.100   6.176   3.453 -0.5113  0.5196 -0.2786
 6594TIP3    H241274   6.228   6.254   3.427  0.1387 -0.0205  1.1917
 6595TIP3   OH241275   0.308   0.289   3.443  0.0524 -0.1732 -0.5640
 6595TIP3    H141276   0.271   0.362   3.395 -0.6440 -0.5365 -0.5880
 6595TIP3    H241277   0.305   0.317   3.535 -2.4705 -1.0839 -0.2890
 6596TIP3   OH241278   5.071   2.289   5.785  0.0729 -0.0126  0.2526
 6596TIP3    H141279   5.118   2.269   5.704 -0.3916  0.2509 -0.0843
 6596TIP3    H241280   5.132   2.264   5.854  0.8909  0.7557 -0.1817
 6597TIP3   OH241281   5.284   1.534  11.019  0.3760  0.0594  0.2220
 6597TIP3    H141282   5.342   1.597  11.063  0.1744  0.0631  0.4831
 6597TIP3    H241283   5.239   1.489  11.090 -0.0991  0.2013  0.0163
 6598TIP3   OH241284   3.311   1.638   6.079 -0.0578  0.1192  0.1911
 6598TIP3    H141285   3.362   1.584   6.139  0.5963 -1.0089 -1.3101
 6598TIP3    H241286   3.356   1.629   5.995 -0.9058  1.6891 -0.4771
 6599TIP3   OH241287   3.828   3.382   2.953  0.3245 -0.3260 -0.2747
 6599TIP3    H141288   3.807   3.295   2.987 -0.3210 -0.4360 -0.9288
 6599TIP3    H241289   3.923   3.386   2.955  0.3216 -0.6106  0.8344
 6600TIP3   OH241290   5.826   6.641   2.762 -0.4738 -0.1663  0.1526
 6600TIP3    H141291   5.846   6.734   2.752  0.1211 -0.2346  0.6311
 6600TIP3    H241292   5.801   6.612   2.674  0.0743  0.2768 -0.1557
 6601TIP3   OH241293   4.165   5.387  14.618 -0.1618 -0.0038 -0.0799
 6601TIP3    H141294   4.128   5.358  14.535 -0.6054 -1.3305  0.5637
 6601TIP3    H241295   4.097   5.371  14.683  0.5449  0.0715  0.7062
 6602TIP3   OH241296   4.059   0.498  15.260 -0.2533  0.1988 -0.8783
 6602TIP3    H141297   4.004   0.567  15.297 -1.2354 -0.9914 -0.0133
 6602TIP3    H241298   4.007   0.418  15.271  1.8139 -1.0649  0.3725
 6603TIP3   OH241299   1.464   3.821   3.951 -0.5161  0.5900 -0.7786
 6603TIP3    H141300   1.446   3.737   3.908  0.0461  0.6645 -1.1849
 6603TIP3    H241301   1.547   3.807   3.996 -0.9975  0.5810  0.1280
 6604TIP3   OH241302   4.354   6.789   5.671 -0.3193  0.7872 -0.3190
 6604TIP3    H141303   4.340   6.739   5.752 -2.0671  1.4172 -0.1933
 6604TIP3    H241304   4.406   6.864   5.699  0.3489  0.2402 -0.0702
 6605TIP3   OH241305   1.973   4.768  12.864 -0.3224  0.4516 -0.0471
 6605TIP3    H141306   1.998   4.808  12.947  0.4151 -1.0317  0.4981
 6605TIP3    H241307   1.968   4.840  12.802  1.7133  1.3110  0.6914
 6606TIP3   OH241308   1.021   3.022  11.047 -0.0781 -0.5134 -0.0690
 6606TIP3    H141309   1.068   3.040  11.128  0.8324  1.3520 -0.9490
 6606TIP3    H241310   1.048   2.933  11.023  2.2130  0.0805  0.0484
 6607TIP3   OH241311   2.618   2.389  10.686 -0.5890 -0.3649 -0.3733
 6607TIP3    H141312   2.688   2.325  10.703  0.1946 -0.0709 -2.2949
 6607TIP3    H241313   2.575   2.399  10.771  0.2017 -2.3174  0.3276
 6608TIP3   OH241314   1.936   3.185  12.682  0.2039 -0.5401  0.4505
 6608TIP3    H141315   1.954   3.224  12.768 -0.5800  1.4841 -0.2466
 6608TIP3    H241316   1.928   3.091  12.700 -0.6772 -0.1044  2.7323
 6609TIP3   OH241317   2.146   4.208  10.818  0.0239 -0.2584 -0.0051
 6609TIP3    H141318   2.095   4.287  10.800  1.7125  0.4906 -1.8932
 6609TIP3    H241319   2.204   4.233  10.889  0.1180 -0.0007 -0.1713
 6610TIP3   OH241320   4.255   5.854   3.214  0.3023 -0.5560 -0.3591
 6610TIP3    H141321   4.182   5.886   3.162  0.3166 -0.4691 -0.3262
 6610TIP3    H241322   4.272   5.924   3.277 -1.6580 -1.8543  1.7523
 6611TIP3   OH241323   1.029   0.851   1.770 -0.1273 -0.2969 -0.2202
 6611TIP3    H141324   1.047   0.836   1.677 -1.4960  0.1194 -0.5749
 6611TIP3    H241325   0.936   0.870   1.773 -0.4052 -1.6618  1.4203
 6612TIP3   OH241326   4.829   4.946  13.038 -0.2674  0.3888  0.3120
 6612TIP3    H141327   4.854   4.871  13.091  1.3257  0.7636  0.1412
 6612TIP3    H241328   4.842   4.917  12.947 -1.3526  0.3053  0.1706
 6613TIP3   OH241329   1.945   1.071   4.002 -0.0575 -0.1610 -0.2658
 6613TIP3    H141330   1.895   1.076   4.083 -0.0440  0.9721 -0.3044
 6613TIP3    H241331   1.879   1.073   3.933 -0.0138  0.3421 -0.2985
 6614TIP3   OH241332   5.299   3.185  11.123  0.5319 -1.0117  0.3344
 6614TIP3    H141333   5.361   3.146  11.061  0.7062 -0.1982 -0.0195
 6614TIP3    H241334   5.224   3.126  11.121  0.1536 -0.5391 -1.3590
 6615TIP3   OH241335   3.596   3.235  13.525  0.9185 -0.5221 -0.0987
 6615TIP3    H141336   3.640   3.150  13.526  1.2769 -0.3488  1.3858
 6615TIP3    H241337   3.646   3.288  13.587  0.0614  0.4409 -0.2133
 6616TIP3   OH241338   4.522   4.072  16.057 -0.0191  0.0807  0.2090
 6616TIP3    H141339   4.444   4.047  16.007  0.7372 -1.4300 -0.2875
 6616TIP3    H241340   4.500   4.050  16.148 -0.3315  0.0574  0.1286
 6617TIP3   OH241341   2.344   1.881  15.187  0.1658 -0.1339 -0.1309
 6617TIP3    H141342   2.363   1.947  15.253  2.9509 -1.1596  0.2189
 6617TIP3    H241343   2.429   1.845  15.163 -1.1168 -2.9398 -0.9823
 6618TIP3   OH241344   4.615   4.705  17.034  0.1003  0.1743 -0.0500
 6618TIP3    H141345   4.692   4.662  17.071 -0.7566 -1.9219 -0.5543
 6618TIP3    H241346   4.644   4.793  17.014  2.5170 -0.6893 -0.6634
 6619TIP3   OH241347   1.591   5.378   3.486  0.1619 -0.4622  0.1176
 6619TIP3    H141348   1.525   5.366   3.555  1.3700  1.6477  1.7460
 6619TIP3    H241349   1.625   5.289   3.472  0.0623 -0.9452  2.4570
 6620TIP3   OH241350   4.849   3.287   0.659  0.1023 -0.1577 -0.3091
 6620TIP3    H141351   4.920   3.293   0.596 -0.1791 -0.5254 -0.6595
 6620TIP3    H241352   4.893   3.276   0.743  0.4546 -0.5636 -0.5439
 6621TIP3   OH241353   1.110   6.857   4.725  0.6929  0.3094  1.0426
 6621TIP3    H141354   1.025   6.889   4.695  0.3417 -0.6123  1.0056
 6621TIP3    H241355   1.157   6.935   4.755 -0.7824  0.6385  2.6234
 6622TIP3   OH241356   3.853   0.542   2.346  0.9445  0.0107  0.2665
 6622TIP3    H141357   3.884   0.606   2.282 -0.2898  1.0371  0.6555
 6622TIP3    H241358   3.901   0.563   2.427  0.7954  0.2245  0.2999
 6623TIP3   OH241359   5.731   6.360   5.167 -0.0942 -0.1998  0.6318
 6623TIP3    H141360   5.656   6.344   5.224 -0.3263 -0.2214  0.3246
 6623TIP3    H241361   5.747   6.454   5.175 -0.7189 -0.0232  0.0273
 6624TIP3   OH241362   5.171   4.372  11.193  0.4444 -0.2522  0.4956
 6624TIP3    H141363   5.106   4.315  11.152 -0.5912  0.0061  1.7028
 6624TIP3    H241364   5.251   4.358  11.143 -0.0595 -1.9841  0.1264
 6625TIP3   OH241365   1.863   3.544   1.011 -0.2458 -0.2212 -0.0834
 6625TIP3    H141366   1.838   3.483   1.081 -0.7715  0.9915  0.8183
 6625TIP3    H241367   1.953   3.519   0.989 -1.0116 -2.4582 -0.9899
 6626TIP3   OH241368   0.199   1.932  13.851  0.2429 -0.2504 -0.1094
 6626TIP3    H141369   0.255   1.903  13.923 -0.4205 -0.0146  0.5208
 6626TIP3    H241370   0.214   1.868  13.781 -0.4210 -1.5116  0.8717
 6627TIP3   OH241371   0.239   5.756  11.094 -0.6792 -0.0821 -0.4860
 6627TIP3    H141372   0.319   5.805  11.111 -0.2885 -1.4685  2.3381
 6627TIP3    H241373   0.169   5.814  11.122 -0.7506  1.1073 -2.8936
 6628TIP3   OH241374   6.039   1.878  13.723  0.1250 -0.2630  0.1448
 6628TIP3    H141375   5.985   1.880  13.802 -2.2714  0.2914 -1.4260
 6628TIP3    H241376   6.085   1.963  13.724 -1.2045  0.4742  0.0950
 6629TIP3   OH241377   5.224   1.547  13.238 -0.2651  0.1017 -0.5946
 6629TIP3    H141378   5.287   1.584  13.177  0.5165  2.4432  1.5081
 6629TIP3    H241379   5.264   1.464  13.266  1.4364  1.0642 -0.0509
 6630TIP3   OH241380   5.849   5.901   3.791 -0.3980  0.6839 -1.0545
 6630TIP3    H141381   5.891   5.816   3.808  1.7063  1.5557 -1.6149
 6630TIP3    H241382   5.849   5.945   3.877  0.5150  0.9544 -1.1866
 6631TIP3   OH241383   0.822   3.260  13.031  0.6407  0.2434 -0.2634
 6631TIP3    H141384   0.886   3.319  13.071  0.4745 -0.4861  1.1597
 6631TIP3    H241385   0.845   3.174  13.067 -0.6744 -0.1480 -0.3300
 6632TIP3   OH241386   2.161   1.381   3.280  0.0444  0.7760  0.6835
 6632TIP3    H141387   2.137   1.297   3.320 -0.5668  0.2610 -0.6575
 6632TIP3    H241388   2.245   1.404   3.319  0.8658 -1.1230  0.1617
 6633TIP3   OH241389   4.238   1.555  12.702 -0.1891  0.1508  0.4372
 6633TIP3    H141390   4.262   1.639  12.740  2.0490 -0.4384  0.4929
 6633TIP3    H241391   4.150   1.538  12.734 -0.4830  2.2253  0.8329
 6634TIP3   OH241392   6.129   4.488  16.534 -0.0068  0.4288  0.1377
 6634TIP3    H141393   6.218   4.487  16.498  0.3625 -0.4683  1.0107
 6634TIP3    H241394   6.129   4.560  16.597  0.0373  0.5556 -0.0059
 6635TIP3   OH241395   2.345   5.111  14.263  0.0576  0.2734 -0.7114
 6635TIP3    H141396   2.406   5.080  14.196 -0.3780  0.5499 -1.2511
 6635TIP3    H241397   2.272   5.050  14.260  0.8641 -0.8481  0.8622
 6636TIP3   OH241398   4.463   4.578  10.635 -0.1197 -0.2966 -0.0135
 6636TIP3    H141399   4.474   4.667  10.667 -1.7756  0.4314 -1.2903
 6636TIP3    H241400   4.504   4.523  10.701  0.0488  1.3432  1.3128
 6637TIP3   OH241401   5.391   2.049   1.643 -0.0889  0.2127 -0.3731
 6637TIP3    H141402   5.300   2.058   1.672 -0.6466 -0.5407 -1.7879
 6637TIP3    H241403   5.388   2.065   1.548  1.2538  0.1715 -0.4457
 6638TIP3   OH241404   0.521   0.616   6.624  0.0391  0.4204  0.8055
 6638TIP3    H141405   0.583   0.594   6.554  0.3868 -1.3873  1.5994
 6638TIP3    H241406   0.555   0.697   6.662  1.8304 -0.3948  1.0531
 6639TIP3   OH241407   6.880   3.140  16.822  0.1522  0.3280  0.6220
 6639TIP3    H141408   6.899   3.077  16.892  3.0285  0.6828  0.2635
 6639TIP3    H241409   6.940   3.117  16.752 -1.4933  1.0653 -1.1254
 6640TIP3   OH241410   2.447   2.017   3.689  0.2888 -0.6039  0.5664
 6640TIP3    H141411   2.466   2.080   3.620  1.9307 -1.7310 -0.0715
 6640TIP3    H241412   2.529   2.011   3.739  1.6597 -5.0460 -1.7350
 6641TIP3   OH241413   0.628   5.876   3.476 -0.0263 -0.2048  0.5250
 6641TIP3    H141414   0.588   5.929   3.407  0.0194 -1.5237 -0.5789
 6641TIP3    H241415   0.585   5.904   3.556 -0.2593  1.2112 -0.0633
 6642TIP3   OH241416   2.429   3.642   2.019 -0.3363  0.8237 -0.4271
 6642TIP3    H141417   2.425   3.716   1.959  0.6076  1.5316  0.3586
 6642TIP3    H241418   2.504   3.660   2.075  0.0704 -0.8459 -0.3684
 6643TIP3   OH241419   1.348   2.431   4.989  0.0090 -0.9385  0.3165
 6643TIP3    H141420   1.361   2.340   4.963 -0.1335 -0.1654 -2.7507
 6643TIP3    H241421   1.412   2.446   5.059 -0.1938 -3.4316  1.1125
 6644TIP3   OH241422   0.843   6.547  11.478  0.0887  0.3286  0.1798
 6644TIP3    H141423   0.831   6.590  11.563  0.4359  1.4449 -0.3072
 6644TIP3    H241424   0.798   6.464  11.487 -0.9970  0.9745  1.0322
 6645TIP3   OH241425   0.872   0.193  13.339 -0.3328 -0.0564 -0.5231
 6645TIP3    H141426   0.829   0.112  13.367 -1.3936  0.6215 -0.1273
 6645TIP3    H241427   0.905   0.173  13.251  0.6118 -1.3334  0.0972
 6646TIP3   OH241428   1.197   1.657  14.526 -0.2333  0.7728 -0.6192
 6646TIP3    H141429   1.205   1.598  14.601 -0.1231  1.4639 -0.0707
 6646TIP3    H241430   1.123   1.714  14.549  0.3106  1.5128 -0.6493
 6647TIP3   OH241431   2.167   5.653  14.446 -0.0719  0.3261  0.0028
 6647TIP3    H141432   2.143   5.583  14.508  0.4755 -1.8556 -2.1132
 6647TIP3    H241433   2.245   5.621  14.402 -1.3694  0.9436 -3.0239
 6648TIP3   OH241434   6.144   1.221   1.245  0.6322  0.0929  0.0834
 6648TIP3    H141435   6.223   1.188   1.202  1.2466 -0.2952  1.4532
 6648TIP3    H241436   6.168   1.309   1.274 -0.1142  0.7461 -1.2144
 6649TIP3   OH241437   4.215   2.775  16.062  0.3106 -0.0369 -1.0496
 6649TIP3    H141438   4.162   2.792  16.140  1.6213  0.8491 -0.3061
 6649TIP3    H241439   4.194   2.847  16.003  0.9368  0.5380 -0.5948
 6650TIP3   OH241440   4.067   2.267  12.837 -0.1956  0.4391  0.2024
 6650TIP3    H141441   4.053   2.262  12.742 -0.4512  0.5470  0.2317
 6650TIP3    H241442   4.078   2.361  12.855  0.5155  0.3639  0.1932
 6651TIP3   OH241443   0.375   5.604  12.460 -0.4946  0.3115 -0.4478
 6651TIP3    H141444   0.410   5.693  12.459  0.3428  0.0256  0.7218
 6651TIP3    H241445   0.452   5.548  12.455 -0.7639 -0.3347  1.6339
 6652TIP3   OH241446   4.416   2.939  14.930 -0.2358  0.4206  0.1003
 6652TIP3    H141447   4.466   2.963  14.852 -1.3589  1.1380 -0.4243
 6652TIP3    H241448   4.432   3.010  14.992 -0.9407  0.8861 -0.2365
 6653TIP3   OH241449   2.116   1.548   3.061 -0.3771 -0.4119 -0.4824
 6653TIP3    H141450   2.129   1.634   3.100 -1.6059  0.1746 -1.2951
 6653TIP3    H241451   2.129   1.487   3.133  0.9521  0.4129  0.0071
 6654TIP3   OH241452   2.778   4.196   2.480 -0.8393 -0.2300 -0.2949
 6654TIP3    H141453   2.741   4.129   2.423  1.1664  0.3638 -2.4466
 6654TIP3    H241454   2.870   4.172   2.491 -0.5133  1.1942  0.4071
 6655TIP3   OH241455   5.110   0.128  10.271 -0.0595  0.2145 -0.3451
 6655TIP3    H141456   5.028   0.130  10.222 -0.4838 -0.6674  0.3020
 6655TIP3    H241457   5.124   0.035  10.291  0.7044  0.4347  0.2036
 6656TIP3   OH241458   0.652   4.030  10.356 -0.3593 -0.1694  0.0418
 6656TIP3    H141459   0.734   4.052  10.311 -0.2242  1.6206  1.1098
 6656TIP3    H241460   0.680   3.992  10.439 -0.6244 -0.3830  0.0343
 6657TIP3   OH241461   6.371   5.596   1.259 -0.0732  0.5199  0.4811
 6657TIP3    H141462   6.427   5.662   1.218  0.5975  0.4503  1.2590
 6657TIP3    H241463   6.341   5.542   1.186  0.4046  0.9128 -0.0148
 6658TIP3   OH241464   4.695   4.964  16.205 -0.3144  0.1990 -0.0094
 6658TIP3    H141465   4.745   4.982  16.125 -0.3488  1.4626  0.2433
 6658TIP3    H241466   4.635   5.037  16.213 -0.1754  0.1914  1.2908
 6659TIP3   OH241467   0.928   1.893  12.441 -0.2484 -0.5256  0.1798
 6659TIP3    H141468   0.964   1.809  12.414  1.1405 -0.4356  1.5997
 6659TIP3    H241469   1.002   1.954  12.435 -0.6494  0.1038  1.2995
 6660TIP3   OH241470   1.971   1.799  16.188  0.1444  0.3183 -0.9011
 6660TIP3    H141471   2.039   1.828  16.248  0.8840 -1.2965 -0.9158
 6660TIP3    H241472   1.950   1.710  16.217 -1.8268  0.6961 -1.0233
 6661TIP3   OH241473   5.636   3.013   0.826 -0.4369  0.4371  0.2320
 6661TIP3    H141474   5.698   2.941   0.840 -0.5433 -0.4301 -3.0090
 6661TIP3    H241475   5.684   3.092   0.852  1.3864 -0.3857 -0.5028
 6662TIP3   OH241476   0.826   3.642  16.905 -0.4059 -0.2276  0.6185
 6662TIP3    H141477   0.880   3.665  16.980  3.0562 -1.0181 -1.4072
 6662TIP3    H241478   0.806   3.549  16.917 -0.6335 -0.1299  1.0027
 6663TIP3   OH241479   0.187   5.621  15.518 -0.4783  0.1135  0.6943
 6663TIP3    H141480   0.256   5.636  15.582  0.6786  0.5062 -0.6083
 6663TIP3    H241481   0.141   5.705  15.512  0.0966  0.4030  0.2392
 6664TIP3   OH241482   5.552   1.131   0.372  0.2573  0.1779 -0.4516
 6664TIP3    H141483   5.606   1.089   0.439 -0.4180 -0.2224 -0.1461
 6664TIP3    H241484   5.582   1.092   0.289  0.2828 -0.2128 -0.2619
 6665TIP3   OH241485   0.224   1.378  14.453  0.2155 -0.2683  0.1804
 6665TIP3    H141486   0.183   1.443  14.397 -0.7313 -1.6816 -0.8243
 6665TIP3    H241487   0.167   1.372  14.530  0.3485  0.1364  0.3107
 6666TIP3   OH241488   5.182   5.342  11.481 -0.2978 -0.3982  0.8548
 6666TIP3    H141489   5.203   5.435  11.474 -0.4483 -0.2124  2.4340
 6666TIP3    H241490   5.101   5.333  11.431 -1.0315  0.6241  1.7980
 6667TIP3   OH241491   2.368   5.633  13.546  0.3459 -0.2024  0.2021
 6667TIP3    H141492   2.401   5.712  13.504  0.3288  0.0928  0.7300
 6667TIP3    H241493   2.317   5.589  13.478  1.1068 -0.2318 -0.3635
 6668TIP3   OH241494   2.157   4.455  16.101 -0.4099 -0.4208 -0.4955
 6668TIP3    H141495   2.247   4.427  16.119  0.1135  1.0146 -0.7659
 6668TIP3    H241496   2.103   4.383  16.133  0.7819 -0.8255  0.7155
 6669TIP3   OH241497   3.881   5.066  11.304 -0.1767 -0.7838  0.3881
 6669TIP3    H141498   3.954   5.040  11.247  0.0056  2.9146 -1.3429
 6669TIP3    H241499   3.815   4.999  11.291  0.8468 -1.3842 -2.3318
 6670TIP3   OH241500   0.112   5.531  11.224 -0.5487  0.0068 -0.0563
 6670TIP3    H141501   0.127   5.622  11.197  0.5389  0.1699  0.9887
 6670TIP3    H241502   0.161   5.522  11.306 -1.0195 -1.4010  0.1053
 6671TIP3   OH241503   6.496   1.754  12.643 -0.1606 -0.2769 -0.0010
 6671TIP3    H141504   6.552   1.681  12.667 -0.8094 -1.1464 -1.0381
 6671TIP3    H241505   6.553   1.831  12.647  0.4413 -0.7550  1.4646
 6672TIP3   OH241506   4.004   5.533   3.591 -0.2352  0.5985  0.3044
 6672TIP3    H141507   3.930   5.593   3.590 -2.5101 -2.0478  0.7293
 6672TIP3    H241508   4.003   5.492   3.504  0.2477 -0.0222  0.5859
 6673TIP3   OH241509   1.952   4.830   0.225  0.0402  0.3942 -0.1501
 6673TIP3    H141510   1.964   4.753   0.281 -0.7538  0.1339 -0.3332
 6673TIP3    H241511   1.970   4.905   0.283 -1.3520  0.1522  0.6334
 6674TIP3   OH241512   0.990   0.920   1.213 -0.3956 -0.2621 -0.0069
 6674TIP3    H141513   1.062   0.864   1.186 -0.7799  0.9182 -4.2407
 6674TIP3    H241514   0.914   0.862   1.219 -0.1244 -0.7618 -1.0819
 6675TIP3   OH241515   1.742   0.034   6.162  0.0028  0.9931 -0.7585
 6675TIP3    H141516   1.832   0.062   6.141  1.4686 -1.7616  1.1728
 6675TIP3    H241517   1.725   0.070   6.249 -0.5436  1.0151 -0.8714
 6676TIP3   OH241518   6.119   3.248  13.173 -0.5618 -0.1173 -0.4733
 6676TIP3    H141519   6.113   3.344  13.172 -1.7225 -0.1371  0.9737
 6676TIP3    H241520   6.097   3.221  13.084  0.8280  0.9875 -1.1888
 6677TIP3   OH241521   5.572   4.021   2.882  0.6177  0.0662  0.2170
 6677TIP3    H141522   5.588   4.074   2.960 -1.2824  1.3414 -0.1837
 6677TIP3    H241523   5.530   3.942   2.915  1.3516 -0.1674  0.6116
 6678TIP3   OH241524   4.087   1.086   1.156 -0.1348  0.1588 -0.0735
 6678TIP3    H141525   4.154   1.145   1.191  1.3203 -1.0158 -0.7586
 6678TIP3    H241526   4.083   1.014   1.219 -1.9014  0.9268  0.7586
 6679TIP3   OH241527   0.044   3.936  15.625 -0.2234 -0.1179 -0.0958
 6679TIP3    H141528  -0.044   3.959  15.594  0.1629  1.0675 -0.3660
 6679TIP3    H241529   0.030   3.862  15.684 -1.5396  0.7922  0.7855
 6680TIP3   OH241530   4.100   6.119  15.601 -0.3838  0.7836 -0.4218
 6680TIP3    H141531   4.112   6.024  15.610 -1.9095  0.5520 -0.6402
 6680TIP3    H241532   4.076   6.148  15.689 -3.2011  0.4035 -0.9591
 6681TIP3   OH241533   0.837   1.891   3.876  0.3317 -0.8872  0.3706
 6681TIP3    H141534   0.753   1.846   3.881 -0.4022  0.3105 -0.4045
 6681TIP3    H241535   0.870   1.871   3.788  0.1075 -0.1337  0.1046
 6682TIP3   OH241536   4.536   0.666   0.767  0.2634  0.1780 -0.2676
 6682TIP3    H141537   4.626   0.698   0.766  0.7452 -1.0865  0.4602
 6682TIP3    H241538   4.530   0.610   0.689 -0.2926  1.2763 -1.0262
 6683TIP3   OH241539   5.150   1.190  11.383 -0.2307  0.1236  0.1504
 6683TIP3    H141540   5.187   1.189  11.472  2.3614  0.3452 -0.8332
 6683TIP3    H241541   5.161   1.100  11.352  1.3394  0.6021 -0.8138
 6684TIP3   OH241542   4.379   4.394  11.846 -0.3473  0.0572 -0.4008
 6684TIP3    H141543   4.303   4.452  11.841  0.6105  1.3074 -0.6628
 6684TIP3    H241544   4.431   4.415  11.769  0.5129 -0.4493  0.0214
 6685TIP3   OH241545   4.650   2.257   1.438  0.3464  0.3102  0.3159
 6685TIP3    H141546   4.593   2.206   1.495  1.0881 -0.3273  0.5107
 6685TIP3    H241547   4.619   2.238   1.349 -0.9635  1.4895  0.4900
 6686TIP3   OH241548   1.005   0.757   3.256 -0.0960 -0.2933  0.1378
 6686TIP3    H141549   1.062   0.692   3.215  1.1050  1.2845 -0.8099
 6686TIP3    H241550   0.920   0.743   3.216  0.4641 -0.4390 -1.0267
 6687TIP3   OH241551   0.353   6.588  13.216  0.4216  0.3118 -0.6804
 6687TIP3    H141552   0.360   6.683  13.221  2.4580  0.2436 -1.2492
 6687TIP3    H241553   0.436   6.556  13.252 -0.7311 -1.3217  0.6887
 6688TIP3   OH241554   2.364   4.801   4.431 -0.3594  0.1022 -0.5992
 6688TIP3    H141555   2.346   4.719   4.478 -3.3338 -0.1530 -1.9511
 6688TIP3    H241556   2.406   4.857   4.496 -2.0680 -1.0735  1.6843
 6689TIP3   OH241557   1.501   1.021  11.768 -0.0481  0.1929  0.1910
 6689TIP3    H141558   1.440   1.053  11.701  0.1468 -0.6308 -0.4057
 6689TIP3    H241559   1.587   1.034  11.729  0.0538 -0.5926  0.1267
 6690TIP3   OH241560   5.084   0.908   2.688  0.4879  0.3158 -0.3316
 6690TIP3    H141561   5.039   0.955   2.618 -0.8851  1.5314  1.2991
 6690TIP3    H241562   5.139   0.973   2.731  1.3959 -0.4345 -0.3147
 6691TIP3   OH241563   5.040   3.528   4.117  0.6885 -0.0639  0.3114
 6691TIP3    H141564   4.946   3.550   4.122  1.0000  1.2951  0.7471
 6691TIP3    H241565   5.073   3.581   4.044  1.1573 -0.3770  0.2941
 6692TIP3   OH241566   5.367   2.587  11.554 -0.5458  0.1825  0.0309
 6692TIP3    H141567   5.422   2.595  11.632  0.0978  0.6837 -0.4650
 6692TIP3    H241568   5.395   2.659  11.497 -0.0637 -0.9744 -1.2431
 6693TIP3   OH241569   4.604   5.681   3.378  0.3670  0.3543 -0.2525
 6693TIP3    H141570   4.623   5.774   3.395 -1.5579  0.9693 -1.1945
 6693TIP3    H241571   4.645   5.663   3.293  0.7324  0.3380 -0.0742
 6694TIP3   OH241572   6.729   4.043   2.309 -0.6872  0.7035 -0.3277
 6694TIP3    H141573   6.734   3.982   2.383  1.1080 -0.9528 -1.7073
 6694TIP3    H241574   6.671   3.999   2.247  2.1713 -0.7708 -2.1865
 6695TIP3   OH241575   1.906   5.176   3.939 -0.2043 -0.0245 -0.2076
 6695TIP3    H141576   1.926   5.265   3.965  0.0493  0.0239 -0.5665
 6695TIP3    H241577   1.823   5.183   3.892  0.4013  0.2024 -1.2756
 6696TIP3   OH241578   1.108   4.762  13.938  0.2783  0.2711  0.2280
 6696TIP3    H141579   1.039   4.825  13.919  0.8692  0.2037 -2.4742
 6696TIP3    H241580   1.065   4.677  13.930 -0.0528  0.2601  1.8711
 6697TIP3   OH241581   5.983   0.659   4.155  0.0913  0.6231 -0.2561
 6697TIP3    H141582   6.049   0.687   4.218 -0.7806 -0.1146  1.0071
 6697TIP3    H241583   5.908   0.716   4.173  0.2572  1.2756 -1.5043
 6698TIP3   OH241584   1.602   0.909  13.083  0.1113  0.0364  0.2095
 6698TIP3    H141585   1.564   0.821  13.077 -1.2384  0.7001 -2.0533
 6698TIP3    H241586   1.672   0.909  13.018  1.8007 -0.0805  1.9426
 6699TIP3   OH241587   2.412   5.071  11.655 -0.1558 -0.3685 -0.2626
 6699TIP3    H141588   2.480   5.065  11.722 -1.3568  0.4773  1.0760
 6699TIP3    H241589   2.401   5.165  11.640 -0.5322 -0.5212 -1.0073
 6700TIP3   OH241590   2.637   4.087  13.661  0.0846 -0.0156 -0.3346
 6700TIP3    H141591   2.590   4.134  13.730 -0.0812 -0.4170 -0.1676
 6700TIP3    H241592   2.599   3.999  13.661  2.1330 -0.9995  1.1496
 6701TIP3   OH241593   1.897   1.575  11.879  0.1654  0.0561 -0.2884
 6701TIP3    H141594   1.952   1.504  11.845 -0.0561  0.6288 -1.9180
 6701TIP3    H241595   1.952   1.653  11.870 -0.0631  0.2902  0.3011
 6702TIP3   OH241596   4.263   4.803  10.796 -0.9289  0.9707 -0.2578
 6702TIP3    H141597   4.183   4.750  10.799 -0.0551 -0.3710  1.0765
 6702TIP3    H241598   4.263   4.843  10.709 -2.5082  0.1644 -0.6620
 6703TIP3   OH241599   6.397   5.360   3.187 -0.0128  0.3565  0.1333
 6703TIP3    H141600   6.406   5.281   3.240 -1.9432 -0.4487 -0.6633
 6703TIP3    H241601   6.477   5.362   3.135  0.2415 -0.8750  0.4293
 6704TIP3   OH241602   6.239   1.371  16.398  0.3300  0.1385  0.0111
 6704TIP3    H141603   6.310   1.434  16.389  0.1196  1.0738  3.5265
 6704TIP3    H241604   6.278   1.297  16.444 -0.1705 -0.9597 -1.2711
 6705TIP3   OH241605   2.346   5.078  15.704  0.1708 -0.1020 -0.4559
 6705TIP3    H141606   2.293   5.013  15.656  1.9757 -1.5173 -0.6451
 6705TIP3    H241607   2.339   5.052  15.796  1.5209 -1.1154 -0.6052
 6706TIP3   OH241608   0.596   5.864   4.290 -0.5338  0.0031  0.1532
 6706TIP3    H141609   0.529   5.836   4.353  0.7879 -0.8072  1.2580
 6706TIP3    H241610   0.584   5.806   4.215 -1.4095  0.2350  0.1020
 6707TIP3   OH241611   1.139   5.872   0.708 -0.2961 -0.0962  0.1458
 6707TIP3    H141612   1.229   5.898   0.729  0.4186 -2.0748 -0.2186
 6707TIP3    H241613   1.090   5.885   0.789  0.6028 -0.1409  0.7032
 6708TIP3   OH241614   6.487   2.430  11.151  0.2962  0.6215  0.1322
 6708TIP3    H141615   6.407   2.387  11.122  0.0706 -0.3640  2.0613
 6708TIP3    H241616   6.557   2.379  11.112 -0.0006  0.6874 -0.4983
 6709TIP3   OH241617   0.169   5.264   4.031 -0.5402  0.0102 -0.3082
 6709TIP3    H141618   0.153   5.172   4.009 -1.0032  0.5458 -2.4443
 6709TIP3    H241619   0.262   5.267   4.057 -0.5448 -1.0603 -0.1419
 6710TIP3   OH241620   3.656   4.651   4.681 -0.1977  0.3001  0.0620
 6710TIP3    H141621   3.690   4.740   4.695  0.3065  0.0406  0.5200
 6710TIP3    H241622   3.561   4.662   4.678 -0.1274  0.8891 -0.1254
 6711TIP3   OH241623   6.297   1.409  12.239 -0.2830 -0.3907  0.2214
 6711TIP3    H141624   6.205   1.426  12.261  0.2462  1.3221  1.2574
 6711TIP3    H241625   6.323   1.483  12.185  1.0121  0.1841  1.5637
 6712TIP3   OH241626   4.450   1.597   0.099 -0.4195 -0.6187  0.3919
 6712TIP3    H141627   4.513   1.591   0.027 -1.1625 -0.8483 -0.2609
 6712TIP3    H241628   4.422   1.688   0.099 -2.5443 -1.1653 -1.5333
 6713TIP3   OH241629   1.568   6.848   5.053  0.3461  0.5448 -0.1433
 6713TIP3    H141630   1.537   6.883   4.969  0.0178 -0.2321 -0.3548
 6713TIP3    H241631   1.562   6.753   5.043 -0.9853  0.4472  1.2390
 6714TIP3   OH241632   1.740   4.680  13.002 -0.4531  0.1431  0.2447
 6714TIP3    H141633   1.812   4.715  12.950 -0.6947  0.8809  0.3881
 6714TIP3    H241634   1.732   4.588  12.975 -0.0215  0.2879 -0.3864
 6715TIP3   OH241635   4.938   2.010  13.457 -0.7251  0.0455  0.2671
 6715TIP3    H141636   5.026   1.993  13.491 -1.1573 -1.2487  0.7634
 6715TIP3    H241637   4.920   1.937  13.397 -1.2360  0.6193 -0.3082
 6716TIP3   OH241638   3.990   4.629   4.622  0.4801  0.3710  0.3679
 6716TIP3    H141639   3.935   4.595   4.552  0.4678  0.5980  0.2677
 6716TIP3    H241640   4.068   4.573   4.621  0.9472  1.0271 -0.5093
 6717TIP3   OH241641   6.630   0.418   2.360  0.1052 -0.1818  0.0231
 6717TIP3    H141642   6.593   0.331   2.349  1.5777 -0.7685 -0.4767
 6717TIP3    H241643   6.631   0.431   2.455 -1.9591  0.1535  0.0547
 6718TIP3   OH241644   6.378   6.056   5.094  0.5539  0.6131 -0.3315
 6718TIP3    H141645   6.473   6.060   5.110  1.1472  1.0089 -3.2914
 6718TIP3    H241646   6.371   6.014   5.008 -1.9693  0.6723 -0.2035
 6719TIP3   OH241647   0.824   6.292  14.985 -0.0658 -0.3792 -0.2457
 6719TIP3    H141648   0.908   6.277  15.028 -0.3370  0.5189  0.6287
 6719TIP3    H241649   0.844   6.350  14.912  0.0370  0.1477  0.1905
 6720TIP3   OH241650   3.930   1.975  12.158  0.1489 -0.2407 -0.0934
 6720TIP3    H141651   3.916   2.064  12.124 -1.9530 -0.8782 -1.0698
 6720TIP3    H241652   3.946   1.922  12.079  0.7669 -0.8447  0.4254
 6721TIP3   OH241653   0.751   5.182  13.621  0.1671  0.3487  0.5864
 6721TIP3    H141654   0.731   5.251  13.685  1.0518  0.2860  0.9408
 6721TIP3    H241655   0.710   5.212  13.540  0.4086  1.2144  0.7791
 6722TIP3   OH241656   2.910   3.894  13.416 -0.7050  0.6337  0.2277
 6722TIP3    H141657   2.992   3.846  13.410 -0.2315  1.5955 -2.6818
 6722TIP3    H241658   2.934   3.977  13.458 -0.5193  0.3073  0.7709
 6723TIP3   OH241659   1.180   1.491   1.768  0.3631 -0.4015 -0.1892
 6723TIP3    H141660   1.194   1.522   1.857  0.7793 -1.2631  0.0541
 6723TIP3    H241661   1.258   1.520   1.720  0.4503 -0.5089 -0.1137
 6724TIP3   OH241662   5.101   5.017  14.273 -0.0101  0.0930  0.1771
 6724TIP3    H141663   5.159   4.940  14.271  0.4066  0.4032  0.1349
 6724TIP3    H241664   5.068   5.019  14.363  1.8898  1.2459  0.9096
 6725TIP3   OH241665   0.884   0.636  14.071 -0.1559 -0.5862  0.1889
 6725TIP3    H141666   0.821   0.695  14.029 -0.1031 -0.0224  0.8858
 6725TIP3    H241667   0.927   0.591  13.998 -2.4189 -2.1532 -0.3101
 6726TIP3   OH241668   2.724   5.407  12.260 -0.6604  0.0190  0.1140
 6726TIP3    H141669   2.736   5.476  12.195 -0.0470 -0.0775  0.1203
 6726TIP3    H241670   2.730   5.452  12.344 -0.1951 -0.0464  0.1193
 6727TIP3   OH241671   2.500   0.011  16.068  0.0935  0.0668 -0.1602
 6727TIP3    H141672   2.559   0.050  16.004 -0.6325  2.1318  0.3346
 6727TIP3    H241673   2.413   0.040  16.041 -0.4535 -0.8726  0.5152
 6728TIP3   OH241674   4.374   3.183  14.294  0.6852 -0.1236 -0.2755
 6728TIP3    H141675   4.440   3.203  14.360  1.7152  0.2171 -1.3739
 6728TIP3    H241676   4.335   3.100  14.323  1.5349 -0.2884  0.4342
 6729TIP3   OH241677   4.341   6.852   4.981  0.5383  0.7487 -0.3962
 6729TIP3    H141678   4.365   6.808   5.062 -1.1028 -0.8340 -0.7156
 6729TIP3    H241679   4.346   6.945   5.002 -2.4728  0.4729  2.4627
 6730TIP3   OH241680   5.892   5.411   4.301  0.0067  0.6192  0.2580
 6730TIP3    H141681   5.925   5.322   4.290  0.8037  0.8518  0.7336
 6730TIP3    H241682   5.832   5.406   4.375  0.8119  0.6737  0.9178
 6731TIP3   OH241683   5.767   0.437   3.777  0.6251  0.1735 -0.3596
 6731TIP3    H141684   5.721   0.376   3.835  0.7300 -0.1952 -0.6613
 6731TIP3    H241685   5.834   0.478   3.832  0.0475  0.5991  0.0444
 6732TIP3   OH241686   1.512   6.701   0.959 -0.8214  0.3311 -0.0749
 6732TIP3    H141687   1.529   6.713   0.865  1.2689  1.8826  0.4284
 6732TIP3    H241688   1.594   6.664   0.993 -1.1773  0.7630  1.3011
 6733TIP3   OH241689   4.976   4.726   9.841 -0.6169 -0.6241 -0.4646
 6733TIP3    H141690   4.895   4.709   9.793 -1.3318 -0.1717  0.5512
 6733TIP3    H241691   5.010   4.807   9.803 -0.5243 -0.9222 -1.0302
 6734TIP3   OH241692   4.960   5.800  13.149  0.0411 -0.8535  0.2778
 6734TIP3    H141693   4.927   5.866  13.210  0.5219 -0.3881  0.0427
 6734TIP3    H241694   4.970   5.846  13.066 -1.4883 -1.7035 -0.4223
 6735TIP3   OH241695   1.194   6.319  15.452  0.4561 -0.1320  0.6846
 6735TIP3    H141696   1.132   6.370  15.400  0.6760 -1.6649 -1.1680
 6735TIP3    H241697   1.182   6.351  15.541 -1.1569  1.3940 -0.0212
 6736TIP3   OH241698   4.103   4.871   0.693 -0.4276  0.5771 -0.3460
 6736TIP3    H141699   4.078   4.780   0.709 -0.5940  0.7813  0.6316
 6736TIP3    H241700   4.026   4.922   0.717  0.0755  1.0467  0.3426
 6737TIP3   OH241701   1.789   3.085  13.958  0.6516  0.2563  0.2872
 6737TIP3    H141702   1.729   3.014  13.981 -3.0376  3.1188  0.4048
 6737TIP3    H241703   1.858   3.081  14.024 -0.1728 -2.2516  1.1222
 6738TIP3   OH241704   4.415   1.772  16.538 -0.3643  0.4544 -0.2416
 6738TIP3    H141705   4.442   1.800  16.451 -0.9915  0.7267 -0.3580
 6738TIP3    H241706   4.343   1.711  16.523 -0.2084  0.1883  0.0734
 6739TIP3   OH241707   6.813   6.176  10.175  0.1759 -0.0510 -0.0451
 6739TIP3    H141708   6.725   6.213  10.177 -0.7137 -1.8675 -1.3717
 6739TIP3    H241709   6.823   6.133  10.259  1.2125  2.9663  1.4977
 6740TIP3   OH241710   6.602   4.721  13.986 -0.4670 -0.1245 -0.0675
 6740TIP3    H141711   6.668   4.751  13.924  0.1284 -0.4953  0.3812
 6740TIP3    H241712   6.562   4.802  14.019  0.1034  0.1239  0.0315
 6741TIP3   OH241713   6.444   3.329   1.887  0.0726 -0.2016  0.2712
 6741TIP3    H141714   6.399   3.245   1.887 -1.3134  0.4921 -0.4757
 6741TIP3    H241715   6.439   3.359   1.796  2.2516 -0.1495  0.1108
 6742TIP3   OH241716   5.902   4.135  11.217 -0.6291 -0.0548  0.4378
 6742TIP3    H141717   5.858   4.209  11.175 -0.9620  0.0442  0.9506
 6742TIP3    H241718   5.840   4.062  11.208  0.2042 -0.6212 -1.1601
 6743TIP3   OH241719   1.696   0.720  11.662 -0.3887  0.3826 -0.2041
 6743TIP3    H141720   1.689   0.632  11.624 -0.7611  0.1746  0.3346
 6743TIP3    H241721   1.622   0.726  11.723  0.3259  0.6101  0.6743
 6744TIP3   OH241722   6.450   1.312  10.494  0.2096  0.6021 -0.0135
 6744TIP3    H141723   6.440   1.394  10.446 -1.7132  0.2860 -0.2495
 6744TIP3    H241724   6.534   1.276  10.465  0.3756  1.7677 -1.0306
 6745TIP3   OH241725   5.751   3.915  15.192 -0.3259  0.4768  0.0859
 6745TIP3    H141726   5.762   3.937  15.099  0.4405 -1.6556 -0.3890
 6745TIP3    H241727   5.656   3.916  15.205 -0.5093 -0.1922 -1.0126
 6746TIP3   OH241728   2.630   5.775   3.819 -0.2099  0.0398 -0.1520
 6746TIP3    H141729   2.542   5.739   3.829 -0.6663  1.2264  0.2932
 6746TIP3    H241730   2.664   5.735   3.739 -1.5588  0.3702 -0.9051
 6747TIP3   OH241731   3.452   6.297   0.462 -0.5579  0.1309 -0.3584
 6747TIP3    H141732   3.376   6.249   0.429  0.5059 -0.9468 -1.3051
 6747TIP3    H241733   3.427   6.323   0.551 -2.2404  0.2919 -0.8429
 6748TIP3   OH241734   6.440   4.485   0.680 -0.4060  0.2683  0.4070
 6748TIP3    H141735   6.484   4.506   0.762  0.5966  0.6073 -0.2074
 6748TIP3    H241736   6.370   4.550   0.673 -0.5749  0.1637  1.0376
 6749TIP3   OH241737   0.037   0.063   5.034 -0.0198 -0.8806 -0.2149
 6749TIP3    H141738   0.043   0.079   4.940 -1.9744 -0.4819 -0.3213
 6749TIP3    H241739   0.093   0.129   5.074 -1.3086  0.7684 -1.0243
 6750TIP3   OH241740   5.281   5.451   4.351  0.8492  0.5856 -0.9608
 6750TIP3    H141741   5.377   5.447   4.344  1.2155  2.0852  1.6528
 6750TIP3    H241742   5.264   5.447   4.445 -1.7537 -0.4859 -1.4004
 6751TIP3   OH241743   5.506   0.225   3.838 -0.2777  0.0175 -0.0548
 6751TIP3    H141744   5.476   0.316   3.832 -2.0809 -0.5928 -0.7239
 6751TIP3    H241745   5.515   0.196   3.748 -0.2793 -0.6553  0.1570
 6752TIP3   OH241746   4.622   5.809  10.778  0.1679 -0.0178 -0.3649
 6752TIP3    H141747   4.652   5.894  10.810  0.4701 -0.9096  1.8964
 6752TIP3    H241748   4.528   5.819  10.766  0.1701  0.5850  0.0870
 6753TIP3   OH241749   1.846   3.232   4.631  0.0437  0.0015 -0.2526
 6753TIP3    H141750   1.808   3.150   4.600  1.1725 -0.5202 -0.3141
 6753TIP3    H241751   1.861   3.218   4.724  1.3898 -0.3481 -0.4993
 6754TIP3   OH241752   1.706   2.824  16.776 -0.0553 -0.7044 -0.3475
 6754TIP3    H141753   1.666   2.739  16.756 -1.3291 -0.4373  0.8895
 6754TIP3    H241754   1.638   2.872  16.823  1.4454  0.0643  1.1733
 6755TIP3   OH241755   5.674   5.247   1.622  0.1663  0.5259 -0.1220
 6755TIP3    H141756   5.703   5.310   1.557 -0.6643  1.3503  0.2833
 6755TIP3    H241757   5.652   5.168   1.571 -0.5515  1.1834 -0.8652
 6756TIP3   OH241758   0.064   0.207  11.334  0.2451 -0.2872 -0.2487
 6756TIP3    H141759   0.121   0.239  11.264 -0.0756 -1.8319 -1.2707
 6756TIP3    H241760   0.113   0.225  11.415  0.3968  2.0062 -0.7645
 6757TIP3   OH241761   1.183   1.832  13.262 -0.5701  0.2113 -0.0740
 6757TIP3    H141762   1.091   1.808  13.272 -0.3245 -0.4877  0.6660
 6757TIP3    H241763   1.227   1.788  13.336  0.2910  0.8534 -0.1920
 6758TIP3   OH241764   0.651   0.218   2.354 -0.4443  0.1016 -0.7741
 6758TIP3    H141765   0.710   0.173   2.294 -0.8402 -0.4220 -0.7727
 6758TIP3    H241766   0.568   0.172   2.346 -0.2419 -0.6117  0.9035
 6759TIP3   OH241767   6.177   2.250  13.224  0.5595  0.3133  0.1206
 6759TIP3    H141768   6.239   2.223  13.156  0.2245 -0.3219  0.0584
 6759TIP3    H241769   6.102   2.286  13.175  0.5771  0.4175  0.1707
 6760TIP3   OH241770   6.797   6.693  13.592 -0.3107 -0.5284 -0.0935
 6760TIP3    H141771   6.850   6.724  13.665 -1.3833 -0.4731  0.6803
 6760TIP3    H241772   6.707   6.714  13.617 -0.6049  0.8894 -2.1079
 6761TIP3   OH241773   0.902   6.589  13.693 -0.4649 -0.0119 -0.1319
 6761TIP3    H141774   0.987   6.632  13.702 -0.3638 -0.0831 -0.7570
 6761TIP3    H241775   0.866   6.589  13.782  1.2305 -2.1688  0.6497
 6762TIP3   OH241776   6.059   3.733  11.465 -0.0499 -0.2924 -0.2294
 6762TIP3    H141777   6.116   3.810  11.460 -0.7530  0.1545 -2.5228
 6762TIP3    H241778   6.033   3.728  11.556  0.5904  1.7697  0.1101
 6763TIP3   OH241779   2.112   4.781   2.152 -0.2022 -0.0451  0.0546
 6763TIP3    H141780   2.197   4.744   2.127  0.4310  0.9250  0.7318
 6763TIP3    H241781   2.125   4.815   2.240 -0.8020  1.5929 -0.4458
 6764TIP3   OH241782   6.475   2.662  16.259  0.1197 -0.0370 -0.2269
 6764TIP3    H141783   6.390   2.622  16.242  0.7633 -2.0565  0.8579
 6764TIP3    H241784   6.478   2.673  16.354  2.0174 -2.6209  0.1531
 6765TIP3   OH241785   6.394   2.058  15.664  0.3588 -0.1666  0.3126
 6765TIP3    H141786   6.447   2.131  15.696 -0.0198  0.3667 -0.2763
 6765TIP3    H241787   6.317   2.098  15.625  1.0331 -0.7527 -1.7475
 6766TIP3   OH241788   6.337   1.859   4.364 -0.2079  0.0093 -0.4143
 6766TIP3    H141789   6.360   1.865   4.457 -0.4426  1.4517 -0.4334
 6766TIP3    H241790   6.419   1.881   4.318  0.0501 -1.2090 -0.5789
 6767TIP3   OH241791   0.927   1.813  16.461  0.1419 -0.0206 -0.6618
 6767TIP3    H141792   0.847   1.859  16.487 -0.2419 -0.9325 -0.1451
 6767TIP3    H241793   0.916   1.797  16.367 -0.2974 -0.1371 -0.5971
 6768TIP3   OH241794   4.188   6.706   4.461 -0.1135  0.5474 -0.2229
 6768TIP3    H141795   4.280   6.725   4.479 -0.1310  0.2413  0.2173
 6768TIP3    H241796   4.155   6.785   4.418 -0.4589  2.0310  2.5012
 6769TIP3   OH241797   6.415   1.871   1.309 -0.1573  0.1116 -0.0137
 6769TIP3    H141798   6.398   1.825   1.391  2.0500 -0.5465  0.1364
 6769TIP3    H241799   6.510   1.866   1.298  0.0124  3.2802 -0.8104
 6770TIP3   OH241800   1.102   6.018  12.506 -0.5220  0.5357 -0.4515
 6770TIP3    H141801   1.172   6.084  12.512 -1.1445  1.2858 -1.2141
 6770TIP3    H241802   1.147   5.934  12.519  0.5181  1.0103 -0.8811
 6771TIP3   OH241803   1.302   0.382   4.276 -0.3029 -0.0685 -0.4579
 6771TIP3    H141804   1.314   0.432   4.357 -1.5892 -1.6064  0.7538
 6771TIP3    H241805   1.207   0.367   4.272 -0.0308 -1.8892 -1.0559
 6772TIP3   OH241806   3.426   4.392   3.668 -0.1447  0.5470 -0.4138
 6772TIP3    H141807   3.450   4.312   3.715 -0.2607  2.0418  2.4132
 6772TIP3    H241808   3.331   4.384   3.654 -0.5711  1.0325  1.8045
 6773TIP3   OH241809   4.873   0.378   3.980 -0.0806 -0.1584  0.0546
 6773TIP3    H141810   4.929   0.301   3.992  2.5537  1.3769 -1.4693
 6773TIP3    H241811   4.837   0.367   3.892  1.6498  1.0411 -0.8697
 6774TIP3   OH241812   6.738   1.810   5.030 -0.2751 -0.1517  0.2826
 6774TIP3    H141813   6.805   1.757   4.987 -0.9111 -1.0573  0.3717
 6774TIP3    H241814   6.786   1.869   5.088  0.4255 -1.0729  0.6506
 6775TIP3   OH241815   6.446   2.108   4.603 -0.0621  0.0388 -0.1608
 6775TIP3    H141816   6.498   2.072   4.531 -0.5110 -2.5736  0.7517
 6775TIP3    H241817   6.509   2.118   4.674  0.0784  1.2691 -0.4279
 6776TIP3   OH241818   3.305   4.043   5.707  0.1365 -1.0950 -0.1341
 6776TIP3    H141819   3.388   4.088   5.723 -1.1483  1.4828 -0.3385
 6776TIP3    H241820   3.238   4.106   5.730 -1.8151 -2.9116 -0.5098
 6777TIP3   OH241821   3.363   6.288  13.779 -0.4611  0.4587  0.1031
 6777TIP3    H141822   3.380   6.286  13.873 -0.3052 -2.0427  0.0900
 6777TIP3    H241823   3.450   6.297  13.739 -0.1261 -1.8380  0.1989
 6778TIP3   OH241824   6.477   5.114   1.956 -0.3395 -0.4226 -0.5677
 6778TIP3    H141825   6.410   5.045   1.956 -1.1509  0.3442 -0.4352
 6778TIP3    H241826   6.477   5.147   2.046 -0.3978  0.1554 -0.7768
 6779TIP3   OH241827   6.465   5.230   2.268  0.1492  0.0432  0.6653
 6779TIP3    H141828   6.554   5.205   2.290  0.8786 -0.3712 -2.3478
 6779TIP3    H241829   6.467   5.326   2.265  0.2767  0.0660  1.2671
 6780TIP3   OH241830   4.879   4.757   0.131  0.2492  0.3098 -0.2032
 6780TIP3    H141831   4.894   4.684   0.070  0.1974  0.3148 -0.2223
 6780TIP3    H241832   4.878   4.835   0.075  1.3306  0.4399 -0.0540
 6781TIP3   OH241833   0.304   1.954  10.720 -0.4048 -1.0712 -0.2000
 6781TIP3    H141834   0.396   1.954  10.747 -0.2817 -1.3437 -0.6130
 6781TIP3    H241835   0.292   2.039  10.677 -0.9206 -0.1050  1.7450
 6782TIP3   OH241836   0.797   2.191   3.508  0.6818  0.6396 -0.3388
 6782TIP3    H141837   0.789   2.285   3.493  1.0873  0.5869 -0.9226
 6782TIP3    H241838   0.706   2.161   3.520  0.6302  1.2666  0.9864
 6783TIP3   OH241839   6.132   6.791  14.267 -0.2257  0.6211  0.2905
 6783TIP3    H141840   6.186   6.865  14.294  1.0047 -0.0643 -0.2043
 6783TIP3    H241841   6.126   6.799  14.172 -0.3268  0.2420  0.2647
 6784TIP3   OH241842   5.749   3.397  16.419 -0.2984  0.4504 -0.0816
 6784TIP3    H141843   5.755   3.310  16.458 -0.6677  0.4239 -0.0847
 6784TIP3    H241844   5.773   3.457  16.490 -1.1735  0.4163  0.2528
 6785TIP3   OH241845   6.390   3.705   0.844 -0.0289 -0.4233 -0.1729
 6785TIP3    H141846   6.382   3.692   0.750 -0.7809  0.8116 -0.3052
 6785TIP3    H241847   6.310   3.751   0.868  0.6574  0.2487  0.8906
 6786TIP3   OH241848   4.493   3.731  13.083  0.0930  0.0491 -0.0330
 6786TIP3    H141849   4.541   3.786  13.145  0.3461 -0.9704  0.6968
 6786TIP3    H241850   4.527   3.642  13.098 -0.5868 -0.3761 -0.9082
 6787TIP3   OH241851   1.074   3.933   4.005 -0.2500  0.0290  0.0317
 6787TIP3    H141852   1.123   3.979   4.073 -0.5435 -1.1187  1.0542
 6787TIP3    H241853   1.031   4.003   3.955  0.6573  0.9317  0.4826
 6788TIP3   OH241854   5.559   4.611   6.006  0.0635  0.1613 -0.0631
 6788TIP3    H141855   5.593   4.524   6.030  0.5863  0.2090 -0.5938
 6788TIP3    H241856   5.632   4.671   6.024  0.9696  0.0460 -2.8141
 6789TIP3   OH241857   0.867   1.203  15.260  0.0345  0.2050  0.6179
 6789TIP3    H141858   0.952   1.247  15.262  0.6132 -0.8750  0.5591
 6789TIP3    H241859   0.881   1.126  15.206 -1.3183  0.6462 -0.4179
 6790TIP3   OH241860   4.647   6.446  15.571 -0.0332 -0.2136 -0.1866
 6790TIP3    H141861   4.649   6.354  15.598 -0.1126 -0.2002 -0.1349
 6790TIP3    H241862   4.710   6.451  15.499 -1.2639 -0.6603 -1.3360
 6791TIP3   OH241863   1.570   3.242   3.970 -0.1431 -0.0550  0.3233
 6791TIP3    H141864   1.592   3.335   3.975 -1.8059  0.3529  0.9597
 6791TIP3    H241865   1.488   3.235   4.020 -0.3267 -1.7641 -0.1752
 6792TIP3   OH241866   0.251   6.116  13.500  0.4179  0.0428 -0.7385
 6792TIP3    H141867   0.325   6.086  13.449  1.4064  1.0760  0.0403
 6792TIP3    H241868   0.251   6.211  13.490 -0.8446  0.0649 -0.7701
 6793TIP3   OH241869   4.729   5.532  11.824 -0.0874 -0.2481 -0.5550
 6793TIP3    H141870   4.745   5.478  11.902  2.0747 -1.5756 -1.8204
 6793TIP3    H241871   4.808   5.586  11.817 -0.3835  0.0620 -1.6572
 6794TIP3   OH241872   5.503   1.855   6.102 -0.0916 -0.2508  0.5128
 6794TIP3    H141873   5.423   1.895   6.068 -0.2983 -1.1046 -0.0409
 6794TIP3    H241874   5.474   1.807   6.180 -0.1427 -0.6239  0.2683
 6795TIP3   OH241875   4.574   0.179  15.703 -0.0578 -0.1624  0.3429
 6795TIP3    H141876   4.641   0.167  15.636  0.7632 -0.8267  1.2504
 6795TIP3    H241877   4.620   0.222  15.775 -0.1725 -2.0381  1.5985
 6796TIP3   OH241878   0.349   4.366  15.953 -0.2886 -0.4169 -0.2197
 6796TIP3    H141879   0.288   4.364  15.880  0.2759  2.9063 -0.9441
 6796TIP3    H241880   0.332   4.450  15.996  2.0263 -0.5440  1.0898
 6797TIP3   OH241881   5.996   0.424  12.089 -0.0585  0.3053  0.2531
 6797TIP3    H141882   5.999   0.508  12.136 -1.9070 -0.3102  1.5642
 6797TIP3    H241883   6.010   0.448  11.998 -1.8117  2.2432  0.4201
 6798TIP3   OH241884   1.923   1.797  13.026 -0.3766  1.2527  0.1381
 6798TIP3    H141885   1.874   1.719  13.000  1.0683  0.2729  0.1969
 6798TIP3    H241886   1.940   1.784  13.120  0.0995  1.5014  0.0896
 6799TIP3   OH241887   4.198   1.968  11.628  0.0041 -0.0483 -0.2355
 6799TIP3    H141888   4.142   1.902  11.589  0.2394  0.0778 -0.7890
 6799TIP3    H241889   4.235   2.015  11.554 -0.9324  1.3580  0.1353
 6800TIP3   OH241890   2.896   1.620  14.237 -0.3541  0.8222  0.2794
 6800TIP3    H141891   2.852   1.564  14.173 -1.3071  1.6262  0.1996
 6800TIP3    H241892   2.986   1.626  14.206 -0.1143 -0.9854  0.5241
 6801TIP3   OH241893   6.193   5.242  11.546  0.6655  0.3011 -0.2718
 6801TIP3    H141894   6.226   5.178  11.609  2.9353  1.4434 -0.1792
 6801TIP3    H241895   6.119   5.199  11.504  0.2999 -1.2266  1.8081
 6802TIP3   OH241896   1.700   4.584  15.856  0.0263  0.4048 -0.6255
 6802TIP3    H141897   1.732   4.638  15.783 -0.4845  0.2778 -0.9473
 6802TIP3    H241898   1.701   4.495  15.821 -0.2247  0.3447 -0.4758
 6803TIP3   OH241899   0.597   0.128   0.192 -0.5382  0.4177  0.2699
 6803TIP3    H141900   0.545   0.111   0.271 -0.5159  0.4085  0.2824
 6803TIP3    H241901   0.625   0.219   0.201 -1.1029  0.6267 -0.0504
 6804TIP3   OH241902   6.599   4.509  12.842  0.2491  0.3923  0.1394
 6804TIP3    H141903   6.581   4.493  12.935  0.4364  4.4537  1.0549
 6804TIP3    H241904   6.520   4.551  12.809 -0.0878 -1.6188 -1.8474
 6805TIP3   OH241905   2.101   6.012   0.400  0.1464 -0.5621 -0.2079
 6805TIP3    H141906   2.026   5.959   0.376  0.1766  0.0192 -1.6994
 6805TIP3    H241907   2.067   6.074   0.465 -0.3873 -1.0019 -0.0629
 6806TIP3   OH241908   5.845   5.377   1.444  0.4513  0.7466 -0.0656
 6806TIP3    H141909   5.916   5.370   1.508  1.4443 -0.1583 -1.2096
 6806TIP3    H241910   5.875   5.326   1.369 -2.3541 -1.6983  0.2424
 6807TIP3   OH241911   1.218   1.274   1.176 -0.3784  0.0046 -0.2740
 6807TIP3    H141912   1.157   1.221   1.227  1.4304  1.7310  4.1346
 6807TIP3    H241913   1.287   1.214   1.151  0.3503 -0.3469  2.3725
 6808TIP3   OH241914   5.871   0.776   2.957 -0.5600  0.2422 -0.5935
 6808TIP3    H141915   5.953   0.748   2.997  0.4571  1.5474 -1.6811
 6808TIP3    H241916   5.827   0.827   3.025 -0.0092  0.3524 -0.3161
 6809TIP3   OH241917   3.656   4.775   5.095  0.3889  0.1745 -0.4021
 6809TIP3    H141918   3.586   4.828   5.056 -1.4068 -0.6434  1.5230
 6809TIP3    H241919   3.636   4.685   5.068  0.5805 -0.0950  0.3264
 6810TIP3   OH241920   5.134   0.372   3.631  0.2940 -0.2774 -0.1803
 6810TIP3    H141921   5.182   0.375   3.714  1.1955  2.0376 -0.7234
 6810TIP3    H241922   5.203   0.373   3.564 -0.4578 -0.3842 -0.9660
 6811TIP3   OH241923   5.450   5.966   5.013 -0.0764 -0.6038  0.0524
 6811TIP3    H141924   5.423   5.921   5.094 -0.4435 -3.0614 -1.3298
 6811TIP3    H241925   5.514   5.907   4.974 -2.8498 -1.6131 -3.4439
 6812TIP3   OH241926   1.943   6.510   0.387  0.2474 -0.1726  0.1897
 6812TIP3    H141927   1.904   6.447   0.447 -0.0991 -1.2272 -1.1128
 6812TIP3    H241928   2.037   6.490   0.389  0.2891  0.0283  0.6067
 6813TIP3   OH241929   4.633   5.666  10.032 -0.6291 -0.1169 -0.1551
 6813TIP3    H141930   4.549   5.621  10.025 -0.7995  0.4316 -3.4922
 6813TIP3    H241931   4.612   5.757  10.011  0.6956  0.1395 -0.4500
 6814TIP3   OH241932   6.486   5.989  12.611  0.0069 -0.2523  0.9087
 6814TIP3    H141933   6.459   6.076  12.640  1.4822  0.7121 -0.4205
 6814TIP3    H241934   6.443   5.978  12.526 -0.8799 -1.2336  1.4594
 6815TIP3   OH241935   3.857   4.379   5.328  0.1314 -0.3153 -0.2425
 6815TIP3    H141936   3.909   4.457   5.308 -0.1728  0.5094  1.8634
 6815TIP3    H241937   3.779   4.387   5.273  0.4716  0.4607 -0.6312
 6816TIP3   OH241938   6.223   5.738   2.135 -0.1116  0.9847  0.1641
 6816TIP3    H141939   6.270   5.803   2.187  1.2846 -0.5776  0.9704
 6816TIP3    H241940   6.235   5.765   2.045  2.0692  0.8667  0.3695
 6817TIP3   OH241941   5.160   0.522  14.706 -0.0797 -0.6694  0.1370
 6817TIP3    H141942   5.221   0.456  14.738 -0.4553 -1.0305  0.1216
 6817TIP3    H241943   5.086   0.517  14.766  0.9231  1.5079  1.6995
 6818TIP3   OH241944   3.383   4.431   2.813 -0.0582  0.0620  0.2928
 6818TIP3    H141945   3.405   4.448   2.905 -0.6959  0.2623  0.4170
 6818TIP3    H241946   3.462   4.391   2.776  0.2893  0.2058  0.8649
 6819TIP3   OH241947   5.875   0.794   2.507  0.6650  0.2974  0.0473
 6819TIP3    H141948   5.869   0.716   2.563 -3.5504 -0.4107 -1.0700
 6819TIP3    H241949   5.926   0.856   2.558  2.4750 -2.4605  1.8591
 6820TIP3   OH241950   5.826   0.720  16.129 -0.2717  0.2244  0.2218
 6820TIP3    H141951   5.898   0.760  16.080  0.0953  1.2682  1.5594
 6820TIP3    H241952   5.866   0.686  16.209 -1.5069  2.8898  2.1497
 6821TIP3   OH241953   2.685   1.814   4.175  0.1377  0.2669  0.3031
 6821TIP3    H141954   2.692   1.884   4.240  1.2286  1.0526 -0.6329
 6821TIP3    H241955   2.751   1.835   4.109 -0.7626 -0.6489 -0.9422
 6822TIP3   OH241956   1.963   1.096   5.896 -0.1355 -0.1728  0.4758
 6822TIP3    H141957   2.020   1.172   5.907 -0.0657 -0.2132  0.3924
 6822TIP3    H241958   2.014   1.023   5.932 -0.8678  0.0890  2.1628
 6823TIP3   OH241959   3.311   2.469  14.402 -0.0647 -0.7019 -0.1189
 6823TIP3    H141960   3.389   2.523  14.384  0.7057 -2.2529 -1.8181
 6823TIP3    H241961   3.244   2.507  14.346 -0.3908  0.2471  0.8760
 6824TIP3   OH241962   6.379   0.870   2.676  0.1978  0.4951 -0.5936
 6824TIP3    H141963   6.324   0.818   2.618  1.1490 -2.0039  0.5832
 6824TIP3    H241964   6.468   0.858   2.641  0.8452 -1.4083  1.5018
 6825TIP3   OH241965   0.403   4.958  12.214 -0.5664  0.5928 -0.7201
 6825TIP3    H141966   0.427   5.006  12.294  0.8625  1.1608 -1.4554
 6825TIP3    H241967   0.439   4.871  12.227 -0.4340  0.6504 -0.7000
 6826TIP3   OH241968   1.396   3.453  12.269  0.0875  0.4038 -0.7213
 6826TIP3    H141969   1.359   3.436  12.182 -0.8491 -1.4313 -0.0311
 6826TIP3    H241970   1.425   3.543  12.265 -1.2413  0.8238 -2.4957
 6827TIP3   OH241971   3.255   0.558   2.698 -0.1777  0.7795  0.1463
 6827TIP3    H141972   3.173   0.534   2.655 -0.4395 -0.2249  1.1543
 6827TIP3    H241973   3.278   0.643   2.661 -0.4762  0.0481 -1.8275
 6828TIP3   OH241974   3.862   0.141   6.458  0.4009 -0.0154  0.2198
 6828TIP3    H141975   3.820   0.064   6.421 -3.9780  0.9957  2.3874
 6828TIP3    H241976   3.833   0.213   6.401  0.6056  0.5170  0.7790
 6829TIP3   OH241977   1.180   0.107  11.901  0.5045  0.1812  0.5335
 6829TIP3    H141978   1.248   0.096  11.835 -0.1273  0.6712 -0.2302
 6829TIP3    H241979   1.216   0.172  11.962 -0.3250  2.7268 -1.4626
 6830TIP3   OH241980   1.323   4.837   3.688 -0.6013 -0.3741  0.5054
 6830TIP3    H141981   1.328   4.848   3.593  1.8448  1.3009  0.7512
 6830TIP3    H241982   1.281   4.917   3.719  1.2502  0.4372  1.0132
 6831TIP3   OH241983   0.957   1.361  16.342 -0.2829 -0.4406  0.0589
 6831TIP3    H141984   0.912   1.430  16.391 -2.0831 -1.0234 -0.7012
 6831TIP3    H241985   0.914   1.280  16.369  0.7104 -1.0962 -0.2690
 6832TIP3   OH241986   5.609   5.131  16.361 -0.5668  0.2714  0.6062
 6832TIP3    H141987   5.626   5.202  16.424  0.2600  1.1252 -0.5291
 6832TIP3    H241988   5.603   5.052  16.415  2.5060  0.5904  1.5967
 6833TIP3   OH241989   0.718   0.088   5.212 -0.4264  0.1555  0.2344
 6833TIP3    H141990   0.716   0.039   5.130 -0.7016 -1.6265  1.2699
 6833TIP3    H241991   0.636   0.067   5.256 -0.3897  1.2689  0.8861
 6834TIP3   OH241992   2.000   4.432  13.753  0.2110  0.0926 -0.1756
 6834TIP3    H141993   2.000   4.370  13.680 -0.3877  1.7719 -1.6585
 6834TIP3    H241994   1.962   4.512  13.718  2.4978  1.9072  1.1659
 6835TIP3   OH241995   5.125   5.183   5.047  0.1263 -0.3160  0.2477
 6835TIP3    H141996   5.051   5.196   5.106 -0.0938 -0.4350 -0.0004
 6835TIP3    H241997   5.096   5.219   4.963  0.1107 -0.9388 -0.0198
 6836TIP3   OH241998   1.666   6.060  14.642 -0.1692 -0.0896 -0.0891
 6836TIP3    H141999   1.663   6.038  14.549  1.1172  0.8478 -0.3860
 6836TIP3    H242000   1.654   5.977  14.687  0.8272 -0.8236 -1.1140
 6837TIP3   OH242001   2.869   0.981   0.856 -0.2698 -0.2313 -0.2593
 6837TIP3    H142002   2.835   1.044   0.793 -0.8381  0.3489  0.6034
 6837TIP3    H242003   2.952   0.952   0.818  0.9672  2.4260  0.1384
 6838TIP3   OH242004   3.724   0.974  16.429  0.2074 -0.4409 -0.0634
 6838TIP3    H142005   3.751   0.946  16.516  0.3076 -0.8776 -0.2323
 6838TIP3    H242006   3.803   1.009  16.389  0.6759 -2.1258 -0.7208
 6839TIP3   OH242007   3.955   1.815  16.552  0.0457 -0.4665  0.0644
 6839TIP3    H142008   3.960   1.733  16.600 -0.5915 -0.5558 -0.0148
 6839TIP3    H242009   4.039   1.857  16.567  0.6124 -1.4065 -0.3944
 6840TIP3   OH242010   6.489   5.991  16.734  0.0653  0.4500 -0.5764
 6840TIP3    H142011   6.424   5.921  16.736  0.0649  0.4318 -1.1030
 6840TIP3    H242012   6.512   5.999  16.642  0.4083  0.8284 -0.4578
 6841TIP3   OH242013   0.248   5.013   4.316  0.0118  0.0685 -0.4481
 6841TIP3    H142014   0.206   5.099   4.307  0.4462  0.3957  0.5509
 6841TIP3    H242015   0.282   5.012   4.405 -0.8621 -1.5571 -0.0928
 6842TIP3   OH242016   5.281   1.054   3.329  0.6035 -0.4131 -0.1209
 6842TIP3    H142017   5.306   1.136   3.371 -1.3358 -0.1402  0.5941
 6842TIP3    H242018   5.287   0.988   3.399  1.7379 -0.8387 -0.5865
 6843TIP3   OH242019   6.146   6.006  13.207 -0.1071  0.3626 -0.0856
 6843TIP3    H142020   6.119   6.022  13.116  2.7540  3.0040 -0.6171
 6843TIP3    H242021   6.118   6.084  13.254  1.6632  0.7088  0.4631
 6844TIP3   OH242022   6.799   5.621  15.846 -0.7489 -0.0228 -0.3991
 6844TIP3    H142023   6.865   5.571  15.797 -0.9919 -0.3382 -0.4069
 6844TIP3    H242024   6.764   5.559  15.909 -1.7907 -0.1796 -1.0984
 6845TIP3   OH242025   0.152   0.156   4.193 -0.0119  0.0006 -0.1028
 6845TIP3    H142026   0.221   0.210   4.155  0.2866 -0.5218 -0.3117
 6845TIP3    H242027   0.077   0.169   4.136 -0.9244  2.5362  1.4857
 6846TIP3   OH242028   3.013   1.880   4.389 -0.4063 -0.3587 -0.2862
 6846TIP3    H142029   3.053   1.810   4.338  0.7473  0.1336 -0.0755
 6846TIP3    H242030   3.073   1.954   4.380 -1.4381  0.5072 -0.2346
 6847TIP3   OH242031   1.425   3.903  10.913  0.2775  0.9025  0.0019
 6847TIP3    H142032   1.358   3.958  10.873  0.7738 -0.6430 -3.3219
 6847TIP3    H242033   1.452   3.843  10.843  2.4771 -1.0180  2.2812
 6848TIP3   OH242034   2.834   5.969   3.997 -0.0307 -0.2353 -0.9261
 6848TIP3    H142035   2.782   5.901   4.039 -0.0488  0.7934  0.8239
 6848TIP3    H242036   2.783   6.049   4.011  1.2811  0.5560 -0.4979
 6849TIP3   OH242037   2.073   1.023   4.949 -0.4995  0.1083  0.3247
 6849TIP3    H142038   1.998   0.974   4.916  0.6031 -1.0342 -0.5540
 6849TIP3    H242039   2.045   1.053   5.036 -1.4590 -1.4675  0.6013
 6850TIP3   OH242040   1.364   5.449   5.601  0.1331  0.7403 -0.3060
 6850TIP3    H142041   1.384   5.366   5.644 -0.9213  0.2982 -0.6492
 6850TIP3    H242042   1.420   5.450   5.523  0.3123  0.4660 -0.1811
 6851TIP3   OH242043   4.969   4.199  12.602 -0.1885  0.0396  0.5543
 6851TIP3    H142044   4.879   4.169  12.590 -0.5673  1.6055 -0.9493
 6851TIP3    H242045   5.010   4.184  12.517  0.0674  2.1498  0.2651
 6852TIP3   OH242046   4.212   5.799   3.610  0.0092  0.6837  0.0190
 6852TIP3    H142047   4.203   5.855   3.687 -2.1449  0.1760  0.1828
 6852TIP3    H242048   4.133   5.745   3.610  2.3114 -3.0860  0.4251
 6853TIP3   OH242049   0.087   5.060   5.842  0.1476  0.1218  0.0707
 6853TIP3    H142050   0.013   5.006   5.869 -0.8127  1.0430 -0.5823
 6853TIP3    H242051   0.083   5.136   5.899 -0.1055  0.6940 -0.6856
 6854TIP3   OH242052   0.857   0.533   1.005  0.3834  0.6692  0.0870
 6854TIP3    H142053   0.900   0.506   1.086  1.0915 -1.3978 -0.8797
 6854TIP3    H242054   0.921   0.512   0.937 -0.9833  0.4179 -1.1549
 6855TIP3   OH242055   5.799   1.414  10.809  0.1242  0.2515  0.0634
 6855TIP3    H142056   5.712   1.425  10.848  0.2128 -0.8847  0.6044
 6855TIP3    H242057   5.796   1.468  10.730 -0.5058  1.5591  0.9407
 6856TIP3   OH242058   5.787   1.286  11.544  0.0855  0.2612 -0.6383
 6856TIP3    H142059   5.755   1.263  11.631  0.0135 -1.9950 -1.1949
 6856TIP3    H242060   5.711   1.276  11.486  0.9932 -2.3791 -1.5344
 6857TIP3   OH242061   3.182   5.224   2.685  0.2376  0.0053  0.5426
 6857TIP3    H142062   3.094   5.261   2.696  0.2442 -0.2594  1.6178
 6857TIP3    H242063   3.181   5.144   2.737  0.9760 -0.2377  0.1949
 6858TIP3   OH242064   1.502   6.790   1.781 -0.2569 -0.0067 -0.4024
 6858TIP3    H142065   1.529   6.705   1.816 -0.0470  0.0928 -0.3210
 6858TIP3    H242066   1.579   6.823   1.735 -0.6838 -0.3714 -1.4193
 6859TIP3   OH242067   5.882   1.382  10.530 -0.1912  0.0448 -0.1089
 6859TIP3    H142068   5.848   1.347  10.612 -1.0056 -0.3802 -0.6164
 6859TIP3    H242069   5.977   1.372  10.536 -0.3890 -2.2685 -0.2458
 6860TIP3   OH242070   1.287   1.758  11.447  0.2664 -0.0358  0.1405
 6860TIP3    H142071   1.272   1.849  11.474 -1.7024  0.4528 -2.2339
 6860TIP3    H242072   1.364   1.764  11.390  0.3898  0.0841  0.3190
 6861TIP3   OH242073   2.444   5.067   2.189  0.1801  0.1237  0.2923
 6861TIP3    H142074   2.396   5.115   2.122  1.1236  0.3693 -0.2322
 6861TIP3    H242075   2.483   5.136   2.244 -1.5030 -0.0663  1.8071
 6862TIP3   OH242076   4.663   0.891   0.067  0.2650  0.2102  0.4318
 6862TIP3    H142077   4.675   0.830   0.140 -0.8449 -1.7338 -0.9142
 6862TIP3    H242078   4.746   0.889   0.020  0.1825 -0.3987  0.3102
 6863TIP3   OH242079   1.867   0.015  11.124 -0.0440 -0.6901 -0.4137
 6863TIP3    H142080   1.875  -0.030  11.040  0.7489 -2.4549  0.5726
 6863TIP3    H242081   1.852   0.107  11.100 -0.0789 -1.1852 -2.4683
 6864TIP3   OH242082   4.361   4.015  13.024  0.5073 -0.2635 -0.2801
 6864TIP3    H142083   4.299   3.941  13.030 -0.1604  0.0732 -2.1623
 6864TIP3    H242084   4.417   3.992  12.950  0.7999  0.7609 -0.3814
 6865TIP3   OH242085   5.974   2.721  12.517  0.4889 -0.1407 -0.3553
 6865TIP3    H142086   5.994   2.708  12.424 -0.6806 -0.7313 -0.5510
 6865TIP3    H242087   5.951   2.634  12.549 -1.7146  0.4359 -0.1982
 6866TIP3   OH242088   4.501   4.973   5.695  0.2240  0.2333  0.4130
 6866TIP3    H142089   4.424   5.030   5.692 -0.1320 -0.1839  1.4164
 6866TIP3    H242090   4.572   5.031   5.722 -0.1398  0.2058  1.4475
 6867TIP3   OH242091   4.336   5.658  16.917 -0.1506  0.0712 -0.0932
 6867TIP3    H142092   4.429   5.643  16.902 -0.0706  0.7296 -0.2959
 6867TIP3    H242093   4.309   5.716  16.846 -1.1759 -1.6336 -1.1805
 6868TIP3   OH242094   3.059   6.261  11.587  0.1840 -0.1243  0.2841
 6868TIP3    H142095   2.988   6.216  11.541 -0.0359 -0.2541  0.7394
 6868TIP3    H242096   3.104   6.312  11.519  0.1549 -0.6747 -0.1523
 6869TIP3   OH242097   5.489   3.709   3.970  0.3910  0.4213  0.0408
 6869TIP3    H142098   5.549   3.696   3.897  1.0702  0.7742  0.5288
 6869TIP3    H242099   5.408   3.740   3.929 -0.6231 -3.0466 -0.9840
 6870TIP3   OH242100   3.276   2.799   3.992 -0.3024  0.1737  0.2579
 6870TIP3    H142101   3.279   2.861   4.065 -0.9991 -2.1723  2.4371
 6870TIP3    H242102   3.368   2.779   3.974 -0.0688 -1.8892  3.0750
 6871TIP3   OH242103   4.330   6.512  15.332  0.0860 -0.0597 -0.1823
 6871TIP3    H142104   4.418   6.494  15.366  0.2102  2.4769  1.0452
 6871TIP3    H242105   4.272   6.459  15.388  0.4599  2.4745  2.8917
 6872TIP3   OH242106   3.390   4.452   0.217 -0.1870  0.3619 -0.2434
 6872TIP3    H142107   3.300   4.435   0.191 -0.5925  1.1749  0.5644
 6872TIP3    H242108   3.425   4.367   0.242 -1.3652  0.3005  1.3372
 6873TIP3   OH242109   0.724   6.174   4.847 -0.3549 -0.0814 -0.5609
 6873TIP3    H142110   0.817   6.189   4.867 -0.2935 -0.3732 -0.6159
 6873TIP3    H242111   0.696   6.255   4.804 -0.2033  0.1232 -0.2799
 6874TIP3   OH242112   0.732   3.544   2.040 -0.5328  0.4446  0.2386
 6874TIP3    H142113   0.738   3.490   2.119 -2.1614  1.7276  1.2878
 6874TIP3    H242114   0.694   3.486   1.975  0.9306 -0.6664  0.3119
 6875TIP3   OH242115   0.941   5.156  16.211  0.1542  0.4074  0.4426
 6875TIP3    H142116   0.882   5.107  16.154  0.7014  0.3753 -0.1016
 6875TIP3    H242117   0.915   5.130  16.299  0.8161 -1.3436  0.1660
 6876TIP3   OH242118   6.740   4.311   2.451 -0.0559  0.2665 -0.4987
 6876TIP3    H142119   6.695   4.340   2.372 -1.0465  0.5198  0.1423
 6876TIP3    H242120   6.672   4.270   2.504  0.7070 -0.4044 -0.0134
 6877TIP3   OH242121   3.755   4.477   4.506 -0.2265 -0.2008 -0.4215
 6877TIP3    H142122   3.676   4.430   4.479 -0.4535 -0.8859  1.3488
 6877TIP3    H242123   3.723   4.551   4.558  0.2984 -1.1203  1.2667
 6878TIP3   OH242124   2.399   5.309   3.735  0.0484  0.2989  0.3291
 6878TIP3    H142125   2.461   5.286   3.666 -0.9013 -3.1111  0.4466
 6878TIP3    H242126   2.323   5.344   3.688 -0.3833 -1.5039 -0.3834
 6879TIP3   OH242127   0.524   3.995   3.424  0.1411 -0.4475  0.0668
 6879TIP3    H142128   0.452   4.030   3.372  0.2203 -0.0020  0.2516
 6879TIP3    H242129   0.557   4.071   3.473  1.7487 -0.2839 -1.1840
 6880TIP3   OH242130   0.198   3.591   4.881  0.5961  0.4872  0.0695
 6880TIP3    H142131   0.242   3.674   4.862  0.0208  1.3456  2.1531
 6880TIP3    H242132   0.124   3.588   4.820  1.3548  0.8547 -0.8948
 6881TIP3   OH242133   4.129   4.872  13.801  0.5667  0.0407  0.5637
 6881TIP3    H142134   4.194   4.805  13.823  0.6569 -0.2011 -0.3794
 6881TIP3    H242135   4.065   4.868  13.872  1.0188 -0.4685  0.9480
 6882TIP3   OH242136   6.536   1.283   3.143 -0.0652  0.2286  0.5703
 6882TIP3    H142137   6.623   1.276   3.182  0.3074  0.0415 -0.2853
 6882TIP3    H242138   6.483   1.219   3.192  0.2007  0.5301  1.2696
 6883TIP3   OH242139   1.854   2.221  16.588 -0.1006 -0.1630  0.2776
 6883TIP3    H142140   1.892   2.194  16.672 -0.1951  2.8997  1.4120
 6883TIP3    H242141   1.766   2.252  16.611 -0.2318  0.4563 -1.0018
 6884TIP3   OH242142   4.966   1.209  14.415 -0.2707 -0.5148  0.2937
 6884TIP3    H142143   5.044   1.254  14.383 -1.2231  0.9109 -0.1315
 6884TIP3    H242144   4.985   1.190  14.507 -0.1253  1.5269  0.7266
 6885TIP3   OH242145   5.245   4.689  11.426  0.4843  0.1254  0.3747
 6885TIP3    H142146   5.164   4.640  11.443  0.9144 -0.7395 -0.0034
 6885TIP3    H242147   5.251   4.694  11.331  0.8900  0.1632  0.4009
 6886TIP3   OH242148   5.696   1.091  12.093 -0.0561 -0.7095  0.5531
 6886TIP3    H142149   5.644   1.016  12.065 -2.2118  0.5370  0.9591
 6886TIP3    H242150   5.725   1.068  12.182 -0.3328 -1.2274  0.5149
 6887TIP3   OH242151   0.184   4.127  11.980 -0.0689 -0.4280  0.3406
 6887TIP3    H142152   0.255   4.161  11.925 -0.1633 -1.3578 -0.3811
 6887TIP3    H242153   0.221   4.048  12.019  0.4909  0.9222  2.7653
 6888TIP3   OH242154   5.086   4.147  14.352 -0.5622 -0.4382  0.0327
 6888TIP3    H142155   5.061   4.239  14.352  2.6992  0.5795  1.4654
 6888TIP3    H242156   5.082   4.121  14.444 -0.4098 -1.4148 -0.2221
 6889TIP3   OH242157   0.824   5.994   0.318  0.4990  0.2399 -0.2558
 6889TIP3    H142158   0.887   5.959   0.380 -0.2818 -0.1896  0.3145
 6889TIP3    H242159   0.837   5.943   0.238  2.9555  2.1846 -1.2103
 6890TIP3   OH242160   4.917   0.038  10.530  0.1548 -0.2971  0.4135
 6890TIP3    H142161   4.834  -0.005  10.552 -0.3312  0.1085 -0.5240
 6890TIP3    H242162   4.891   0.114  10.477  1.0380  0.7452  1.4200
 6891TIP3   OH242163   1.465   6.679   4.313 -0.0904  0.1394  0.3482
 6891TIP3    H142164   1.428   6.724   4.389 -3.1133 -1.4778 -0.0082
 6891TIP3    H242165   1.419   6.717   4.238  1.9626  0.8303 -0.6636
 6892TIP3   OH242166   1.551   6.685   5.702  0.2611  0.4450 -0.0204
 6892TIP3    H142167   1.635   6.721   5.731 -0.5062  1.6606  0.7925
 6892TIP3    H242168   1.492   6.699   5.776 -0.7716  0.0266 -0.7422
 6893TIP3   OH242169   3.763   0.255  11.634 -0.3989  0.1101  0.5188
 6893TIP3    H142170   3.756   0.198  11.557 -0.0452  0.0340  0.5412
 6893TIP3    H242171   3.724   0.205  11.705 -3.1504  1.1833 -0.1084
 6894TIP3   OH242172   2.467   1.130   2.740 -0.0634  0.0983 -0.0230
 6894TIP3    H142173   2.392   1.165   2.788  0.1783  0.1015  0.3524
 6894TIP3    H242174   2.511   1.208   2.704  1.1019  0.3025  1.7228
 6895TIP3   OH242175   3.620   4.056   5.638 -0.0635  0.0341 -0.0309
 6895TIP3    H142176   3.609   3.988   5.705  0.3720  1.0343  1.0945
 6895TIP3    H242177   3.712   4.082   5.646  0.9199 -1.9603 -3.1507
 6896TIP3   OH242178   6.327   2.650   4.178  0.2541 -0.9463 -0.0085
 6896TIP3    H142179   6.354   2.577   4.234 -0.6699 -0.7274  0.7496
 6896TIP3    H242180   6.233   2.661   4.197  0.0191 -0.5849 -1.2843
 6897TIP3   OH242181   2.229   3.041  13.844  0.6444 -0.4844 -0.6407
 6897TIP3    H142182   2.188   3.094  13.776  0.2355 -0.3563 -0.3009
 6897TIP3    H242183   2.287   2.982  13.797 -1.9270 -2.5782 -1.4282
 6898TIP3   OH242184   0.753   3.091  16.614 -0.3854 -0.1899 -0.3054
 6898TIP3    H142185   0.780   3.009  16.656 -0.6026 -0.1624 -0.1086
 6898TIP3    H242186   0.666   3.109  16.651 -0.3594  0.1008 -0.3856
 6899TIP3   OH242187   2.451   2.402  13.823 -0.4331  0.0053 -0.1509
 6899TIP3    H142188   2.413   2.490  13.823  0.0755  0.2674  1.8553
 6899TIP3    H242189   2.543   2.416  13.800 -1.0064 -0.4302 -3.1423
 6900TIP3   OH242190   4.242   0.638   3.798 -0.3969  0.0636 -0.3140
 6900TIP3    H142191   4.203   0.571   3.853  0.4295 -0.0908  0.1078
 6900TIP3    H242192   4.265   0.592   3.717 -0.0880 -0.1013 -0.1343
 6901TIP3   OH242193   5.577   0.016  12.305 -0.0988 -0.0057 -0.2871
 6901TIP3    H142194   5.649   0.057  12.257  0.3037  0.1427  0.4335
 6901TIP3    H242195   5.498   0.057  12.270  0.0752 -0.8842 -1.8010
 6902TIP3   OH242196   3.581   3.244   2.845  0.8939  0.3944 -0.5674
 6902TIP3    H142197   3.631   3.192   2.908 -0.3408  0.8302  0.8500
 6902TIP3    H242198   3.605   3.335   2.864  0.8699  0.5044 -1.0499
 6903TIP3   OH242199   4.044   1.898   0.272  0.6295  0.0014 -0.8089
 6903TIP3    H142200   4.025   1.827   0.333  2.8720  0.2058  0.2209
 6903TIP3    H242201   4.018   1.863   0.186  0.9616 -1.7575 -0.2227
 6904TIP3   OH242202   1.726   2.123   3.612  0.1652  0.8411 -0.0376
 6904TIP3    H142203   1.719   2.147   3.519 -0.8578  3.2594  0.5724
 6904TIP3    H242204   1.810   2.079   3.619 -0.3610 -0.7616 -2.3432
 6905TIP3   OH242205   3.054   5.346  13.943 -0.2310 -0.0815 -0.6015
 6905TIP3    H142206   2.986   5.291  13.983 -1.3256 -0.1159 -2.4008
 6905TIP3    H242207   3.020   5.367  13.856  2.1093 -0.1655 -1.6192
 6906TIP3   OH242208   5.476   1.650  11.190 -0.0744  0.4641 -0.4072
 6906TIP3    H142209   5.436   1.678  11.272 -0.9775 -2.2224  0.1741
 6906TIP3    H242210   5.566   1.630  11.212  0.6948  3.0036 -0.9118
 6907TIP3   OH242211   1.584   4.066  14.707 -0.8067 -0.3462  0.2656
 6907TIP3    H142212   1.573   4.062  14.612 -1.6741  0.2645  0.3245
 6907TIP3    H242213   1.677   4.086  14.720 -1.2003  2.5702 -0.5828
 6908TIP3   OH242214   1.484   4.271  12.179  0.3866 -0.0276 -0.1461
 6908TIP3    H142215   1.542   4.283  12.104  0.5888  2.4197  0.3073
 6908TIP3    H242216   1.537   4.299  12.254 -0.9735  1.0649  0.4347
 6909TIP3   OH242217   0.227   0.411  15.854 -0.4805 -0.2171  0.1548
 6909TIP3    H142218   0.133   0.425  15.841 -0.0404  1.9146 -1.2032
 6909TIP3    H242219   0.255   0.366  15.774  0.1210  1.9259 -0.9202
 6910TIP3   OH242220   2.647   2.446   1.782  0.1621  0.3039 -0.0184
 6910TIP3    H142221   2.574   2.466   1.723 -0.1661 -0.3839  0.1431
 6910TIP3    H242222   2.622   2.487   1.865 -0.2137 -0.2244  0.1358
 6911TIP3   OH242223   5.543   5.967   2.012 -0.1004 -0.2672  0.0515
 6911TIP3    H142224   5.546   5.889   1.956  1.4493 -1.0971  1.2175
 6911TIP3    H242225   5.493   5.939   2.089  0.1431  0.0118  0.3126
 6912TIP3   OH242226   2.354   0.083   3.259  0.4792 -1.2731  0.5228
 6912TIP3    H142227   2.356  -0.012   3.261  0.9474 -1.2987 -0.5339
 6912TIP3    H242228   2.446   0.109   3.251  0.2930 -0.7624 -0.0617
 6913TIP3   OH242229   0.698   1.466   0.214  0.2503 -0.2823 -0.2271
 6913TIP3    H142230   0.765   1.449   0.149 -1.8504  0.5008 -2.7762
 6913TIP3    H242231   0.643   1.388   0.214  0.6896 -0.6332  1.3071
 6914TIP3   OH242232   2.958   2.570  10.794  0.0275  0.4276  0.0736
 6914TIP3    H142233   2.991   2.548  10.708 -0.1535  1.4071 -0.2657
 6914TIP3    H242234   3.018   2.637  10.827 -0.7279  1.1273  0.0789
 6915TIP3   OH242235   4.974   2.039  15.294 -0.1633 -0.0960  0.0524
 6915TIP3    H142236   4.951   1.953  15.330  0.5268 -0.1385  0.4184
 6915TIP3    H242237   4.924   2.101  15.347 -0.8784 -0.2818 -0.3960
 6916TIP3   OH242238   1.939   3.402   2.351  0.0455 -0.5053 -0.3157
 6916TIP3    H142239   1.876   3.400   2.423  0.1024 -1.7867 -0.2716
 6916TIP3    H242240   1.886   3.395   2.272  0.0743 -0.7458 -0.3155
 6917TIP3   OH242241   0.931   3.331   1.155 -0.8981  0.0586 -0.3607
 6917TIP3    H142242   1.017   3.321   1.196 -1.5040 -2.0183  0.5332
 6917TIP3    H242243   0.937   3.413   1.107  1.6985 -0.1861 -0.6052
 6918TIP3   OH242244   1.095   6.070  11.045  0.6938 -0.0974 -0.0937
 6918TIP3    H142245   1.154   6.031  10.980  1.2030  0.3093  0.1242
 6918TIP3    H242246   1.060   5.995  11.093 -0.8158 -0.5490 -1.7524
 6919TIP3   OH242247   6.525   0.608  11.426 -0.2936  0.3572 -0.4084
 6919TIP3    H142248   6.606   0.658  11.440  1.1396 -1.8221 -0.3791
 6919TIP3    H242249   6.514   0.558  11.507 -1.8961  0.8744 -0.2793
 6920TIP3   OH242250   5.737   6.692   2.510  0.2363  0.4783 -0.1296
 6920TIP3    H142251   5.706   6.780   2.487  0.1973  0.1106 -1.5426
 6920TIP3    H242252   5.829   6.692   2.484  0.2139  0.0723 -0.2034
 6921TIP3   OH242253   5.629   0.236  14.803 -0.4627  0.1534  0.2037
 6921TIP3    H142254   5.630   0.183  14.883  0.1855 -2.0655 -1.1577
 6921TIP3    H242255   5.599   0.175  14.735  0.8366  1.4075 -1.5822
 6922TIP3   OH242256   0.307   2.712   0.270 -0.4204 -0.2681  0.0075
 6922TIP3    H142257   0.312   2.725   0.365  1.2597  0.2992 -0.1276
 6922TIP3    H242258   0.394   2.680   0.246 -0.2277  1.3237 -1.5886
 6923TIP3   OH242259   4.531   6.279   5.714 -0.2392 -0.0424 -0.3030
 6923TIP3    H142260   4.622   6.269   5.743 -0.0284 -0.1367 -0.9894
 6923TIP3    H242261   4.479   6.244   5.787  0.2822 -0.2633 -0.0319
 6924TIP3   OH242262   1.462   5.005  13.028 -0.8354  0.2805  0.1745
 6924TIP3    H142263   1.463   5.072  12.960 -2.4819 -0.0219 -0.1787
 6924TIP3    H242264   1.476   4.922  12.981  1.4913  0.3285  0.6401
 6925TIP3   OH242265   3.017   1.484  15.661 -0.1293  0.0601 -0.3169
 6925TIP3    H142266   3.058   1.568  15.683 -1.0198  1.0329 -2.1537
 6925TIP3    H242267   2.924   1.498  15.680 -0.2573 -0.5918 -0.4577
 6926TIP3   OH242268   0.902   4.939   2.057 -0.1217 -0.0913 -0.4486
 6926TIP3    H142269   0.819   4.897   2.079 -0.2496  1.3090  2.2923
 6926TIP3    H242270   0.878   5.029   2.035  0.6886  0.8729  2.2188
 6927TIP3   OH242271   2.061   4.224  13.166 -0.1179 -0.2695  0.3557
 6927TIP3    H142272   2.065   4.319  13.152 -0.4281 -0.5905 -2.4880
 6927TIP3    H242273   1.975   4.209  13.204 -2.9152  0.1843 -4.9468
 6928TIP3   OH242274   2.538   1.635  13.886 -0.0835  0.5629 -0.0380
 6928TIP3    H142275   2.500   1.570  13.827  1.1562 -0.2094 -0.0016
 6928TIP3    H242276   2.612   1.671  13.837  0.3522  0.6254  0.6570
 6929TIP3   OH242277   2.831   3.674  14.655  0.1261 -0.1961  0.3176
 6929TIP3    H142278   2.776   3.596  14.665 -0.9559  0.1263 -2.1292
 6929TIP3    H242279   2.849   3.677  14.561  1.6500  1.5352  0.6206
 6930TIP3   OH242280   4.431   1.113  16.680  0.4218  0.2079 -0.2125
 6930TIP3    H142281   4.474   1.169  16.615  1.1297  1.5897  1.3656
 6930TIP3    H242282   4.504   1.075  16.730 -0.0135 -2.5216 -1.4585
 6931TIP3   OH242283   1.711   1.592  14.191  0.1517  0.3561  0.5915
 6931TIP3    H142284   1.797   1.631  14.202 -0.4887  2.4391 -1.0169
 6931TIP3    H242285   1.656   1.663  14.158 -1.9678 -1.1227  0.6754
 6932TIP3   OH242286   4.124   6.077  13.983  0.6641  0.0989  0.4149
 6932TIP3    H142287   4.152   6.122  14.063  0.2397 -0.5421  0.9333
 6932TIP3    H242288   4.181   6.112  13.914  0.8525  0.8557  0.9477
 6933TIP3   OH242289   0.178   2.080  15.167  0.5184 -0.1609  0.3686
 6933TIP3    H142290   0.129   2.146  15.216  0.7303 -0.2382  0.6907
 6933TIP3    H242291   0.148   1.997  15.202 -1.9771 -0.4329 -2.0879
 6934TIP3   OH242292   3.367   3.901  16.067  0.2432 -0.8508  0.2737
 6934TIP3    H142293   3.385   3.995  16.057 -0.3412 -0.7634 -0.0007
 6934TIP3    H242294   3.397   3.862  15.985 -0.7960 -0.7025 -0.1916
 6935TIP3   OH242295   4.489   0.798   2.658 -0.6093  0.0277 -0.2205
 6935TIP3    H142296   4.501   0.808   2.753  0.2660  0.7071 -0.3884
 6935TIP3    H242297   4.416   0.855   2.637 -1.0716 -0.4355  0.0995
 6936TIP3   OH242298   1.975   3.828   5.877 -0.4715  0.1387  0.8087
 6936TIP3    H142299   1.894   3.785   5.904 -0.8268 -0.7234 -1.3551
 6936TIP3    H242300   2.030   3.757   5.843 -0.1605  1.0693 -0.7871
 6937TIP3   OH242301   6.042   4.494  11.257  0.1663 -0.2574 -0.0514
 6937TIP3    H142302   5.981   4.455  11.195  0.6951 -1.7345  0.3204
 6937TIP3    H242303   6.122   4.508  11.207  0.1154 -0.0446 -0.0748
 6938TIP3   OH242304   0.771   5.129  15.753  0.3217 -0.2991  0.3385
 6938TIP3    H142305   0.700   5.185  15.721  0.1902 -1.0562 -0.7301
 6938TIP3    H242306   0.765   5.049  15.700  2.6473  0.0349 -0.5607
 6939TIP3   OH242307   2.394   3.517  15.249 -0.0143  0.4485 -0.1731
 6939TIP3    H142308   2.362   3.605  15.230  1.0912  0.8488 -0.2460
 6939TIP3    H242309   2.318   3.461  15.234 -1.2588  1.5443  1.6300
 6940TIP3   OH242310   2.400   4.227   1.920 -0.1421 -0.1603 -0.0249
 6940TIP3    H142311   2.411   4.167   1.847  3.3899  1.5249 -1.1271
 6940TIP3    H242312   2.327   4.284   1.894  0.6826  0.0619 -2.0544
 6941TIP3   OH242313   1.972   1.580   5.994 -0.2751  0.1446 -0.4489
 6941TIP3    H142314   1.959   1.508   5.932 -0.4762  0.7495 -1.1117
 6941TIP3    H242315   2.003   1.653   5.941  2.9691 -0.2874  0.5906
 6942TIP3   OH242316   0.352   1.376   5.207 -0.1724  0.1200  0.7462
 6942TIP3    H142317   0.260   1.393   5.188  0.3427  1.7753 -0.4945
 6942TIP3    H242318   0.371   1.432   5.282 -0.0866  0.0261  0.7948
 6943TIP3   OH242319   0.539   6.048  11.504  0.1364  0.0513 -0.7629
 6943TIP3    H142320   0.629   6.079  11.499  0.5953 -1.0279  0.3096
 6943TIP3    H242321   0.486   6.128  11.509  1.2034  0.7038  1.0389
 6944TIP3   OH242322   4.323   2.800   0.979 -0.0085 -0.3990  0.1742
 6944TIP3    H142323   4.372   2.719   0.967  1.3482  0.6506 -2.0183
 6944TIP3    H242324   4.245   2.790   0.924  0.3107 -0.1161 -0.3359
 6945TIP3   OH242325   0.118   3.150   2.238  0.3715 -0.0215  0.0706
 6945TIP3    H142326   0.163   3.150   2.322 -0.4531  0.2441  0.5239
 6945TIP3    H242327   0.188   3.164   2.174  0.8711  0.9684  0.7925
 6946TIP3   OH242328   0.641   6.669  15.863  0.1320  0.5270  0.4995
 6946TIP3    H142329   0.610   6.596  15.810 -0.1850  0.0746  1.2992
 6946TIP3    H242330   0.595   6.660  15.947  1.2327  0.7566  1.1474
 6947TIP3   OH242331   6.453   4.920  15.382 -0.9620  0.1054 -0.5950
 6947TIP3    H142332   6.384   4.985  15.395 -1.7718 -1.0198  0.9222
 6947TIP3    H242333   6.504   4.923  15.462  1.1079  1.2318 -1.8479
 6948TIP3   OH242334   4.408   0.204  16.631  0.1037  0.0647  0.2752
 6948TIP3    H142335   4.375   0.156  16.555  0.3544  1.3714 -0.7101
 6948TIP3    H242336   4.330   0.242  16.672  0.1541  1.5912 -0.9486
 6949TIP3   OH242337   2.180   0.107   3.685  0.4953 -0.0546  0.3344
 6949TIP3    H142338   2.176   0.143   3.597 -0.3500 -1.4201 -0.2095
 6949TIP3    H242339   2.273   0.085   3.698  0.7676  0.9118  0.1372
 6950TIP3   OH242340   3.168   0.988  16.118  0.3239 -0.1099 -0.0070
 6950TIP3    H142341   3.178   0.923  16.188  1.9455  1.0879  0.9589
 6950TIP3    H242342   3.118   1.059  16.158  2.0307  0.9875  0.2997
 6951TIP3   OH242343   3.564   3.959   4.784  0.0049  0.4268  0.3573
 6951TIP3    H142344   3.511   3.911   4.721 -0.8734  2.6454 -0.7130
 6951TIP3    H242345   3.582   4.043   4.741 -0.0188  1.7483  2.7691
 6952TIP3   OH242346   3.955   2.199  15.597 -0.3673  0.5913 -0.3617
 6952TIP3    H142347   3.878   2.208  15.652 -2.1948 -1.1420 -2.4422
 6952TIP3    H242348   3.935   2.250  15.518  0.8443  0.5408 -0.7357
 6953TIP3   OH242349   0.632   2.856  15.808  0.3763  0.7274 -0.5173
 6953TIP3    H142350   0.630   2.899  15.894 -1.4336  0.1560 -0.2359
 6953TIP3    H242351   0.662   2.924  15.748  0.7075  1.4266  0.4107
 6954TIP3   OH242352   5.336   1.174   4.096  0.5303 -0.5332 -0.1464
 6954TIP3    H142353   5.244   1.163   4.073  0.8307 -1.8780 -0.7661
 6954TIP3    H242354   5.382   1.179   4.012  1.1063 -0.5465  0.1580
 6955TIP3   OH242355   2.850   3.326   3.818  0.2325  0.4674 -0.2939
 6955TIP3    H142356   2.840   3.232   3.805 -2.3008  0.2719  2.1797
 6955TIP3    H242357   2.778   3.366   3.769 -0.3190  0.8617  0.7943
 6956TIP3   OH242358   4.917   2.083  10.793  0.1405  0.4322 -0.2147
 6956TIP3    H142359   4.879   2.094  10.706 -2.3295 -1.1057  0.5724
 6956TIP3    H242360   5.012   2.090  10.778  0.0240 -2.3118 -3.4732
 6957TIP3   OH242361   0.179   3.934   1.019 -0.0931 -0.1484 -0.0483
 6957TIP3    H142362   0.209   4.025   1.021 -0.7725  0.1018 -0.8221
 6957TIP3    H242363   0.259   3.883   1.004  0.5975  0.1334  2.2170
 6958TIP3   OH242364   2.233   1.921   5.015  0.3178 -0.0809  0.0990
 6958TIP3    H142365   2.204   1.847   4.962  0.0319  0.2228 -0.1726
 6958TIP3    H242366   2.179   1.917   5.094 -0.0638  0.1427 -0.1484
 6959TIP3   OH242367   1.212   4.273   1.493  0.3069  0.6745 -0.0618
 6959TIP3    H142368   1.175   4.325   1.564  2.5706  1.0651  0.8829
 6959TIP3    H242369   1.265   4.206   1.536  0.1508 -0.3372 -1.3592
 6960TIP3   OH242370   4.899   2.554  11.242 -0.0319  0.1398 -0.3259
 6960TIP3    H142371   4.835   2.595  11.300 -0.4071 -0.6600 -0.1624
 6960TIP3    H242372   4.894   2.461  11.263 -1.3840 -0.4168 -2.8212
 6961TIP3   OH242373   6.344   1.964  16.041  0.1013 -0.3069  0.3555
 6961TIP3    H142374   6.381   2.026  15.979  0.3986 -0.0428  0.7890
 6961TIP3    H242375   6.334   1.883  15.991  0.0660 -0.0147 -0.1105
 6962TIP3   OH242376   5.439   4.051  11.883 -0.0275 -0.6276 -0.3379
 6962TIP3    H142377   5.364   4.070  11.827 -2.9613 -3.4467  2.2032
 6962TIP3    H242378   5.479   3.973  11.846  2.0722  1.0174 -1.8462
 6963TIP3   OH242379   2.749   0.401   4.433 -0.4228  0.2835  0.1079
 6963TIP3    H142380   2.767   0.437   4.346  2.0812 -0.0328  0.4301
 6963TIP3    H242381   2.749   0.477   4.491  4.7688  0.1182  0.7752
 6964TIP3   OH242382   6.377   0.787   3.689 -0.5128  0.4873 -0.4505
 6964TIP3    H142383   6.383   0.778   3.784  1.7130 -1.5228 -0.6859
 6964TIP3    H242384   6.289   0.757   3.667 -1.5723  2.3128  1.0311
 6965TIP3   OH242385   3.744   3.759   4.803  0.1283 -0.1061  0.2544
 6965TIP3    H142386   3.690   3.836   4.785  0.1372 -0.0944  0.2765
 6965TIP3    H242387   3.738   3.706   4.723 -1.8173 -1.2440  1.0723
 6966TIP3   OH242388   3.078   2.391  15.492 -0.0750  0.1480  0.0476
 6966TIP3    H142389   3.141   2.462  15.500  0.0486  0.0872 -0.3952
 6966TIP3    H242390   3.053   2.371  15.583 -0.6948  1.2679  0.1401
 6967TIP3   OH242391   3.907   2.807  12.227 -0.1926  0.3799 -0.2917
 6967TIP3    H142392   3.995   2.802  12.190 -0.4183  1.2341 -0.9712
 6967TIP3    H242393   3.848   2.796  12.152 -0.6585  0.9354 -0.0168
 6968TIP3   OH242394   4.772   0.861   0.947  0.2242  0.2061 -0.9053
 6968TIP3    H142395   4.797   0.864   0.854  0.1136 -0.8004 -0.9779
 6968TIP3    H242396   4.746   0.951   0.967  0.1580  0.4208 -1.8770
 6969TIP3   OH242397   0.169   1.754  12.323  0.4173 -0.3465 -0.6306
 6969TIP3    H142398   0.258   1.780  12.350  0.4393  0.3080 -1.3342
 6969TIP3    H242399   0.121   1.836  12.315 -0.5874 -0.7510  0.8356
 6970TIP3   OH242400   2.602   0.937   5.877  0.2387  0.3293  0.4069
 6970TIP3    H142401   2.676   0.995   5.899 -0.3874  1.4687 -0.3656
 6970TIP3    H242402   2.526   0.978   5.918 -0.2520  0.1777 -0.3236
 6971TIP3   OH242403   5.603   2.594  11.089 -0.4596 -0.1313  0.3693
 6971TIP3    H142404   5.582   2.558  11.176 -1.4680 -0.1647  0.1237
 6971TIP3    H242405   5.549   2.544  11.029  0.7519 -0.5802 -0.3807
 6972TIP3   OH242406   4.469   5.753   3.076  0.4585  0.4727  0.4043
 6972TIP3    H142407   4.396   5.766   3.137  0.6580 -1.0847  1.0219
 6972TIP3    H242408   4.527   5.827   3.091 -0.2468  0.9209  0.9890
 6973TIP3   OH242409   6.800   1.085   0.935  0.1184  0.1062 -0.3355
 6973TIP3    H142410   6.714   1.045   0.946 -0.1794  0.7862 -0.1193
 6973TIP3    H242411   6.818   1.080   0.841  0.8967 -2.1471 -0.1253
 6974TIP3   OH242412   5.197   1.105  12.708 -0.4961  0.4469  0.7932
 6974TIP3    H142413   5.284   1.107  12.749 -0.2423  2.0027  0.2591
 6974TIP3    H242414   5.144   1.051  12.766  1.0051 -1.1527  0.7462
 6975TIP3   OH242415   4.648   4.607  11.409  0.1010  0.1343  0.9670
 6975TIP3    H142416   4.686   4.620  11.496  0.8961  0.8016  0.5354
 6975TIP3    H242417   4.723   4.591  11.352 -0.4846 -1.4347  0.5759
 6976TIP3   OH242418   5.689   0.423   2.510  0.3723 -0.5897  0.1466
 6976TIP3    H142419   5.752   0.393   2.443  0.8803 -0.7208  0.6737
 6976TIP3    H242420   5.618   0.462   2.460 -0.5842 -3.1100 -0.6416
 6977TIP3   OH242421   2.255   4.626   6.112  0.1591 -0.9680  0.0979
 6977TIP3    H142422   2.197   4.551   6.099 -0.5833 -0.4663  0.4378
 6977TIP3    H242423   2.195   4.700   6.126  0.8787 -0.4910  0.7295
 6978TIP3   OH242424   0.521   1.267  14.570 -0.0320 -0.1979 -0.2121
 6978TIP3    H142425   0.440   1.308  14.539 -0.6515 -0.7506  0.6412
 6978TIP3    H242426   0.513   1.267  14.665  0.4509 -1.3016 -0.1613
 6979TIP3   OH242427   5.987   4.418   4.749 -0.0266 -0.1630  0.4942
 6979TIP3    H142428   5.939   4.338   4.773 -0.9960  0.3245  0.2466
 6979TIP3    H242429   6.038   4.439   4.826 -0.8211 -0.2722  1.0646
 6980TIP3   OH242430   6.113   5.348   1.549  0.0358  0.2362 -0.1315
 6980TIP3    H142431   6.167   5.319   1.475  0.1784  1.0840 -0.3726
 6980TIP3    H242432   6.132   5.285   1.618  0.1324 -0.3914 -0.7169
 6981TIP3   OH242433   4.689   2.641  16.962  0.2153 -0.3411  0.4155
 6981TIP3    H142434   4.642   2.561  16.987  0.2570 -0.1535  1.1159
 6981TIP3    H242435   4.761   2.610  16.907 -0.7452 -0.6245 -0.7384
 6982TIP3   OH242436   0.346   4.029   2.606 -0.2645  0.3643 -0.5362
 6982TIP3    H142437   0.428   3.991   2.576  0.2844 -1.8090  3.1635
 6982TIP3    H242438   0.371   4.115   2.641 -0.3094  1.2895 -2.5994
 6983TIP3   OH242439   6.051   5.392   4.940 -0.3757  0.0997  0.0451
 6983TIP3    H142440   6.006   5.370   5.021  0.5093  1.6895  1.0166
 6983TIP3    H242441   6.130   5.439   4.967 -0.4412  1.3715 -1.7377
 6984TIP3   OH242442   4.679   3.497  15.037  0.2703  0.3052 -0.5054
 6984TIP3    H142443   4.691   3.529  14.947 -1.2309 -1.4652 -1.4174
 6984TIP3    H242444   4.707   3.405  15.033  0.7973  0.3693  1.0231
 6985TIP3   OH242445   2.579   5.109  13.882  0.2771  0.2526 -0.2738
 6985TIP3    H142446   2.536   5.188  13.913  1.3046  0.6054  0.2970
 6985TIP3    H242447   2.557   5.042  13.947  1.4513  0.6979  0.6043
 6986TIP3   OH242448   3.723   5.662   0.054 -0.3874 -0.1171  0.1085
 6986TIP3    H142449   3.686   5.652   0.142  1.2804 -0.9986  0.7616
 6986TIP3    H242450   3.704   5.752   0.029 -0.7341  0.1959  1.4558
 6987TIP3   OH242451   1.731   5.343  10.358 -0.4704 -0.2552 -0.4232
 6987TIP3    H142452   1.789   5.410  10.322  0.4512  0.0348  1.4555
 6987TIP3    H242453   1.715   5.283  10.285  0.1200  1.0333 -1.6697
 6988TIP3   OH242454   5.100   2.354  11.988  0.3048  0.3104 -0.7115
 6988TIP3    H142455   5.026   2.295  11.974 -0.7296  0.8655  1.8697
 6988TIP3    H242456   5.061   2.441  11.993  0.8964  0.4927  1.8626
 6989TIP3   OH242457   2.424   1.003   1.939 -0.4062 -0.3180  0.2275
 6989TIP3    H142458   2.416   0.994   1.844 -1.5744  0.1027  0.2761
 6989TIP3    H242459   2.507   0.960   1.960 -1.1647 -2.3528 -0.7114
 6990TIP3   OH242460   1.268   1.734   2.518  0.3151 -0.4163  0.3893
 6990TIP3    H142461   1.268   1.638   2.522  1.5721 -0.4645 -0.0682
 6990TIP3    H242462   1.353   1.759   2.555  0.0978  0.5038  0.2922
 6991TIP3   OH242463   0.417   5.369  12.034 -0.2995  0.0227 -0.3324
 6991TIP3    H142464   0.414   5.446  11.978 -1.6705  0.6406  0.5483
 6991TIP3    H242465   0.347   5.382  12.097  0.9397 -0.8425  1.3038
 6992TIP3   OH242466   6.192   2.300  14.294  0.3032 -0.1112 -0.3953
 6992TIP3    H142467   6.212   2.393  14.302 -0.3096  0.2001 -2.0907
 6992TIP3    H242468   6.098   2.296  14.280  0.5422 -0.8192 -2.0645
 6993TIP3   OH242469   4.199   4.590  11.878  0.3163  0.4676 -0.4665
 6993TIP3    H142470   4.247   4.667  11.910  1.6637 -0.0094 -1.2802
 6993TIP3    H242471   4.113   4.597  11.920  0.6499  2.0317  0.0395
 6994TIP3   OH242472   4.501   3.231  13.270 -0.2551 -0.1486  0.1299
 6994TIP3    H142473   4.490   3.139  13.250 -0.0257 -0.3122  0.7453
 6994TIP3    H242474   4.552   3.265  13.196 -1.9076 -0.0941 -1.0389
 6995TIP3   OH242475   5.008   2.449   0.719 -0.1562  0.0505 -0.6464
 6995TIP3    H142476   5.063   2.393   0.663  0.4276  0.3679 -0.4003
 6995TIP3    H242477   5.067   2.518   0.749 -0.3892 -0.2668  0.5892
 6996TIP3   OH242478   5.766   4.418  12.954 -0.2486  0.2009  0.5738
 6996TIP3    H142479   5.679   4.448  12.980 -1.7281 -2.1110 -1.2846
 6996TIP3    H242480   5.808   4.496  12.918 -0.9461  1.6815  2.7701
 6997TIP3   OH242481   0.272   3.638  12.230  0.9596  0.2652 -0.3538
 6997TIP3    H142482   0.332   3.695  12.278  0.1574 -1.0951  2.4742
 6997TIP3    H242483   0.328   3.570  12.192  1.4732  0.5083 -0.0420
 6998TIP3   OH242484   5.908   3.848  15.479  0.2976 -0.5668  0.1083
 6998TIP3    H142485   5.829   3.884  15.520 -0.6690 -1.3117 -1.0236
 6998TIP3    H242486   5.976   3.857  15.546  0.0720  3.0144  0.0497
 6999TIP3   OH242487   6.835   1.010  14.760 -0.0169  0.3411 -0.1413
 6999TIP3    H142488   6.746   1.046  14.762  0.4350  1.5514 -0.6966
 6999TIP3    H242489   6.891   1.084  14.781  0.8604 -0.4445  0.3329
 7000TIP3   OH242490   1.965   6.130   5.785 -0.2468  0.7342 -0.1583
 7000TIP3    H142491   2.003   6.217   5.798  0.1850  0.5787 -0.3336
 7000TIP3    H242492   1.887   6.129   5.840  1.1165  0.3495  1.9096
 7001TIP3   OH242493   3.357   4.137   2.243 -0.1460 -0.2515 -0.6421
 7001TIP3    H142494   3.293   4.204   2.220  0.9163  1.0080 -0.1255
 7001TIP3    H242495   3.438   4.186   2.258  0.9878 -1.7845 -1.4086
 7002TIP3   OH242496   6.044   2.004  15.139  0.4316  0.4755 -0.0791
 7002TIP3    H142497   6.022   2.079  15.085  1.7571  0.7140 -0.3197
 7002TIP3    H242498   6.055   1.932  15.078 -0.0427  0.2591  0.0793
 7003TIP3   OH242499   5.312   2.101  15.990 -0.1798 -0.3193 -0.4827
 7003TIP3    H142500   5.364   2.054  16.055 -1.0319  1.0063  1.2623
 7003TIP3    H242501   5.375   2.129  15.923  0.7589 -1.5726 -0.1458
 7004TIP3   OH242502   0.700   0.784   5.262 -0.5155  0.2301  0.1101
 7004TIP3    H142503   0.724   0.716   5.200 -2.9118  0.6701 -1.4513
 7004TIP3    H242504   0.757   0.858   5.240  1.2020 -0.7802  0.9692
 7005TIP3   OH242505   2.159   2.724  15.259  0.8625  0.2083  0.0972
 7005TIP3    H142506   2.202   2.770  15.187  1.8400  0.4134  0.7984
 7005TIP3    H242507   2.227   2.712  15.325 -0.2644  0.9623  1.4447
 7006TIP3   OH242508   3.881   4.174   5.555 -0.5434  0.4481 -0.5087
 7006TIP3    H142509   3.828   4.205   5.482  0.1769 -1.1485 -1.7816
 7006TIP3    H242510   3.917   4.253   5.594  0.1686  1.3193 -2.7776
 7007TIP3   OH242511   5.976   0.640   6.474  0.0469 -0.3380 -0.2932
 7007TIP3    H142512   5.952   0.557   6.433  0.0041 -1.3878  1.7027
 7007TIP3    H242513   6.071   0.639   6.477  0.0272 -0.8397  0.6572
 7008TIP3   OH242514   5.778   3.767  10.441  0.0247 -0.1117  0.1285
 7008TIP3    H142515   5.838   3.703  10.402  0.4201 -0.7783  1.7294
 7008TIP3    H242516   5.692   3.727  10.431  0.1646 -0.4616  0.2908
 7009TIP3   OH242517   2.414   0.813  11.110  0.3301 -0.0199  0.1576
 7009TIP3    H142518   2.459   0.896  11.125 -0.5394  0.4687  0.1645
 7009TIP3    H242519   2.423   0.798  11.016 -1.5527  1.3622 -0.3246
 7010TIP3   OH242520   4.392   0.062  11.298  0.3119 -0.4043  0.5544
 7010TIP3    H142521   4.318   0.104  11.342  1.0969  2.8444 -0.8980
 7010TIP3    H242522   4.468   0.088  11.350  0.8497  0.2285 -0.5191
 7011TIP3   OH242523   2.302   0.700   3.436 -0.3294 -0.1490  0.6993
 7011TIP3    H142524   2.311   0.631   3.370  1.8994  1.5145 -0.8872
 7011TIP3    H242525   2.209   0.703   3.455 -0.6121 -2.9440  0.1492
 7012TIP3   OH242526   0.125   5.500   3.686  0.0806 -0.4152 -0.2297
 7012TIP3    H142527   0.053   5.447   3.651  0.8560 -0.7866 -1.3075
 7012TIP3    H242528   0.193   5.436   3.709  1.1816  0.1045 -1.9052
 7013TIP3   OH242529   5.915   1.152   6.282  0.0961  0.0406 -0.0950
 7013TIP3    H142530   5.827   1.186   6.300  0.3770  0.4845  0.4918
 7013TIP3    H242531   5.971   1.230   6.285  0.7172 -0.4323  1.0565
 7014TIP3   OH242532   1.759   3.970   4.660 -0.3819  0.8466  0.3194
 7014TIP3    H142533   1.789   4.060   4.653 -0.6738  0.8292 -1.8275
 7014TIP3    H242534   1.665   3.977   4.676 -0.4733  0.9285 -0.2469
 7015TIP3   OH242535   4.155   3.864  12.198 -0.2901 -0.5661 -0.0576
 7015TIP3    H142536   4.218   3.921  12.242 -0.8335  0.3488 -0.4334
 7015TIP3    H242537   4.075   3.871  12.251 -1.3249  1.4592 -1.7388
 7016TIP3   OH242538   5.012   2.876   4.647 -0.2427  0.3443 -0.1370
 7016TIP3    H142539   5.078   2.931   4.687 -0.9665  1.4275 -0.3954
 7016TIP3    H242540   4.977   2.823   4.720  0.6628 -0.0031  0.0526
 7017TIP3   OH242541   3.745   3.481  16.936  0.2087  0.4030 -0.2407
 7017TIP3    H142542   3.783   3.567  16.951 -0.7074  0.9154 -0.8240
 7017TIP3    H242543   3.691   3.491  16.858 -0.5643 -0.4944  0.1550
 7018TIP3   OH242544   2.016   4.543  11.399  0.2819 -0.6462  0.3288
 7018TIP3    H142545   2.065   4.498  11.330  0.2712 -0.1109 -0.0298
 7018TIP3    H242546   1.959   4.603  11.352  1.1478  0.6099  0.8453
 7019TIP3   OH242547   4.726   4.764  11.931  0.4256  0.3052 -0.4115
 7019TIP3    H142548   4.714   4.859  11.930  1.4125  0.6317  3.4271
 7019TIP3    H242549   4.644   4.730  11.968  0.2689 -0.3536 -1.3207
 7020TIP3   OH242550   0.535   2.139   1.673 -0.0817  0.0661 -0.5233
 7020TIP3    H142551   0.584   2.193   1.736 -0.4555  1.0902 -1.0909
 7020TIP3    H242552   0.519   2.057   1.719  0.8776  0.2690  0.2090
 7021TIP3   OH242553   6.736   1.905  11.082 -0.2514  0.2049  0.0501
 7021TIP3    H142554   6.797   1.902  11.156 -0.1943  0.3973  0.0119
 7021TIP3    H242555   6.686   1.824  11.089 -1.7976  1.2203  1.6181
 7022TIP3   OH242556   4.376   0.282   5.466  0.0553 -0.1524 -0.0527
 7022TIP3    H142557   4.394   0.307   5.557 -1.6099 -0.4295  0.3804
 7022TIP3    H242558   4.282   0.292   5.456  0.1449 -0.5700 -1.6277
 7023TIP3   OH242559   4.661   4.355  11.715  0.0344 -0.0116  0.2136
 7023TIP3    H142560   4.721   4.302  11.662 -0.7574 -0.6189 -0.0961
 7023TIP3    H242561   4.614   4.409  11.652  2.1010  2.4857  0.6418
 7024TIP3   OH242562   1.543   0.644   5.984  0.4059  0.7034 -0.0077
 7024TIP3    H142563   1.571   0.705   6.052  1.0522  1.1835 -0.6997
 7024TIP3    H242564   1.473   0.690   5.938  0.1647  0.4921  0.1432
 7025TIP3   OH242565   3.844   5.066   2.783 -0.1908  0.0413 -0.3488
 7025TIP3    H142566   3.901   5.137   2.755 -0.2696 -0.1808 -1.1070
 7025TIP3    H242567   3.897   4.987   2.771 -0.4423 -0.1100 -0.4865
 7026TIP3   OH242568   6.474   5.535   1.803 -0.5498 -0.1244  0.1773
 7026TIP3    H142569   6.558   5.516   1.844 -0.0999  1.5563  0.1154
 7026TIP3    H242570   6.493   5.541   1.710 -0.1061  2.8416  0.3405
 7027TIP3   OH242571   1.996   2.026  14.792 -0.0195  0.0230 -0.6592
 7027TIP3    H142572   2.050   2.013  14.870  1.5208  2.2052 -1.2669
 7027TIP3    H242573   2.018   1.953  14.735 -1.8181 -2.1147  1.1758
 7028TIP3   OH242574   3.987   6.310  16.376  0.0797 -0.3057 -0.5425
 7028TIP3    H142575   3.945   6.321  16.462  0.8448 -4.3299  0.5763
 7028TIP3    H242576   4.050   6.382  16.371 -3.1826  2.8683 -0.0001
 7029TIP3   OH242577   3.374   5.524  16.208  0.4507 -0.0895  0.5356
 7029TIP3    H142578   3.333   5.440  16.186  0.7654 -0.5847  1.7668
 7029TIP3    H242579   3.423   5.548  16.129  1.0049 -1.4599  0.4338
 7030TIP3   OH242580   6.646   6.859   3.387 -0.5444 -0.5614 -0.2154
 7030TIP3    H142581   6.576   6.880   3.449 -0.0154  0.7644 -0.0256
 7030TIP3    H242582   6.600   6.842   3.304 -1.0600  2.6077 -0.7198
 7031TIP3   OH242583   6.687   4.968   4.834 -0.3654  0.9392  0.0727
 7031TIP3    H142584   6.657   4.885   4.796  0.1367  1.0088 -0.4964
 7031TIP3    H242585   6.682   5.031   4.763  0.4508  1.1081  0.1464
 7032TIP3   OH242586   1.115   6.878   0.298  0.3126  0.2337 -0.0234
 7032TIP3    H142587   1.095   6.894   0.205 -1.2230 -0.9003  0.0687
 7032TIP3    H242588   1.208   6.899   0.306  0.8725 -1.0735 -2.1773
 7033TIP3   OH242589   3.638   4.449  16.646  0.0237 -0.2789  0.5913
 7033TIP3    H142590   3.654   4.525  16.590  2.8591 -0.9202  0.3540
 7033TIP3    H242591   3.676   4.375  16.598 -1.8081 -1.7188  1.2444
 7034TIP3   OH242592   6.247   4.627  14.100 -0.3007  0.0400 -0.2175
 7034TIP3    H142593   6.153   4.613  14.108 -0.3822 -0.0632 -1.1634
 7034TIP3    H242594   6.257   4.679  14.020  0.4052  0.5601  0.1955
 7035TIP3   OH242595   2.708   6.785  16.702 -0.1144 -0.5761 -0.5462
 7035TIP3    H142596   2.755   6.813  16.781  0.6958 -2.3905 -0.3399
 7035TIP3    H242597   2.739   6.845  16.634  0.0495  0.2887  0.2640
 7036TIP3   OH242598   5.265   0.097   0.389 -0.5217  0.5800  0.4753
 7036TIP3    H142599   5.197   0.114   0.325  1.3098 -0.2443 -1.8577
 7036TIP3    H242600   5.222   0.047   0.458 -2.0857 -0.8583 -1.4464
 7037TIP3   OH242601   3.235   3.245  16.505 -0.5170  0.0771 -0.1134
 7037TIP3    H142602   3.278   3.302  16.441  1.2792  0.1698  1.0835
 7037TIP3    H242603   3.297   3.173  16.518 -1.9020 -1.1709 -0.1856
 7038TIP3   OH242604   0.979   6.520   2.013 -0.2078 -0.5462  0.1305
 7038TIP3    H142605   0.935   6.564   2.086  0.4635 -1.7980  1.3493
 7038TIP3    H242606   1.072   6.519   2.037  0.4971  1.5252 -2.1212
 7039TIP3   OH242607   4.173   1.897   5.452  0.1357  0.4039 -0.0574
 7039TIP3    H142608   4.235   1.825   5.443 -1.1608 -0.6741 -0.7950
 7039TIP3    H242609   4.164   1.933   5.364 -0.6183  0.2535 -0.0474
 7040TIP3   OH242610   1.708   1.736   3.332 -0.1873 -0.3808  0.0631
 7040TIP3    H142611   1.708   1.823   3.372 -0.1368 -0.7688  0.9380
 7040TIP3    H242612   1.695   1.676   3.406  1.3377 -1.2146 -0.2890
 7041TIP3   OH242613   4.007   2.341  10.897  0.0610 -0.0580 -0.3016
 7041TIP3    H142614   4.076   2.279  10.872 -0.2901 -1.9934  2.8902
 7041TIP3    H242615   3.925   2.293  10.883 -0.2353 -0.3464  1.9330
 7042TIP3   OH242616   5.320   4.390  16.498 -0.0740 -0.2884 -0.3865
 7042TIP3    H142617   5.262   4.453  16.455 -1.1053 -0.0994  1.2206
 7042TIP3    H242618   5.263   4.340  16.556  0.8868 -2.0787 -0.9013
 7043TIP3   OH242619   2.212   0.336   1.172 -0.4364  0.2066  0.2775
 7043TIP3    H142620   2.193   0.430   1.163 -0.7619  0.0171 -1.4361
 7043TIP3    H242621   2.299   0.333   1.211 -0.8409  1.1991  1.3099
 7044TIP3   OH242622   3.104   2.135  11.918  0.1695  0.2752 -0.1446
 7044TIP3    H142623   3.078   2.056  11.871 -1.3653  1.2685 -1.0590
 7044TIP3    H242624   3.026   2.190  11.917  1.4895  2.2344 -0.4416
 7045TIP3   OH242625   0.989   2.937  14.298 -0.6898  0.7613 -0.4201
 7045TIP3    H142626   1.030   2.878  14.362 -0.7506  0.7284 -0.4116
 7045TIP3    H242627   1.009   3.024  14.331  0.5809  0.7745 -1.1617
 7046TIP3   OH242628   5.371   0.849   2.374  0.2615 -0.1705  0.6074
 7046TIP3    H142629   5.360   0.943   2.385  2.2224  0.0897  0.6937
 7046TIP3    H242630   5.349   0.832   2.283  0.1940  0.4150  0.5122
 7047TIP3   OH242631   2.713   3.683  11.700 -0.7141 -0.4288 -0.0249
 7047TIP3    H142632   2.777   3.709  11.633 -0.8902  0.2456  0.0662
 7047TIP3    H242633   2.732   3.590  11.715 -0.5358 -0.5392 -0.8607
 7048TIP3   OH242634   5.261   6.250   0.208  0.0103  0.3402 -0.6773
 7048TIP3    H142635   5.189   6.214   0.156 -0.5653  1.5848 -0.7701
 7048TIP3    H242636   5.246   6.215   0.296 -1.5142  1.6550 -0.3842
 7049TIP3   OH242637   0.463   3.594   1.509 -0.0211 -0.4220 -0.4790
 7049TIP3    H142638   0.384   3.557   1.469  0.4329 -2.1446  0.1501
 7049TIP3    H242639   0.448   3.689   1.506 -0.3541 -0.4482 -3.9607
 7050TIP3   OH242640   3.939   5.779   5.068 -0.0022 -0.2111 -0.3547
 7050TIP3    H142641   4.023   5.759   5.027  0.3255  1.7385 -0.7486
 7050TIP3    H242642   3.960   5.844   5.135 -1.2887  1.0262 -1.0967
 7051TIP3   OH242643   6.629   5.608   6.205  0.2693 -0.0919 -0.2781
 7051TIP3    H142644   6.660   5.520   6.181 -0.8512 -0.5238 -0.2177
 7051TIP3    H242645   6.642   5.660   6.126  0.2066 -0.5185 -0.5763
 7052TIP3   OH242646   5.007   3.889   6.393  0.5105  0.6732 -0.1043
 7052TIP3    H142647   4.956   3.838   6.330  0.5938  0.8475 -0.3164
 7052TIP3    H242648   5.042   3.962   6.341  0.0855  1.1511  0.2744
 7053TIP3   OH242649   3.205   6.823   5.796 -0.2489  0.5391  0.3472
 7053TIP3    H142650   3.289   6.812   5.840 -0.7435 -0.6173  1.0340
 7053TIP3    H242651   3.176   6.911   5.821  0.7607  0.9553  0.0801
 7054TIP3   OH242652   5.064   0.774  10.436 -0.1469  0.4190 -0.0653
 7054TIP3    H142653   5.040   0.685  10.412  0.0158  0.2587  0.3587
 7054TIP3    H242654   5.150   0.788  10.396  0.0153  0.2379  0.2145
 7055TIP3   OH242655   5.855   0.785   1.204 -0.1479  0.4890 -0.8368
 7055TIP3    H142656   5.814   0.792   1.291  1.1757  2.0434 -0.2760
 7055TIP3    H242657   5.859   0.876   1.172 -0.0736  0.0003 -2.2768
 7056TIP3   OH242658   2.472   3.115  16.971 -0.6722  0.5330 -0.0286
 7056TIP3    H142659   2.387   3.160  16.964 -0.5141  1.2736  2.1863
 7056TIP3    H242660   2.508   3.119  16.882 -3.3646 -0.7422 -1.3175
 7057TIP3   OH242661   6.010   2.233  10.677 -0.2071  0.4162  0.7534
 7057TIP3    H142662   6.083   2.280  10.635 -0.3476  0.3101  0.3886
 7057TIP3    H242663   6.044   2.145  10.692 -0.1960  0.4215  0.7594
 7058TIP3   OH242664   3.839   6.808  15.313 -1.3276 -0.3926  0.2935
 7058TIP3    H142665   3.783   6.849  15.248 -1.1407  0.0956  0.4292
 7058TIP3    H242666   3.789   6.811  15.394 -0.5912  1.3146  0.7305
 7059TIP3   OH242667   1.905   4.067   4.166 -0.1582 -0.0891 -0.2815
 7059TIP3    H142668   1.904   4.096   4.257  1.7538 -0.5202 -0.0675
 7059TIP3    H242669   1.990   4.096   4.133 -0.7869  0.0087 -1.9321
 7060TIP3   OH242670   6.522   1.461   5.633  0.2661  0.0683  0.2679
 7060TIP3    H142671   6.487   1.549   5.618 -1.8552 -0.4538  1.7603
 7060TIP3    H242672   6.516   1.419   5.547  1.4292  1.3667 -0.5009
 7061TIP3   OH242673   2.703   5.601  12.514 -0.0080 -0.0104 -0.1315
 7061TIP3    H142674   2.674   5.692  12.517 -1.9758 -0.5038 -1.9833
 7061TIP3    H242675   2.791   5.605  12.476  0.7158  1.2076  1.5603
 7062TIP3   OH242676   5.761   3.820  15.773 -0.2259 -1.2365 -0.7217
 7062TIP3    H142677   5.768   3.913  15.793  0.0960 -1.3252 -0.4043
 7062TIP3    H242678   5.689   3.813  15.711 -0.1052 -0.7487 -0.9157
 7063TIP3   OH242679   5.880   5.831  13.085  0.2287  0.2865  0.4697
 7063TIP3    H142680   5.923   5.864  13.164  0.8062 -1.7796  1.0802
 7063TIP3    H242681   5.827   5.758  13.115 -0.0868 -0.1074 -0.9666
 7064TIP3   OH242682   4.570   1.937   1.441 -0.4569  0.0602 -0.4813
 7064TIP3    H142683   4.589   1.883   1.364  1.5516  1.0682 -0.7779
 7064TIP3    H242684   4.526   2.014   1.406  0.5820  0.5842 -0.6888
 7065TIP3   OH242685   5.078   1.927  15.619 -0.4248  0.0783  0.0370
 7065TIP3    H142686   4.986   1.902  15.633 -0.9405  1.6442 -0.3548
 7065TIP3    H242687   5.117   1.922  15.706 -1.4122  1.3383  0.5846
 7066TIP3   OH242688   5.701   0.464  13.202  0.0494  0.2180  0.0143
 7066TIP3    H142689   5.642   0.466  13.276  1.0109  0.3182  0.8009
 7066TIP3    H242690   5.718   0.371  13.185 -1.2908  0.1332 -1.0249
 7067TIP3   OH242691   1.413   2.396   4.356 -0.6866 -0.7378  0.4243
 7067TIP3    H142692   1.328   2.397   4.399 -0.9519  0.5197 -0.0821
 7067TIP3    H242693   1.393   2.386   4.263 -0.3207  0.0776  0.2488
 7068TIP3   OH242694   4.187   5.168   0.979  0.3200 -0.7016  0.2225
 7068TIP3    H142695   4.210   5.149   0.889 -0.2912  0.6648 -0.2488
 7068TIP3    H242696   4.092   5.161   0.982  0.3228 -0.5847  0.7151
 7069TIP3   OH242697   2.371   2.611  15.421  0.0296 -0.2329 -0.3950
 7069TIP3    H142698   2.462   2.591  15.447 -0.5603  1.0624  3.1789
 7069TIP3    H242699   2.320   2.538  15.457 -0.6011  0.3119 -0.1791
 7070TIP3   OH242700   0.312   5.182   0.853 -1.0730 -0.2697  0.0900
 7070TIP3    H142701   0.246   5.126   0.892 -1.3122  0.8551  1.3619
 7070TIP3    H242702   0.278   5.202   0.766 -0.2558 -3.2857 -1.0358
 7071TIP3   OH242703   5.151   5.114  16.709  0.0649  0.6730 -0.1798
 7071TIP3    H142704   5.179   5.022  16.715  0.1162  0.6784 -0.3362
 7071TIP3    H242705   5.116   5.134  16.796  0.0033  0.4891 -0.1625
 7072TIP3   OH242706   3.959   0.019   2.656 -0.4197  0.2314  0.7166
 7072TIP3    H142707   3.947  -0.069   2.621 -0.2284  0.9363 -1.2831
 7072TIP3    H242708   3.871   0.052   2.670 -0.6224  0.6980 -1.3069
 7073TIP3   OH242709   6.007   0.858  13.942  0.0651  0.0301 -0.0025
 7073TIP3    H142710   6.018   0.804  13.864 -1.0237  0.2575 -0.3383
 7073TIP3    H242711   5.949   0.929  13.914  0.9004  0.9842  0.6117
 7074TIP3   OH242712   3.963   3.579  15.837 -0.0494  0.3018  0.4050
 7074TIP3    H142713   4.025   3.644  15.870  0.3176 -0.4579  1.2694
 7074TIP3    H242714   4.017   3.518  15.785 -0.2938  0.3677  0.0702
 7075TIP3   OH242715   3.726   6.705  16.006 -0.0528 -0.7350 -0.5197
 7075TIP3    H142716   3.679   6.779  16.044  0.3175 -0.8853  0.2491
 7075TIP3    H242717   3.818   6.732  16.006  0.0548 -1.0856 -0.4713
 7076TIP3   OH242718   6.295   5.190   1.325  0.4444 -0.8634  0.2861
 7076TIP3    H142719   6.263   5.160   1.240  2.2046 -1.9637 -0.0178
 7076TIP3    H242720   6.390   5.186   1.319  0.6223 -0.6512  2.2046
 7077TIP3   OH242721   6.436   4.753   1.217  0.0151  0.0518 -0.0231
 7077TIP3    H142722   6.512   4.810   1.212  1.2170 -1.4242  0.6693
 7077TIP3    H242723   6.389   4.781   1.295  0.1437  0.6045 -0.1417
 7078TIP3   OH242724   0.629   6.499   0.326 -0.6587  0.3191 -0.5256
 7078TIP3    H142725   0.539   6.520   0.299 -0.4735 -0.3203 -1.7066
 7078TIP3    H242726   0.640   6.406   0.305  0.1556  0.2903 -0.0254
 7079TIP3   OH242727   2.754   0.216  15.316  0.4462  0.3871 -0.0985
 7079TIP3    H142728   2.779   0.238  15.226  0.6230  0.9338  0.0782
 7079TIP3    H242729   2.838   0.204  15.361  0.3920  1.4258  0.3064
 7080TIP3   OH242730   4.661   6.750  15.520 -0.2602 -0.6288 -0.1821
 7080TIP3    H142731   4.700   6.802  15.591  0.9154 -0.9097 -0.6080
 7080TIP3    H242732   4.645   6.664  15.559  1.9709 -1.3217 -0.6788
 7081TIP3   OH242733   0.104   3.002  13.627 -0.3391 -0.3170 -0.3218
 7081TIP3    H142734   0.056   2.998  13.544 -0.8879 -0.1451 -0.0214
 7081TIP3    H242735   0.117   2.910  13.651 -1.2756 -0.3775  0.0088
 7082TIP3   OH242736   0.894   4.538  15.467  0.4334 -0.3856 -0.4458
 7082TIP3    H142737   0.862   4.536  15.557 -2.6235  0.0589 -1.3939
 7082TIP3    H242738   0.981   4.576  15.473 -1.0514  3.2244  2.0518
 7083TIP3   OH242739   5.786   6.010   1.467  0.1668  0.0151  0.4391
 7083TIP3    H142740   5.801   6.079   1.532  1.9070 -0.8071  0.9620
 7083TIP3    H242741   5.690   6.008   1.457  0.0476  2.8144  0.0046
 7084TIP3   OH242742   0.134   4.855  16.070 -0.3332  0.8323 -0.1213
 7084TIP3    H142743   0.128   4.933  16.014  1.7251  1.4678  0.4431
 7084TIP3    H242744   0.102   4.884  16.155 -0.8591  0.6502 -0.2518
 7085TIP3   OH242745   0.873   4.124   3.427 -0.6167  0.2737  0.4772
 7085TIP3    H142746   0.789   4.168   3.440 -0.0574  2.1858 -1.7119
 7085TIP3    H242747   0.858   4.065   3.354  0.1633  1.5472 -0.7784
 7086TIP3   OH242748   2.836   0.767  14.031  0.0362 -0.3477  0.0717
 7086TIP3    H142749   2.916   0.744  13.983 -0.6434 -1.3504 -0.6307
 7086TIP3    H242750   2.768   0.713  13.991 -0.5243 -1.4607  2.3583
 7087TIP3   OH242751   4.780   6.531   4.328 -0.7141  0.2493 -0.7719
 7087TIP3    H142752   4.851   6.530   4.264 -0.0545 -0.7363 -0.0500
 7087TIP3    H242753   4.804   6.602   4.388 -0.1301 -0.3059 -0.3285
 7088TIP3   OH242754   3.723   1.367   3.255 -0.6165  0.0388  0.3197
 7088TIP3    H142755   3.814   1.347   3.232 -0.3707  1.2431  0.1552
 7088TIP3    H242756   3.682   1.282   3.266  0.9398 -0.5666  2.0220
 7089TIP3   OH242757   6.632   5.634  16.504 -0.2639  0.1582 -0.0595
 7089TIP3    H142758   6.653   5.617  16.412  0.2523  0.3182  0.0260
 7089TIP3    H242759   6.546   5.676  16.502 -0.0439  0.5958 -0.5090
 7090TIP3   OH242760   1.994   0.292  13.004  0.4157  0.9378 -0.7184
 7090TIP3    H142761   1.957   0.373  13.038  0.0489  0.8328 -0.8641
 7090TIP3    H242762   1.986   0.300  12.909 -0.2805  0.4239 -0.7099
 7091TIP3   OH242763   5.900   6.866   4.719 -0.5349  0.3841 -0.2735
 7091TIP3    H142764   5.926   6.951   4.683 -0.0470  0.4382  0.1810
 7091TIP3    H242765   5.949   6.860   4.801  0.6217 -1.0006 -1.0305
 7092TIP3   OH242766   1.077   1.068  16.030  0.4217  0.0778 -0.2484
 7092TIP3    H142767   1.131   1.032  15.960  0.2987 -1.1835  0.2857
 7092TIP3    H242768   1.139   1.111  16.089  0.5995  0.5117 -0.7441
 7093TIP3   OH242769   4.989   2.309   3.981 -0.1982  0.4117  0.1081
 7093TIP3    H142770   4.999   2.221   3.946  0.8186 -0.1489  1.6765
 7093TIP3    H242771   5.066   2.357   3.949  1.3435 -0.4170  2.3120
 7094TIP3   OH242772   4.116   5.961   1.371 -0.5901  0.1741  0.2511
 7094TIP3    H142773   4.111   5.893   1.439  0.0414 -1.3493 -1.1611
 7094TIP3    H242774   4.208   5.983   1.366 -0.7311  0.7963  0.3664
 7095TIP3   OH242775   1.032   6.553   0.251 -0.1466 -0.3756  0.4603
 7095TIP3    H142776   1.002   6.462   0.250 -0.6864 -0.2069  0.5323
 7095TIP3    H242777   0.964   6.601   0.203  0.0093  0.0260  0.6337
 7096TIP3   OH242778   4.852   4.846   3.945  0.1256  0.0932 -0.5725
 7096TIP3    H142779   4.921   4.912   3.955 -0.0051  0.2432 -0.6467
 7096TIP3    H242780   4.790   4.886   3.884 -1.4462  1.1792  1.5836
 7097TIP3   OH242781   6.740   6.843  16.024 -0.8891  0.3319 -0.6644
 7097TIP3    H142782   6.787   6.843  16.107 -2.0029  2.0090  0.0203
 7097TIP3    H242783   6.793   6.787  15.967 -0.1874 -1.0030  1.1938
 7098TIP3   OH242784   0.049   6.484  11.422 -0.2196  0.5488 -0.2332
 7098TIP3    H142785   0.051   6.414  11.356  0.6424 -0.1746  0.5238
 7098TIP3    H242786   0.073   6.563  11.374 -0.9641  0.2939 -1.0539
 7099TIP3   OH242787   5.852   1.465  14.569 -0.1117 -0.1809  0.0471
 7099TIP3    H142788   5.894   1.503  14.646  1.2917  0.4997 -0.9940
 7099TIP3    H242789   5.921   1.411  14.529 -0.5069  0.1998 -1.2009
 7100TIP3   OH242790   5.824   0.131   0.648  0.0532  0.3505 -0.1142
 7100TIP3    H142791   5.875   0.189   0.592  0.1206  0.1412 -0.2719
 7100TIP3    H242792   5.750   0.184   0.676  0.4158  0.6940  0.2096
 7101TIP3   OH242793   4.439   0.947  13.180  0.8523 -0.3905 -0.3048
 7101TIP3    H142794   4.406   0.966  13.092  0.1073  0.1041  0.0779
 7101TIP3    H242795   4.502   0.875  13.166 -1.4356 -2.4103 -0.8779
 7102TIP3   OH242796   0.617   4.583   1.581 -0.7271 -0.2446  0.0369
 7102TIP3    H142797   0.671   4.643   1.530  0.4310 -0.1274  1.3259
 7102TIP3    H242798   0.661   4.499   1.575 -1.2239 -0.4957 -0.1111
 7103TIP3   OH242799   4.461   3.605  16.899  0.0350 -0.5522  0.0370
 7103TIP3    H142800   4.478   3.582  16.808 -3.0721 -1.2841 -0.4703
 7103TIP3    H242801   4.462   3.521  16.945  1.4158 -0.2023  0.7129
 7104TIP3   OH242802   5.831   3.235   2.436  0.7693 -0.2279  0.1770
 7104TIP3    H142803   5.750   3.232   2.487 -0.5970 -2.7067 -1.9077
 7104TIP3    H242804   5.844   3.145   2.407  4.1779  0.1497  0.1840
 7105TIP3   OH242805   6.600   1.319  11.333  0.0731  0.5854  0.3092
 7105TIP3    H142806   6.525   1.293  11.388 -1.8330  2.2242 -1.3637
 7105TIP3    H242807   6.677   1.286  11.381 -1.6858 -1.4164  1.9794
 7106TIP3   OH242808   2.197   2.265   3.137  0.3401  0.0480  0.3457
 7106TIP3    H142809   2.248   2.184   3.141  1.3692  0.6639  0.0030
 7106TIP3    H242810   2.230   2.310   3.059  0.6697  1.3787  1.2228
 7107TIP3   OH242811   4.374   2.389  14.210 -0.2669 -0.0005  0.2140
 7107TIP3    H142812   4.360   2.296  14.192 -0.2357  0.0038  0.1684
 7107TIP3    H242813   4.288   2.430  14.195  0.2550  0.3661 -2.1569
 7108TIP3   OH242814   1.903   5.532   1.691 -0.3575 -0.5510  0.1738
 7108TIP3    H142815   1.978   5.583   1.661 -0.5505 -0.3913 -0.0502
 7108TIP3    H242816   1.833   5.554   1.629 -1.2392  0.9861  1.6239
 7109TIP3   OH242817   4.636   2.413  13.308 -0.1886 -0.0101  0.1210
 7109TIP3    H142818   4.627   2.430  13.401  0.4350  0.5505  0.0827
 7109TIP3    H242819   4.726   2.383  13.297 -0.1589  0.2298 -0.3451
 7110TIP3   OH242820   3.203   2.137   0.338  0.5059 -0.1558 -0.4418
 7110TIP3    H142821   3.153   2.197   0.394  2.2185 -1.0575  2.2086
 7110TIP3    H242822   3.162   2.052   0.351  0.8917 -0.3671 -0.5940
 7111TIP3   OH242823   4.356   0.360   0.726 -0.5372  0.8391  0.3320
 7111TIP3    H142824   4.366   0.278   0.774 -1.9488  0.3596 -0.1288
 7111TIP3    H242825   4.445   0.389   0.709 -0.0061 -0.4001  0.8425
 7112TIP3   OH242826   5.982   5.971   4.725 -0.0291 -0.2644  0.6721
 7112TIP3    H142827   6.050   5.904   4.727  0.4501  0.1370 -0.7440
 7112TIP3    H242828   5.972   5.999   4.816  0.9142 -1.1129  1.0482
 7113TIP3   OH242829   6.115   0.218   6.031 -0.3309 -0.2596 -0.2027
 7113TIP3    H142830   6.141   0.125   6.028 -1.3795 -0.5428 -1.3909
 7113TIP3    H242831   6.021   0.216   6.049 -0.6409  0.4958 -1.6053
 7114TIP3   OH242832   3.219   3.462   1.079  0.2641  0.0498 -0.1938
 7114TIP3    H142833   3.213   3.368   1.097 -1.2714  0.1833  0.0861
 7114TIP3    H242834   3.291   3.469   1.016  0.9718 -1.2083  0.4167
 7115TIP3   OH242835   6.457   1.561  16.359  0.2511  0.0579 -0.1740
 7115TIP3    H142836   6.529   1.554  16.421  1.2313 -0.5167 -1.3410
 7115TIP3    H242837   6.470   1.646  16.316 -0.2508  0.3190  0.1777
 7116TIP3   OH242838   2.164   4.154   4.134  0.1916  0.8370  0.0016
 7116TIP3    H142839   2.222   4.104   4.077 -1.2148 -0.9237  0.0212
 7116TIP3    H242840   2.143   4.233   4.084  0.9495  0.5043 -0.8628
 7117TIP3   OH242841   6.835   3.665  13.155  0.3373  0.0818 -0.1823
 7117TIP3    H142842   6.750   3.708  13.158  0.4074  0.1654  0.7047
 7117TIP3    H242843   6.892   3.720  13.209  1.0830  0.2871 -1.1440
 7118TIP3   OH242844   0.839   3.332  11.803  0.0208 -0.8964  0.2941
 7118TIP3    H142845   0.759   3.296  11.766  0.3145 -0.4421 -0.8315
 7118TIP3    H242846   0.847   3.419  11.763  1.6600 -1.3834 -0.5255
 7119TIP3   OH242847   0.195   2.488  11.052  0.7887 -0.4171 -0.0427
 7119TIP3    H142848   0.143   2.436  10.991  0.1260 -1.7839  1.6235
 7119TIP3    H242849   0.285   2.462  11.035  0.6396 -0.5841 -0.5970
 7120TIP3   OH242850   3.181   2.668   5.911 -0.4250  0.0681 -0.0669
 7120TIP3    H142851   3.161   2.616   5.989 -0.5932 -1.7153 -1.2307
 7120TIP3    H242852   3.276   2.683   5.917 -0.4415 -0.0050  0.5070
 7121TIP3   OH242853   0.836   2.383  11.353  0.4189  0.5283  0.1850
 7121TIP3    H142854   0.924   2.415  11.369  1.0908 -1.7067  1.2728
 7121TIP3    H242855   0.845   2.288  11.345 -1.5984  0.4050 -1.8505
 7122TIP3   OH242856   3.049   6.297  10.886  0.2581 -0.2695  0.0508
 7122TIP3    H142857   3.129   6.344  10.865  1.0095 -0.5673  1.9884
 7122TIP3    H242858   3.033   6.240  10.811  0.1127  1.9774 -1.7029
 7123TIP3   OH242859   5.812   6.431   4.539 -0.3793 -0.0604  0.8115
 7123TIP3    H142860   5.801   6.336   4.545 -0.3223 -0.0662  0.8324
 7123TIP3    H242861   5.902   6.442   4.509 -0.5227 -0.0229  0.3920
 7124TIP3   OH242862   4.607   1.450   3.137  0.2987 -0.4455  0.0833
 7124TIP3    H142863   4.544   1.511   3.177  0.5762 -1.0322  1.4563
 7124TIP3    H242864   4.567   1.427   3.053 -0.7666  0.0977  0.4187
 7125TIP3   OH242865   4.550   6.115   1.594  0.0796  0.3055 -0.6625
 7125TIP3    H142866   4.512   6.186   1.542 -0.0814 -0.1228 -1.1411
 7125TIP3    H242867   4.644   6.123   1.580 -0.0157 -0.5379 -2.0289
 7126TIP3   OH242868   3.434   4.039   4.123  0.2169 -0.5016  0.2982
 7126TIP3    H142869   3.421   4.130   4.097  1.4651 -0.8518 -1.7858
 7126TIP3    H242870   3.375   3.989   4.066  0.5346 -1.0958  0.4837
 7127TIP3   OH242871   5.688   3.635   3.797  0.2634  0.9005  0.2102
 7127TIP3    H142872   5.767   3.625   3.744 -0.7832 -0.2740 -1.2223
 7127TIP3    H242873   5.710   3.597   3.882  1.8384  2.4093  0.5229
 7128TIP3   OH242874   0.630   2.411   2.970 -0.3808 -0.5295  0.0848
 7128TIP3    H142875   0.606   2.465   2.895 -0.2871  0.8071  0.9939
 7128TIP3    H242876   0.548   2.370   2.997 -0.6235 -0.1560 -0.0800
 7129TIP3   OH242877   1.266   6.642   4.712  0.2393 -0.1736 -0.0063
 7129TIP3    H142878   1.194   6.703   4.722  0.2474 -0.0842 -0.4589
 7129TIP3    H242879   1.225   6.561   4.683  0.2817 -0.2352  0.1043
 7130TIP3   OH242880   0.238   2.365   0.910  0.0476  0.4292  0.1197
 7130TIP3    H142881   0.278   2.446   0.941  0.8519  0.9576 -2.0795
 7130TIP3    H242882   0.277   2.351   0.824 -2.1589 -0.7792 -0.7718
 7131TIP3   OH242883   0.875   4.569   5.178  0.0953 -0.1514 -0.1781
 7131TIP3    H142884   0.781   4.584   5.169  0.5411  2.3553 -1.6641
 7131TIP3    H242885   0.894   4.585   5.270 -0.9197 -0.7983  0.1624
 7132TIP3   OH242886   1.423   6.687  13.722  0.1093 -0.0995  0.4852
 7132TIP3    H142887   1.447   6.676  13.630  1.6129 -1.4943  0.9891
 7132TIP3    H242888   1.507   6.681  13.769 -0.8373 -1.5457  2.0914
 7133TIP3   OH242889   5.792   1.489   0.779  0.0243 -0.3118  0.4483
 7133TIP3    H142890   5.879   1.478   0.817  0.1606  1.3141  0.6623
 7133TIP3    H242891   5.804   1.550   0.706 -0.7765 -0.8875 -0.1974
 7134TIP3   OH242892   0.114   6.768   1.953  0.4904  0.5584  0.0704
 7134TIP3    H142893   0.204   6.739   1.940  0.4552 -0.9677  2.6784
 7134TIP3    H242894   0.060   6.698   1.916  0.3928  0.0997  1.0674
 7135TIP3   OH242895   3.583   0.007  16.144 -0.5218  0.1332 -0.7335
 7135TIP3    H142896   3.492   0.005  16.115 -0.7263 -1.3532 -0.0807
 7135TIP3    H242897   3.585   0.073  16.213 -1.6354 -1.3296  0.7820
 7136TIP3   OH242898   3.079   1.389   0.440 -0.0396  0.0110  0.0483
 7136TIP3    H142899   3.086   1.456   0.372  0.0770 -0.2032 -0.1488
 7136TIP3    H242900   3.151   1.408   0.500 -0.6687  0.7490  0.6017
 7137TIP3   OH242901   4.382   2.814  12.535 -0.2004 -0.9002 -0.3481
 7137TIP3    H142902   4.466   2.788  12.497 -0.5856 -1.1681 -1.0280
 7137TIP3    H242903   4.323   2.741  12.516 -0.1749 -1.4908  1.6104
 7138TIP3   OH242904   1.463   0.161  12.830 -0.0216 -0.1048 -0.1146
 7138TIP3    H142905   1.463   0.199  12.743 -1.1940 -0.2712 -0.2041
 7138TIP3    H242906   1.540   0.104  12.832  0.5960  0.6989 -0.6693
 7139TIP3   OH242907   5.552   2.831  16.048  0.0194  0.2137  0.1276
 7139TIP3    H142908   5.496   2.753  16.046 -0.3122  0.2138  3.6844
 7139TIP3    H242909   5.585   2.838  15.958 -1.8087 -2.6000 -0.9290
 7140TIP3   OH242910   2.018   2.684   2.304 -0.4467 -0.1284 -0.2877
 7140TIP3    H142911   2.037   2.627   2.378 -1.6600 -0.0821  0.0760
 7140TIP3    H242912   2.068   2.647   2.231 -1.3505 -1.7625 -0.1074
 7141TIP3   OH242913   1.507   5.270   4.843  0.3198  0.3479 -0.0506
 7141TIP3    H142914   1.551   5.215   4.908 -2.0021  0.1934  1.4651
 7141TIP3    H242915   1.417   5.240   4.842  0.2302  0.2986 -3.4549
 7142TIP3   OH242916   6.282   5.688  14.996 -0.1977  0.2680  0.3385
 7142TIP3    H142917   6.302   5.777  15.025 -0.1844  0.4969 -0.3621
 7142TIP3    H242918   6.336   5.632  15.052 -0.9740  0.6288  1.4902
 7143TIP3   OH242919   5.838   4.939   4.095  0.2340 -0.3456  0.3478
 7143TIP3    H142920   5.821   4.855   4.139  0.4860 -0.7616 -0.3230
 7143TIP3    H242921   5.841   4.916   4.002 -0.6729  0.5830  0.0818
 7144TIP3   OH242922   5.587   2.082   5.185 -0.0167 -0.6274  0.0031
 7144TIP3    H142923   5.624   2.171   5.187 -0.8549 -0.2476 -0.6982
 7144TIP3    H242924   5.493   2.095   5.191 -0.1768 -1.4469 -0.5451
 7145TIP3   OH242925   0.226   2.657  11.270 -0.0841  0.1109 -0.4432
 7145TIP3    H142926   0.140   2.651  11.312  0.7707 -0.1328  1.3359
 7145TIP3    H242927   0.224   2.590  11.202 -1.7178  0.9147 -1.2598
 7146TIP3   OH242928   0.909   5.899   2.752 -0.0750 -0.3292  0.0733
 7146TIP3    H142929   0.855   5.868   2.824  3.0283 -2.5086  1.7054
 7146TIP3    H242930   0.948   5.981   2.785  0.0264 -0.4272  0.1991
 7147TIP3   OH242931   3.956   1.574  12.675 -0.2403  0.0031 -0.1834
 7147TIP3    H142932   3.862   1.568  12.693 -0.1103 -1.2062  0.2097
 7147TIP3    H242933   3.964   1.553  12.582 -0.3933  0.5322 -0.3178
 7148TIP3   OH242934   6.273   0.617  12.228 -0.1245 -0.5094  0.0367
 7148TIP3    H142935   6.322   0.685  12.182  0.4912 -1.5346 -0.8755
 7148TIP3    H242936   6.238   0.661  12.306 -2.4309  1.7435 -2.0498
 7149TIP3   OH242937   0.155   4.405   5.413  0.0551  0.1056 -0.5881
 7149TIP3    H142938   0.095   4.424   5.341  0.6497  0.2334 -1.0668
 7149TIP3    H242939   0.237   4.449   5.388  0.7769 -1.1993 -0.6176
 7150TIP3   OH242940   3.751   4.518  13.030 -0.6400 -0.0130  0.1870
 7150TIP3    H142941   3.846   4.521  13.022 -0.7569  0.8990 -1.0121
 7150TIP3    H242942   3.733   4.551  13.118  0.1589 -0.4911  0.5361
 7151TIP3   OH242943   5.570   4.463  11.192  0.6417  0.6497  0.5177
 7151TIP3    H142944   5.547   4.499  11.277  0.6318  1.4334  0.1947
 7151TIP3    H242945   5.573   4.539  11.134  2.1529  0.3405  0.1423
 7152TIP3   OH242946   3.905   5.389   1.318 -0.3974  0.1616  0.2373
 7152TIP3    H142947   3.814   5.378   1.290 -0.2735 -0.5966  0.0903
 7152TIP3    H242948   3.949   5.309   1.287 -0.3225 -0.9175  2.8807
 7153TIP3   OH242949   6.085   2.039   1.939 -0.7262 -0.1778  0.3895
 7153TIP3    H142950   6.106   2.117   1.888 -3.0418  0.0733 -0.2966
 7153TIP3    H242951   6.095   1.967   1.877  0.3059 -0.3272  0.7116
 7154TIP3   OH242952   0.760   3.063   3.492 -0.1904  0.7057 -0.6369
 7154TIP3    H142953   0.741   2.997   3.425  0.0306 -0.2487  0.2259
 7154TIP3    H242954   0.749   3.146   3.446 -0.7867  0.0886 -1.6630
 7155TIP3   OH242955   1.775   6.121   3.311 -0.7975  0.3805 -0.5316
 7155TIP3    H142956   1.850   6.145   3.256 -0.0631 -0.0314  0.2584
 7155TIP3    H242957   1.725   6.201   3.320  0.6387  1.1934  0.5850
 7156TIP3   OH242958   2.052   4.165   2.104 -0.5274 -0.4410  0.2337
 7156TIP3    H142959   2.063   4.118   2.021 -1.8164  0.8292 -0.7249
 7156TIP3    H242960   2.103   4.245   2.093  1.1496 -1.2652  1.6016
 7157TIP3   OH242961   2.147   5.807  13.973 -0.0878  0.0509  0.2757
 7157TIP3    H142962   2.182   5.828  14.059 -0.3200  1.0463  0.1377
 7157TIP3    H242963   2.223   5.802  13.915  0.0513 -0.4416  0.4986
 7158TIP3   OH242964   0.413   1.064   0.341 -0.4745 -0.6559  1.0829
 7158TIP3    H142965   0.477   1.133   0.323 -1.8131  0.2808 -0.3038
 7158TIP3    H242966   0.386   1.033   0.255  0.5321 -3.4077  1.6539
 7159TIP3   OH242967   5.082   5.059  11.699  0.7250 -0.2882 -0.5281
 7159TIP3    H142968   5.020   5.129  11.678  1.3482 -0.1998 -2.1636
 7159TIP3    H242969   5.039   4.979  11.669  0.2318 -0.5843  0.8814
 7160TIP3   OH242970   3.135   6.537  13.263  0.2664  0.1177 -0.5041
 7160TIP3    H142971   3.134   6.623  13.220  0.2586  0.4279  0.1176
 7160TIP3    H242972   3.174   6.552  13.348 -1.0328 -0.2237  0.1763
 7161TIP3   OH242973   4.482   2.200  11.155  0.1517  0.0233 -0.5725
 7161TIP3    H142974   4.573   2.226  11.173 -0.1034 -0.4298  1.7474
 7161TIP3    H242975   4.429   2.271  11.191 -0.4172 -0.3620 -0.6377
 7162TIP3   OH242976   0.529   1.061  14.977 -0.0017  0.4473  0.9251
 7162TIP3    H142977   0.435   1.045  14.970 -0.0408  1.1170 -0.3993
 7162TIP3    H242978   0.544   1.139  14.924  1.3945  0.0206  0.6533
 7163TIP3   OH242979   2.322   0.374   2.566  0.4901  0.3147 -0.0333
 7163TIP3    H142980   2.305   0.285   2.596  0.7823  0.1876 -0.2327
 7163TIP3    H242981   2.343   0.423   2.645  2.1736 -0.2327 -0.1031
 7164TIP3   OH242982   6.172   0.145   1.905 -0.1205  0.1782 -0.3533
 7164TIP3    H142983   6.244   0.118   1.849 -0.1667 -0.6985 -0.0006
 7164TIP3    H242984   6.094   0.134   1.851 -0.1079 -0.0929 -0.3170
 7165TIP3   OH242985   5.431   2.370  11.081 -0.1735  0.8759  0.4673
 7165TIP3    H142986   5.359   2.310  11.102 -1.3575  3.1207  3.4982
 7165TIP3    H242987   5.394   2.431  11.017  0.7652 -0.9038 -1.9349
 7166TIP3   OH242988   5.362   2.910  16.546 -0.0190  0.0085 -0.3828
 7166TIP3    H142989   5.404   2.913  16.460  1.4993  0.4603  0.3389
 7166TIP3    H242990   5.367   3.000  16.578  0.8895 -0.4414  0.8249
 7167TIP3   OH242991   3.820   1.771  14.741 -0.5547  0.3308 -0.2356
 7167TIP3    H142992   3.870   1.720  14.677  1.4674  1.6330  0.1929
 7167TIP3    H242993   3.794   1.707  14.807  0.1319 -0.4997 -0.7406
 7168TIP3   OH242994   3.223   0.207  13.912 -0.3328 -0.6775  0.1234
 7168TIP3    H142995   3.223   0.180  13.820  0.2438  0.7713 -0.3208
 7168TIP3    H242996   3.132   0.195  13.940 -0.2978 -2.1355 -0.2996
 7169TIP3   OH242997   3.760   3.425   1.274  0.3752  0.2179  0.4285
 7169TIP3    H142998   3.844   3.419   1.320  0.9944  1.2866 -0.5316
 7169TIP3    H242999   3.782   3.455   1.186 -0.8971 -0.7233 -0.2489
 7170TIP3   OH243000   3.640   0.690  10.510  0.4035 -0.2171  0.3136
 7170TIP3    H143001   3.718   0.667  10.460  1.6372 -0.6189  2.2740
 7170TIP3    H243002   3.581   0.615  10.499  0.4130 -0.0565 -0.9173
 7171TIP3   OH243003   6.396   5.600   3.815 -0.1973 -0.8417 -0.2823
 7171TIP3    H143004   6.317   5.559   3.850  0.3145 -1.6788 -0.0812
 7171TIP3    H243005   6.393   5.691   3.846 -0.4161 -1.2222  0.8229
 7172TIP3   OH243006   5.144   3.863  12.252 -0.4388  0.0042 -0.1333
 7172TIP3    H143007   5.123   3.828  12.339  0.4479  1.2244  0.6109
 7172TIP3    H243008   5.233   3.832  12.235 -0.0206  1.0457  0.1003
 7173TIP3   OH243009   3.347   6.116   0.723  0.1020 -0.5911 -0.5043
 7173TIP3    H143010   3.423   6.083   0.769  0.4904 -1.2459 -1.5946
 7173TIP3    H243011   3.366   6.209   0.709  1.2225 -0.9728 -1.7318
 7174TIP3   OH243012   6.056   0.510  11.832 -0.4937 -0.2581  0.3811
 7174TIP3    H143013   6.096   0.482  11.750 -1.5365 -1.5052  0.2658
 7174TIP3    H243014   6.090   0.598  11.847  1.2139 -0.7517 -0.3871
 7175TIP3   OH243015   6.611   4.364  15.467 -0.3460 -0.0443 -0.6456
 7175TIP3    H143016   6.615   4.445  15.517 -2.2268 -0.0173 -0.4542
 7175TIP3    H243017   6.668   4.379  15.391  1.6480  0.3245  0.8485
 7176TIP3   OH243018   1.459   6.070  14.971 -0.1834  0.3634 -0.2392
 7176TIP3    H143019   1.384   6.011  14.967  0.0800 -0.0170  0.3244
 7176TIP3    H243020   1.512   6.046  14.894 -0.3274  0.2004 -0.2891
 7177TIP3   OH243021   0.976   2.301  15.794  1.0887  0.0885  0.2280
 7177TIP3    H143022   0.942   2.211  15.790  2.5117 -0.5384  1.4845
 7177TIP3    H243023   0.898   2.356  15.789  0.1316 -1.2313  0.1289
 7178TIP3   OH243024   1.999   5.709  14.230  0.1958  0.1328 -0.2420
 7178TIP3    H143025   2.040   5.715  14.317  0.2469  1.5868 -0.3433
 7178TIP3    H243026   2.038   5.780  14.180 -0.2240 -0.3661 -1.3027
 7179TIP3   OH243027   6.353   0.289   5.314  0.0618  0.3187 -0.9234
 7179TIP3    H143028   6.281   0.252   5.367 -0.7884 -0.4359 -2.5474
 7179TIP3    H243029   6.317   0.370   5.279  1.2159  1.7266  0.9597
 7180TIP3   OH243030   1.350   4.525   2.738 -0.4339  0.0219 -0.0335
 7180TIP3    H143031   1.266   4.481   2.728 -0.6947  0.4832  0.1058
 7180TIP3    H243032   1.359   4.579   2.660  0.9724 -2.0163 -1.3999
 7181TIP3   OH243033   0.258   0.322   1.046  0.3908 -0.1332 -0.5511
 7181TIP3    H143034   0.279   0.371   0.967 -0.2689  0.3772 -0.4218
 7181TIP3    H243035   0.264   0.387   1.117  0.4105 -0.4537 -0.2558
 7182TIP3   OH243036   1.031   6.122   2.787 -0.5487 -0.2106  0.0737
 7182TIP3    H143037   1.044   6.208   2.745  0.1683 -0.7645 -0.8807
 7182TIP3    H243038   1.116   6.101   2.824 -0.9929 -0.0599  1.2041
 7183TIP3   OH243039   0.148   4.961   2.507 -0.2878  0.3717  0.2451
 7183TIP3    H143040   0.209   5.014   2.557 -0.7885  1.0700  0.1243
 7183TIP3    H243041   0.070   4.956   2.563 -0.4081  0.1439  0.0583
 7184TIP3   OH243042   3.952   3.984   9.939 -0.3942 -0.1479 -0.3322
 7184TIP3    H143043   3.913   4.068   9.914 -2.3693 -1.1596 -0.8442
 7184TIP3    H243044   3.963   3.989  10.034 -0.6331  0.6341 -0.3438
 7185TIP3   OH243045   5.415   1.589   3.095 -0.0167  0.0918  0.8142
 7185TIP3    H143046   5.343   1.590   3.158 -1.3016 -0.3604 -0.5880
 7185TIP3    H243047   5.375   1.616   3.012  0.9444 -2.0937 -0.4537
 7186TIP3   OH243048   2.484   5.834  11.437  0.6519  0.0800 -0.4332
 7186TIP3    H143049   2.483   5.751  11.389  2.1393  0.0443 -0.4499
 7186TIP3    H243050   2.573   5.867  11.426  1.3540 -0.3137  2.9263
 7187TIP3   OH243051   0.225   0.007   4.404 -0.2008 -0.2792  0.0960
 7187TIP3    H143052   0.159   0.043   4.463 -1.2592  1.2045 -1.8519
 7187TIP3    H243053   0.222   0.064   4.327  1.5507 -1.7250 -1.1390
 7188TIP3   OH243054   4.248   4.085  13.542  0.3742 -0.0813 -0.5278
 7188TIP3    H143055   4.191   4.157  13.567  0.2387  0.1556 -1.4549
 7188TIP3    H243056   4.188   4.016  13.514  0.5007  0.5692 -2.5901
 7189TIP3   OH243057   3.802   1.274  15.855 -0.4459  0.0576  0.0587
 7189TIP3    H143058   3.811   1.181  15.835  0.2122  0.2513 -0.5739
 7189TIP3    H243059   3.818   1.280  15.949 -0.8978 -0.5142  0.1779
 7190TIP3   OH243060   4.520   2.962   1.797  0.0533 -0.1410 -0.3634
 7190TIP3    H143061   4.613   2.939   1.792 -0.5379 -2.4586 -2.0102
 7190TIP3    H243062   4.494   2.935   1.885  0.5261 -1.1794 -0.5319
 7191TIP3   OH243063   4.079   4.650   5.523 -0.1524 -0.0321 -0.3907
 7191TIP3    H143064   4.083   4.613   5.435 -2.4857  3.4491 -2.2035
 7191TIP3    H243065   4.141   4.722   5.522 -0.9393  0.6902  0.4612
 7192TIP3   OH243066   6.511   4.348  12.316 -1.0483 -0.2789 -0.8204
 7192TIP3    H143067   6.499   4.349  12.221  0.4719 -1.2008 -1.0541
 7192TIP3    H243068   6.580   4.284  12.331 -1.9780 -0.9193  1.0128
 7193TIP3   OH243069   2.725   2.149  13.109  0.5892 -0.0275 -0.4924
 7193TIP3    H143070   2.764   2.075  13.155  1.2639  0.8549  0.4145
 7193TIP3    H243071   2.698   2.209  13.178 -2.0571 -0.3861 -1.0941
 7194TIP3   OH243072   1.875   5.703   0.701  0.3767  0.7417  0.1751
 7194TIP3    H143073   1.890   5.636   0.768 -0.0975  0.8716  0.4165
 7194TIP3    H243074   1.952   5.759   0.705 -0.0938  1.3278  1.3021
 7195TIP3   OH243075   0.704   6.876  12.183 -0.8244 -0.3094 -0.0151
 7195TIP3    H143076   0.710   6.915  12.270 -2.5846  0.9162 -0.3893
 7195TIP3    H243077   0.676   6.786  12.199 -2.6406  0.3250  0.7004
 7196TIP3   OH243078   5.334   5.685   3.248  0.4259 -0.7294 -0.0835
 7196TIP3    H143079   5.407   5.737   3.214 -0.3837  1.9026  1.8421
 7196TIP3    H243080   5.270   5.685   3.177  1.0815 -0.3926 -0.6890
 7197TIP3   OH243081   6.869   6.539  10.486  0.6068 -0.1085  0.0526
 7197TIP3    H143082   6.928   6.498  10.549 -0.9948 -0.9427  1.0594
 7197TIP3    H243083   6.788   6.489  10.492 -0.6836  1.8229 -0.3003
 7198TIP3   OH243084   2.235   1.724   5.621  0.3522 -0.2712 -0.1676
 7198TIP3    H143085   2.312   1.671   5.602  0.3426  0.5203 -2.6688
 7198TIP3    H243086   2.226   1.783   5.547 -1.6238  0.9237  0.9139
 7199TIP3   OH243087   5.754   2.215  10.605 -0.4764  0.3169  0.0180
 7199TIP3    H143088   5.727   2.124  10.621  0.1929 -0.3767 -2.4623
 7199TIP3    H243089   5.849   2.213  10.615 -0.2492  0.2797 -1.8268
 7200TIP3   OH243090   3.593   1.535   0.966 -0.2660 -0.2864  0.2554
 7200TIP3    H143091   3.610   1.607   0.905 -0.6226  1.4432  2.0928
 7200TIP3    H243092   3.505   1.552   0.999  0.3976 -0.4389  2.1864
 7201TIP3   OH243093   2.271   2.249   1.600  0.0186 -0.3446 -0.1653
 7201TIP3    H143094   2.188   2.276   1.638 -0.5175  0.4304 -1.7888
 7201TIP3    H243095   2.287   2.161   1.634 -2.2796 -1.1765 -1.0946
 7202TIP3   OH243096   1.280   6.074  16.939 -0.2176 -0.4834  0.0000
 7202TIP3    H143097   1.220   6.058  17.012  0.4507  1.0120  0.9254
 7202TIP3    H243098   1.283   6.169  16.931  2.1233 -0.5002  0.0752
 7203TIP3   OH243099   2.703   5.435   3.755 -0.1700 -0.2533 -0.0907
 7203TIP3    H143100   2.643   5.432   3.829 -1.8303  1.1218 -1.2733
 7203TIP3    H243101   2.705   5.346   3.721 -3.2635 -0.0281 -1.2051
 7204TIP3   OH243102   6.290   6.646  12.515  0.0971 -0.1295 -0.1381
 7204TIP3    H143103   6.358   6.713  12.523  1.3307 -1.4452  0.8056
 7204TIP3    H243104   6.335   6.570  12.479 -0.9403 -0.9379  0.2422
 7205TIP3   OH243105   0.975   5.052  13.627 -0.2822  0.2268  0.1103
 7205TIP3    H143106   0.887   5.088  13.627 -0.7787 -0.9327  0.6478
 7205TIP3    H243107   1.032   5.128  13.634 -1.3019  0.8762  2.2890
 7206TIP3   OH243108   2.933   0.896  13.145  0.2164  0.5758 -0.1075
 7206TIP3    H143109   2.946   0.824  13.207 -0.6406  0.8481  0.3938
 7206TIP3    H243110   2.852   0.874  13.099 -1.3826  2.3308  1.6748
 7207TIP3   OH243111   3.706   4.862  16.982 -0.2332  1.1189 -0.8156
 7207TIP3    H143112   3.613   4.875  16.998 -0.0861  0.3529  0.9042
 7207TIP3    H243113   3.740   4.827  17.065  1.2192 -0.4545 -2.0087
 7208TIP3   OH243114   1.137   1.715   3.901  0.3269 -0.2610 -0.0464
 7208TIP3    H143115   1.174   1.772   3.834  0.2816  0.2110  0.3302
 7208TIP3    H243116   1.211   1.692   3.957  0.3080 -0.4205 -0.0856
 7209TIP3   OH243117   2.683   6.314  12.185  0.1282 -0.0553 -0.2517
 7209TIP3    H143118   2.776   6.301  12.200  0.2529 -0.9935 -1.6535
 7209TIP3    H243119   2.663   6.399  12.224  2.1356  1.4372 -2.2732
 7210TIP3   OH243120   4.171   0.532   5.872  0.1349 -0.4664  0.1004
 7210TIP3    H143121   4.100   0.472   5.895 -1.5378  1.1557 -0.5577
 7210TIP3    H243122   4.171   0.597   5.942  0.2070  0.1496 -0.4524
 7211TIP3   OH243123   1.280   1.206  16.159  0.4535 -0.5432  0.3164
 7211TIP3    H143124   1.319   1.120  16.141 -0.2929 -0.9815  0.7634
 7211TIP3    H243125   1.289   1.217  16.254  0.1043 -0.3399  0.3269
 7212TIP3   OH243126   3.864   2.124   1.332  0.4532 -0.5838 -0.3279
 7212TIP3    H143127   3.787   2.171   1.362  0.3824 -1.1593  0.4173
 7212TIP3    H243128   3.830   2.044   1.292  0.6700 -1.2848  0.8167
 7213TIP3   OH243129   0.339   0.552   5.838 -0.6254 -0.2857 -0.0861
 7213TIP3    H143130   0.341   0.553   5.743  0.1576  2.4693 -0.1251
 7213TIP3    H243131   0.258   0.505   5.860 -0.0575 -2.3000 -2.0107
 7214TIP3   OH243132   5.797   1.083  15.813 -0.1784  0.0872  0.6686
 7214TIP3    H143133   5.728   1.019  15.795  0.6979 -1.1357  1.5246
 7214TIP3    H243134   5.755   1.168  15.796 -1.9902 -0.5929  1.4532
 7215TIP3   OH243135   2.366   1.802  12.446  0.2977  0.5042  0.8435
 7215TIP3    H143136   2.308   1.873  12.473  0.3709  1.0179 -0.3222
 7215TIP3    H243137   2.434   1.844  12.395  0.8523 -0.2987  0.8946
 7216TIP3   OH243138   3.411   4.659  13.767 -0.2252 -0.6841 -0.2270
 7216TIP3    H143139   3.432   4.749  13.740  0.9432 -0.8087  0.2208
 7216TIP3    H243140   3.323   4.666  13.805  1.0953  1.0185  2.9569
 7217TIP3   OH243141   5.630   2.333  12.539 -0.1022  0.1895 -0.7227
 7217TIP3    H143142   5.643   2.274  12.464  0.7323 -1.6510  0.8035
 7217TIP3    H243143   5.698   2.309  12.601 -0.8443  1.5923  0.7087
 7218TIP3   OH243144   0.169   4.868  16.836 -0.0644  0.3386  0.1179
 7218TIP3    H143145   0.224   4.935  16.875  1.1496 -0.5020 -0.0889
 7218TIP3    H243146   0.209   4.852  16.750 -0.5872 -0.3602 -0.0013
 7219TIP3   OH243147   5.991   0.227  14.290 -0.0844  0.6247 -0.4137
 7219TIP3    H143148   6.067   0.187  14.248  0.6346  0.8022  0.6956
 7219TIP3    H243149   5.976   0.308  14.240 -0.2270  0.0619 -1.3105
 7220TIP3   OH243150   0.660   0.628  16.219 -0.2625  0.3338  0.1570
 7220TIP3    H143151   0.584   0.664  16.172 -0.2279 -1.2377 -1.2204
 7220TIP3    H243152   0.686   0.697  16.279 -0.4239  2.4279 -2.0344
 7221TIP3   OH243153   0.947   1.073  12.662  0.0730 -0.6430  0.6541
 7221TIP3    H143154   0.875   1.041  12.716 -0.7776  0.4372  0.2088
 7221TIP3    H243155   0.927   1.166  12.648  0.6910 -0.6927 -0.8179
 7222TIP3   OH243156   2.479   2.960   2.109 -0.2459  0.2550 -0.3158
 7222TIP3    H143157   2.561   2.920   2.135 -0.5528 -0.0719  0.1527
 7222TIP3    H243158   2.498   2.999   2.023  1.2368  2.7469  1.0276
 7223TIP3   OH243159   2.062   2.983  10.665  0.3332  0.2140  0.5391
 7223TIP3    H143160   2.001   2.909  10.664  0.4390  0.1293  0.1003
 7223TIP3    H243161   2.058   3.019  10.576 -0.6845  1.5483  1.0832
 7224TIP3   OH243162   2.293   6.187  12.922 -0.0684  0.7749 -0.0419
 7224TIP3    H143163   2.378   6.162  12.958 -0.0250 -0.8313 -1.1375
 7224TIP3    H243164   2.230   6.138  12.975 -0.0786 -0.5683 -1.2316
 7225TIP3   OH243165   6.450   0.246  12.529  0.2040  0.4082 -0.7855
 7225TIP3    H143166   6.470   0.336  12.554 -0.1355  0.2337  0.1311
 7225TIP3    H243167   6.402   0.255  12.446 -0.6119  1.1270 -0.2557
 7226TIP3   OH243168   4.509   5.761  12.822  0.3976 -0.6873 -0.8249
 7226TIP3    H143169   4.481   5.686  12.769  0.1309 -0.2970 -1.2517
 7226TIP3    H243170   4.603   5.751  12.830  0.3999 -0.9294 -1.1049
 7227TIP3   OH243171   4.013   4.479  16.585 -0.2025  0.2963  0.0709
 7227TIP3    H143172   3.959   4.553  16.615  1.5035  1.4614  0.3872
 7227TIP3    H243173   4.066   4.456  16.661  1.4161  0.7348 -0.8829
 7228TIP3   OH243174   6.759   1.851   5.359 -0.7539  0.2978 -0.4211
 7228TIP3    H143175   6.835   1.881   5.309 -0.6551  1.5717  0.4234
 7228TIP3    H243176   6.777   1.759   5.378  0.0809  0.3048 -1.1218
 7229TIP3   OH243177   0.351   1.719  14.373  0.4613  0.2289  0.5396
 7229TIP3    H143178   0.418   1.718  14.441  1.2462 -2.2498 -0.1421
 7229TIP3    H243179   0.393   1.676  14.298 -2.2669 -2.9637  0.6021
 7230TIP3   OH243180   5.819   2.826   5.782 -0.0698 -0.8647  0.1644
 7230TIP3    H143181   5.747   2.877   5.745  0.7221  0.3575  0.2807
 7230TIP3    H243182   5.801   2.824   5.876 -1.1172 -2.4505 -0.0334
 7231TIP3   OH243183   6.670   6.781   3.055 -0.1892 -0.6059 -0.4277
 7231TIP3    H143184   6.575   6.781   3.064 -0.2027 -0.7912 -0.5469
 7231TIP3    H243185   6.698   6.867   3.086 -0.4535 -0.2968 -1.0159
 7232TIP3   OH243186   6.652   5.109  16.302  0.4891 -0.0206  0.2334
 7232TIP3    H143187   6.736   5.155  16.309  0.5568 -0.3123  1.7531
 7232TIP3    H243188   6.643   5.065  16.386 -0.8446 -0.6066 -0.2014
 7233TIP3   OH243189   6.202   5.851   3.434  0.8487 -0.3835 -0.6413
 7233TIP3    H143190   6.224   5.941   3.459 -2.0621  0.2499 -0.0620
 7233TIP3    H243191   6.273   5.798   3.471  0.4412  1.2435  2.8430
 7234TIP3   OH243192   4.009   3.923   0.157  0.2388  0.9145  0.5208
 7234TIP3    H143193   3.917   3.906   0.175  0.2434 -0.8401 -0.8168
 7234TIP3    H243194   4.049   3.836   0.155  2.2554  1.6960  2.5324
 7235TIP3   OH243195   0.105   6.725   0.271  0.7005 -0.2607  0.2747
 7235TIP3    H143196   0.122   6.673   0.349  1.5549 -2.7846 -1.4910
 7235TIP3    H243197   0.010   6.740   0.272  0.2778 -2.6513  0.4173
 7236TIP3   OH243198   3.670   5.930   5.440 -0.3237  0.0099 -0.6644
 7236TIP3    H143199   3.689   5.838   5.422 -0.9545 -0.0196 -1.2090
 7236TIP3    H243200   3.659   5.934   5.535  1.8551 -0.0588 -0.3519
 7237TIP3   OH243201   2.324   0.205  13.512 -0.1372  0.2898  0.6138
 7237TIP3    H143202   2.341   0.143  13.441 -0.7287  1.2361 -0.3843
 7237TIP3    H243203   2.407   0.208  13.561  0.9403  1.0449 -1.1683
 7238TIP3   OH243204   3.648   0.289  15.218  0.4126 -0.3377 -0.3643
 7238TIP3    H143205   3.554   0.305  15.219  0.2824 -0.8806  1.4861
 7238TIP3    H243206   3.657   0.200  15.185  0.3219 -0.1205 -0.9818
 7239TIP3   OH243207   2.115   4.415   2.174 -0.7174  0.0743 -0.2084
 7239TIP3    H143208   2.179   4.478   2.207 -0.8591  0.1621 -0.1028
 7239TIP3    H243209   2.049   4.468   2.130 -0.8409 -0.0009 -0.1142
 7240TIP3   OH243210   4.200   0.079  15.476 -0.5093  0.0704 -0.8533
 7240TIP3    H143211   4.211  -0.002  15.426  1.2848 -0.6318  0.5715
 7240TIP3    H243212   4.229   0.148  15.417 -0.5982 -0.4842 -1.5586
 7241TIP3   OH243213   3.126   4.740  16.317 -0.0116  0.4910 -0.1776
 7241TIP3    H143214   3.051   4.789  16.351  0.4987  0.3230  1.2788
 7241TIP3    H243215   3.088   4.659  16.282 -0.5296  0.4310  0.4988
 7242TIP3   OH243216   1.779   5.263   2.528  0.3049 -0.3001  0.2130
 7242TIP3    H143217   1.796   5.169   2.519  2.9697  0.1839 -0.7210
 7242TIP3    H243218   1.728   5.270   2.609  0.2905 -2.5184  0.4666
 7243TIP3   OH243219   4.941   4.053  14.090 -0.5342  0.3441  0.1280
 7243TIP3    H143220   4.996   4.069  14.166  0.2375  0.3037 -0.4162
 7243TIP3    H243221   4.982   4.103  14.019 -1.1534  0.2562 -0.3019
 7244TIP3   OH243222   3.208   5.937   0.085 -0.2287  0.4359  0.4195
 7244TIP3    H143223   3.154   5.976   0.154 -0.6758  0.5961 -0.0185
 7244TIP3    H243224   3.188   5.988   0.007 -0.2462 -0.1813  0.0140
 7245TIP3   OH243225   4.968   1.560   1.854  0.7916  0.8438  0.0540
 7245TIP3    H143226   4.979   1.531   1.763 -0.2741  0.8812 -0.1073
 7245TIP3    H243227   4.883   1.523   1.880  1.7021 -0.3465  1.5148
 7246TIP3   OH243228   4.524   6.288   0.801  0.1593 -0.1106  0.4188
 7246TIP3    H143229   4.434   6.303   0.773 -0.2749 -1.7824  0.8653
 7246TIP3    H243230   4.566   6.374   0.790 -1.5356  0.7687  0.4773
 7247TIP3   OH243231   1.878   0.642   3.812 -0.6658 -0.2814 -0.2204
 7247TIP3    H143232   1.829   0.626   3.732 -0.6107 -0.0331 -0.3051
 7247TIP3    H243233   1.860   0.733   3.834  0.7727  0.2097 -0.9644
 7248TIP3   OH243234   5.659   6.384   3.823 -0.0795  0.4004 -0.0078
 7248TIP3    H143235   5.746   6.345   3.831  0.2395  1.3099  1.0740
 7248TIP3    H243236   5.675   6.467   3.778 -0.3505  0.7087  0.4691
 7249TIP3   OH243237   5.065   6.564   0.565 -0.4556 -0.0333 -0.4446
 7249TIP3    H143238   4.974   6.555   0.592 -0.8810 -1.1161 -2.0551
 7249TIP3    H243239   5.115   6.561   0.646 -1.9172  2.5902  0.6867
 7250TIP3   OH243240   6.242   4.919   1.904 -0.5767 -0.1825 -0.2601
 7250TIP3    H143241   6.186   4.978   1.955 -0.1651 -1.1745  1.3966
 7250TIP3    H243242   6.192   4.838   1.898  0.0342 -0.5768 -0.0894
 7251TIP3   OH243243   6.109   0.773   6.113  0.5415  0.2460  0.3526
 7251TIP3    H143244   6.193   0.742   6.077  0.5636  1.0579 -0.3148
 7251TIP3    H243245   6.053   0.695   6.113  0.7928  0.0427 -0.7182
 7252TIP3   OH243246   0.020   6.802  12.578 -0.3013 -0.0410 -0.0441
 7252TIP3    H143247   0.105   6.831  12.545  1.8609 -0.9692  4.1024
 7252TIP3    H243248  -0.026   6.883  12.601  0.7936  0.4203  0.5814
 7253TIP3   OH243249   5.907   3.886   2.910 -0.3607 -0.0596 -0.2645
 7253TIP3    H143250   5.831   3.918   2.862 -2.0090 -1.6979  1.1062
 7253TIP3    H243251   5.942   3.814   2.857 -1.1785 -0.7878  0.1621
 7254TIP3   OH243252   6.444   1.715   3.587 -0.2109 -0.2282  0.2905
 7254TIP3    H143253   6.477   1.796   3.549  3.2623 -1.3231  0.6049
 7254TIP3    H243254   6.485   1.711   3.674  0.5374 -2.7235 -0.0980
 7255TIP3   OH243255   0.253   4.852   6.601 -0.3851 -0.1702 -0.2317
 7255TIP3    H143256   0.336   4.806   6.590 -0.8792 -1.3130  0.5541
 7255TIP3    H243257   0.273   4.943   6.583  0.6670 -0.6699 -1.7336
 7256TIP3   OH243258   3.603   6.324   5.088 -0.0950 -0.0847 -0.2793
 7256TIP3    H143259   3.645   6.409   5.076 -0.6710  0.0948 -1.0989
 7256TIP3    H243260   3.533   6.341   5.151 -0.2546  0.0714 -0.4956
 7257TIP3   OH243261   6.654   2.635  12.578 -0.1612  0.3345 -0.1835
 7257TIP3    H143262   6.696   2.640  12.664  0.3323  0.0531 -0.4014
 7257TIP3    H243263   6.707   2.691  12.522 -0.2576  0.2202 -0.3927
 7258TIP3   OH243264   4.437   6.542  16.601  0.4377 -0.0988 -0.3309
 7258TIP3    H143265   4.437   6.637  16.618  0.7171 -0.2447  0.5492
 7258TIP3    H243266   4.356   6.526  16.552  0.1062  0.5097  0.0073
 7259TIP3   OH243267   1.988   3.006  11.462  0.3439  0.0908  0.3691
 7259TIP3    H143268   2.055   3.045  11.518 -0.7487  0.3184  1.5401
 7259TIP3    H243269   1.914   3.066  11.465 -0.4486 -0.8402  0.2222
 7260TIP3   OH243270   5.501   5.234  10.886 -0.3037 -0.3726  0.9578
 7260TIP3    H143271   5.422   5.200  10.845 -1.0272  2.1512  0.0611
 7260TIP3    H243272   5.553   5.267  10.813  0.3434  0.3892  1.7404
 7261TIP3   OH243273   0.549   2.741   5.585 -0.1347  0.0302  0.7268
 7261TIP3    H143274   0.561   2.711   5.675  1.9469 -0.5640  0.3104
 7261TIP3    H243275   0.638   2.752   5.552 -0.8543  0.2277 -1.2755
 7262TIP3   OH243276   0.998   3.725   2.351 -0.0815  0.3504 -0.4965
 7262TIP3    H143277   1.065   3.664   2.321  0.9254  2.0379 -1.8046
 7262TIP3    H243278   0.980   3.780   2.275 -0.1430  2.4051  0.9454
 7263TIP3   OH243279   3.074   6.558  13.653 -0.0448 -0.2387 -0.4072
 7263TIP3    H143280   3.069   6.546  13.748  0.6408 -2.6532 -0.6061
 7263TIP3    H243281   3.149   6.616  13.641  1.1477 -1.5069  0.5033
 7264TIP3   OH243282   1.139   1.068  11.000  0.1084  0.1396  0.4335
 7264TIP3    H143283   1.123   1.047  10.907 -0.1108  0.6228  0.3606
 7264TIP3    H243284   1.206   1.005  11.027 -0.5346 -0.6630  0.2165
 7265TIP3   OH243285   2.585   6.225   2.870 -0.0078 -1.0369 -0.3233
 7265TIP3    H143286   2.565   6.318   2.878  0.2989 -0.9967  0.0132
 7265TIP3    H243287   2.506   6.180   2.897  0.0936 -0.8771  0.2500
 7266TIP3   OH243288   4.611   2.394  14.616 -0.4064  0.4579  0.5438
 7266TIP3    H143289   4.601   2.444  14.535 -0.8778 -1.6512 -0.7757
 7266TIP3    H243290   4.521   2.376  14.644 -0.2414  0.6129  1.1937
 7267TIP3   OH243291   1.301   6.540   0.149 -0.1114 -0.1326  0.3001
 7267TIP3    H143292   1.223   6.591   0.172  1.7534  2.1501  2.0972
 7267TIP3    H243293   1.289   6.456   0.192 -1.9662 -0.2089 -0.2830
 7268TIP3   OH243294   1.877   4.890   3.985 -0.2592 -0.4488  0.2142
 7268TIP3    H143295   1.882   4.983   3.963 -0.5260 -0.1189  1.4494
 7268TIP3    H243296   1.848   4.889   4.077 -1.4065 -1.7772 -0.1296
 7269TIP3   OH243297   3.059   2.703   4.318  0.0297 -0.0288  0.2865
 7269TIP3    H143298   2.988   2.756   4.354  0.1306  1.5058 -1.6367
 7269TIP3    H243299   3.016   2.626   4.282 -0.3421 -0.3139  1.2979
 7270TIP3   OH243300   2.824   4.570   3.700  0.2578  0.1548  0.4413
 7270TIP3    H143301   2.747   4.615   3.734  0.1745  0.1179  0.2972
 7270TIP3    H243302   2.805   4.477   3.710  0.0887  0.1374 -0.0333
 7271TIP3   OH243303   6.197   2.970  11.576  1.0270  0.6053 -0.1733
 7271TIP3    H143304   6.241   2.979  11.660  0.9249  1.6418 -0.2154
 7271TIP3    H243305   6.185   2.876  11.565  0.1356  0.4858  1.4503
 7272TIP3   OH243306   2.850   0.863   3.431  0.0066 -0.3695  0.2689
 7272TIP3    H143307   2.800   0.863   3.512 -0.5201 -0.1011 -0.0541
 7272TIP3    H243308   2.794   0.907   3.367  1.2592  1.2740  0.2606
 7273TIP3   OH243309   6.150   1.141   4.846  0.1495  0.2276  0.5141
 7273TIP3    H143310   6.057   1.121   4.837  0.1952 -1.2066  2.6219
 7273TIP3    H243311   6.154   1.237   4.843 -1.1040  0.2847 -1.5290
 7274TIP3   OH243312   1.599   6.699  13.300 -0.2500  0.4583 -0.6307
 7274TIP3    H143313   1.640   6.622  13.263  0.1942  1.0908 -1.4806
 7274TIP3    H243314   1.506   6.691  13.278 -1.3090 -2.3335  3.5379
 7275TIP3   OH243315   3.216   4.800   0.917 -0.3644 -0.0061 -0.1594
 7275TIP3    H143316   3.227   4.706   0.930 -1.3325 -0.0513  0.4077
 7275TIP3    H243317   3.224   4.813   0.822  1.3090 -0.4312 -0.1155
 7276TIP3   OH243318   0.545   2.869   2.637  0.0127 -0.0292  0.2028
 7276TIP3    H143319   0.599   2.833   2.566  0.1941 -0.4179  0.5366
 7276TIP3    H243320   0.570   2.961   2.642 -0.1050  0.0375 -0.3351
 7277TIP3   OH243321   0.657   6.051  12.333 -0.3061 -0.0096 -0.6244
 7277TIP3    H143322   0.729   6.094  12.379 -0.9201  1.0685 -0.6332
 7277TIP3    H243323   0.693   6.027  12.248  0.6820 -1.5232  0.1767
 7278TIP3   OH243324   6.119   4.134  14.914 -0.3609 -0.2193  0.1192
 7278TIP3    H143325   6.089   4.160  15.001  1.3706  0.2735  0.6239
 7278TIP3    H243326   6.124   4.216  14.865  1.3311 -0.0526  0.4778
 7279TIP3   OH243327   2.836   5.365  12.689  0.2392  0.0555  0.1582
 7279TIP3    H143328   2.746   5.381  12.660  0.2253 -0.9036 -0.3729
 7279TIP3    H243329   2.890   5.381  12.612  0.7315  2.2265  0.8827
 7280TIP3   OH243330   2.897   6.724  14.821  0.5137 -0.0235  0.3851
 7280TIP3    H143331   2.937   6.688  14.742 -1.0977  1.7883 -1.3671
 7280TIP3    H243332   2.966   6.775  14.861  1.1684 -0.4040 -0.2316
 7281TIP3   OH243333   1.550   3.417   4.335  0.4809 -0.2508 -0.0407
 7281TIP3    H143334   1.570   3.325   4.317  2.0096 -0.0299  0.4091
 7281TIP3    H243335   1.593   3.466   4.265  1.8984  0.2521  1.1143
 7282TIP3   OH243336   4.325   6.349  11.593  0.1196 -0.3731  0.2783
 7282TIP3    H143337   4.276   6.271  11.568 -0.5843  0.1149  0.1146
 7282TIP3    H243338   4.265   6.421  11.578  0.4817  0.1395  1.2084
 7283TIP3   OH243339   1.942   5.219  11.868 -0.4481  0.0303  0.3071
 7283TIP3    H143340   1.982   5.284  11.810 -0.9069  0.0827  0.0472
 7283TIP3    H243341   1.927   5.143  11.812  0.2217 -0.3582  0.6447
 7284TIP3   OH243342   3.879   6.102  11.194  0.1996  0.0810  0.8576
 7284TIP3    H143343   3.815   6.096  11.122  1.4663  0.9115 -0.4014
 7284TIP3    H243344   3.826   6.102  11.273 -1.2247 -1.4685 -0.0386
 7285TIP3   OH243345   0.594   0.078   3.663  0.4839 -0.0749 -0.4385
 7285TIP3    H143346   0.641  -0.004   3.673  1.3493  0.0974 -2.5742
 7285TIP3    H243347   0.525   0.075   3.729  0.9741 -2.1582  0.0335
 7286TIP3   OH243348   2.273   4.302   1.592 -0.7990 -0.3946 -0.3867
 7286TIP3    H143349   2.199   4.303   1.532 -1.9543 -1.8629  0.9422
 7286TIP3    H243350   2.246   4.356   1.666  0.4954  1.1595 -0.9897
 7287TIP3   OH243351   6.175   3.620  14.182 -0.5107 -0.0743 -0.3103
 7287TIP3    H143352   6.123   3.577  14.113 -0.3585  1.1505 -1.2208
 7287TIP3    H243353   6.231   3.682  14.135 -0.9231  1.3284  0.9741
 7288TIP3   OH243354   3.102   0.995  11.944  0.2438 -0.2314 -0.2870
 7288TIP3    H143355   3.084   0.991  12.038 -0.5028 -0.8373 -0.4488
 7288TIP3    H243356   3.196   0.976  11.937  0.4213  0.3715  0.3716
 7289TIP3   OH243357   5.485   5.492   3.359 -0.8143 -0.1625 -0.0523
 7289TIP3    H143358   5.543   5.492   3.283  0.6229  1.3790  0.9680
 7289TIP3    H243359   5.419   5.559   3.339 -1.0902 -0.5149 -0.3595
 7290TIP3   OH243360   1.859   5.244  13.926  0.1354  0.0448 -0.0263
 7290TIP3    H143361   1.889   5.243  13.835  0.4527  1.3173  0.0340
 7290TIP3    H243362   1.902   5.169  13.967 -1.5379 -1.7387 -1.3469
 7291TIP3   OH243363   0.188   3.277  14.342  0.7212 -0.1583  0.3241
 7291TIP3    H143364   0.268   3.306  14.384  0.6843 -0.0483  0.3180
 7291TIP3    H243365   0.203   3.291  14.248 -0.4250  2.7338  0.4776
 7292TIP3   OH243366   0.017   2.315   4.488 -0.0309 -0.4131 -0.0732
 7292TIP3    H143367   0.080   2.377   4.525 -0.4625 -0.0978  0.1422
 7292TIP3    H243368   0.062   2.231   4.492  1.1256  0.0755 -1.7035
 7293TIP3   OH243369   5.354   5.733  16.493 -0.3972 -0.0620 -0.0748
 7293TIP3    H143370   5.412   5.660  16.471 -0.0778 -0.5905  2.2295
 7293TIP3    H243371   5.266   5.696  16.490 -0.5591  0.3918 -2.2455
 7294TIP3   OH243372   5.917   3.541  13.411  0.1495 -0.3771  0.5002
 7294TIP3    H143373   5.837   3.590  13.393  0.4193 -0.0754  0.0714
 7294TIP3    H243374   5.964   3.595  13.474  0.9660  0.5118 -0.8159
 7295TIP3   OH243375   5.273   5.769   3.569 -0.4626 -0.2588 -0.2561
 7295TIP3    H143376   5.279   5.820   3.489 -4.5401 -1.7067 -1.8000
 7295TIP3    H243377   5.278   5.833   3.640 -1.1714  1.7003 -1.8980
 7296TIP3   OH243378   4.071   0.227  11.255  0.2319 -0.3446 -0.0576
 7296TIP3    H143379   4.030   0.164  11.313 -1.2830 -1.1194 -1.8623
 7296TIP3    H243380   4.052   0.312  11.294 -3.4550 -0.6244 -0.8564
 7297TIP3   OH243381   3.453   0.284  11.644 -0.1194  0.4143 -0.1572
 7297TIP3    H143382   3.500   0.201  11.656 -1.8614 -0.4664  0.9346
 7297TIP3    H243383   3.481   0.314  11.558  1.2352 -0.8398 -0.2178
 7298TIP3   OH243384   1.553   3.265  11.663  0.3222 -0.0734  0.1306
 7298TIP3    H143385   1.543   3.260  11.758  1.1858  0.7308  0.2733
 7298TIP3    H243386   1.564   3.359  11.645  0.1441 -0.2166 -0.7649
 7299TIP3   OH243387   5.772   6.448  15.784 -0.3108 -0.2618  0.0716
 7299TIP3    H143388   5.707   6.377  15.781 -0.7649  0.0623  1.3430
 7299TIP3    H243389   5.719   6.527  15.791  0.2082  0.1385 -0.5371
 7300TIP3   OH243390   3.357   0.596  16.751  0.0096 -0.3961 -0.1176
 7300TIP3    H143391   3.371   0.669  16.811  1.3510 -0.8023  0.0856
 7300TIP3    H243392   3.389   0.520  16.798 -1.7047 -1.2161 -0.1815
 7301TIP3   OH243393   5.964   5.012  13.675  0.4595 -0.4305 -0.2973
 7301TIP3    H143394   5.968   5.107  13.678  1.1733 -0.4812  0.8234
 7301TIP3    H243395   5.977   4.984  13.765 -1.4626 -1.5516 -0.3127
 7302TIP3   OH243396   5.871   1.270  12.424  0.8294  0.3943 -0.1320
 7302TIP3    H143397   5.896   1.221  12.345  1.0152  0.4688 -0.1221
 7302TIP3    H243398   5.921   1.228  12.495 -0.3516 -0.5364  0.1799
 7303TIP3   OH243399   1.579   0.898   0.299  0.2739  0.2944  0.1541
 7303TIP3    H143400   1.626   0.977   0.273 -1.4620  0.9306 -1.2436
 7303TIP3    H243401   1.633   0.826   0.266  1.6103  0.8648  0.9909
 7304TIP3   OH243402   2.053   6.802   3.164  0.3387  0.1068 -0.3035
 7304TIP3    H143403   2.100   6.799   3.247 -1.2291  0.2168  0.6231
 7304TIP3    H243404   2.121   6.813   3.098  1.5827  0.3958  0.9938
 7305TIP3   OH243405   1.368   3.824  10.619 -0.7185  0.4007  0.5093
 7305TIP3    H143406   1.336   3.736  10.637 -0.1837  0.2781  0.8753
 7305TIP3    H243407   1.298   3.865  10.568 -1.5034  0.1755  1.3707
 7306TIP3   OH243408   5.899   2.937   3.887 -0.3624 -0.2988 -0.0040
 7306TIP3    H143409   5.986   2.922   3.922 -0.6256 -0.2063  0.7213
 7306TIP3    H243410   5.842   2.878   3.936 -0.8810  0.5166  0.4108
 7307TIP3   OH243411   0.804   6.580   0.895  0.3739 -0.4640 -0.3106
 7307TIP3    H143412   0.716   6.542   0.893  0.4128 -0.6091  0.4723
 7307TIP3    H243413   0.802   6.643   0.966  0.9225 -0.5032 -0.2535
 7308TIP3   OH243414   5.398   3.946  11.548 -0.5203  0.6792  0.5086
 7308TIP3    H143415   5.317   3.902  11.572  0.4095 -1.2240  0.3097
 7308TIP3    H243416   5.403   3.938  11.453 -0.8237  2.1673  0.3366
 7309TIP3   OH243417   3.252   6.854   2.918  0.8386 -0.1302 -0.4358
 7309TIP3    H143418   3.321   6.811   2.969 -0.7073 -0.2561  1.6417
 7309TIP3    H243419   3.228   6.789   2.852 -0.0946 -1.7990  1.4220
 7310TIP3   OH243420   1.136   3.284  12.769  0.6718  0.6865 -0.3251
 7310TIP3    H143421   1.104   3.194  12.782  1.6008  0.4096  0.1332
 7310TIP3    H243422   1.160   3.288  12.676 -1.2947  1.1194 -0.8670
 7311TIP3   OH243423   3.493   3.951   0.104  0.1994  0.3419  0.3752
 7311TIP3    H143424   3.456   4.002   0.031  0.4779  2.1257  1.4116
 7311TIP3    H243425   3.418   3.922   0.155  0.0413 -0.2339 -0.1756
 7312TIP3   OH243426   4.749   5.092   4.409 -0.5706 -1.0109  0.0526
 7312TIP3    H143427   4.672   5.147   4.425  0.4202  0.4767 -0.0306
 7312TIP3    H243428   4.716   5.021   4.354 -1.6000  0.4996 -1.4147
 7313TIP3   OH243429   4.620   3.043   2.382 -0.5728  0.0299  0.2685
 7313TIP3    H143430   4.572   3.115   2.423 -0.0455 -0.1434  1.2213
 7313TIP3    H243431   4.704   3.040   2.428 -1.4481 -2.6572  1.8883
 7314TIP3   OH243432   5.490   6.857  11.910  0.1639 -0.8598 -0.3516
 7314TIP3    H143433   5.467   6.782  11.856  0.9377 -1.0270 -0.4652
 7314TIP3    H243434   5.584   6.870  11.894  0.5011 -1.1316  1.1938
 7315TIP3   OH243435   1.460   2.218  16.360  0.3285 -0.0225 -0.4479
 7315TIP3    H143436   1.441   2.306  16.327  0.1908  0.4052  0.7431
 7315TIP3    H243437   1.407   2.161  16.305 -2.3532  0.9072  0.9370
 7316TIP3   OH243438   6.018   5.685   3.724  0.1431 -0.6869  0.3420
 7316TIP3    H143439   6.043   5.613   3.782  0.5768 -0.8550 -0.0551
 7316TIP3    H243440   6.011   5.645   3.637  0.6508 -0.2028  0.0714
 7317TIP3   OH243441   3.634   6.104   0.389 -0.3804 -0.6264 -0.0368
 7317TIP3    H143442   3.604   6.047   0.460  0.5944 -0.9175  0.1532
 7317TIP3    H243443   3.578   6.181   0.396  1.1103  0.3686  2.5065
 7318TIP3   OH243444   1.359   0.853  13.685  0.4973 -0.0348 -0.5507
 7318TIP3    H143445   1.371   0.792  13.613 -3.2376  0.1002 -1.4572
 7318TIP3    H243446   1.387   0.938  13.650  0.2222 -0.2494 -1.3031
 7319TIP3   OH243447   4.961   5.410   0.385  0.0388  0.0312  0.1003
 7319TIP3    H143448   4.903   5.409   0.462 -0.2089  0.1592 -0.0808
 7319TIP3    H243449   4.904   5.384   0.312  0.3828 -0.5491  0.0317
 7320TIP3   OH243450   2.010   3.866   4.547 -0.1769 -0.4679  0.0605
 7320TIP3    H143451   2.054   3.783   4.531  1.5369  0.6845 -1.6521
 7320TIP3    H243452   1.954   3.850   4.623  1.7881 -2.5559  1.1682
 7321TIP3   OH243453   4.184   1.329   5.481  0.2377 -0.1200 -0.2965
 7321TIP3    H143454   4.209   1.355   5.570  0.0526 -0.2211 -0.2143
 7321TIP3    H243455   4.191   1.234   5.481 -0.7321 -0.2044 -0.0850
 7322TIP3   OH243456   3.007   0.470  13.365  1.0622  0.0439  0.2721
 7322TIP3    H143457   2.977   0.558  13.341  0.3673 -0.2779 -0.0626
 7322TIP3    H243458   3.099   0.483  13.391  1.3267  0.6946 -0.8868
 7323TIP3   OH243459   1.824   4.128  10.521 -0.3202 -0.7757  0.2022
 7323TIP3    H143460   1.741   4.082  10.534 -1.2111  0.2575 -1.4260
 7323TIP3    H243461   1.890   4.069  10.558 -1.6878 -1.9640  0.8770
 7324TIP3   OH243462   0.179   4.483  11.116 -0.3313  0.0948  0.4640
 7324TIP3    H143463   0.254   4.424  11.108 -0.3211  0.1357  0.2560
 7324TIP3    H243464   0.131   4.450  11.192 -0.2416 -0.0870  0.4430
 7325TIP3   OH243465   4.396   6.245   6.407  0.3389  0.1121  0.3216
 7325TIP3    H143466   4.488   6.228   6.386  0.3080  0.4929 -0.1490
 7325TIP3    H243467   4.385   6.339   6.390 -0.7604 -0.3793 -2.0920
 7326TIP3   OH243468   6.749   0.246   5.935 -0.0899 -0.5392  0.2271
 7326TIP3    H143469   6.806   0.237   6.011  0.8059  0.8342 -0.2337
 7326TIP3    H243470   6.758   0.163   5.888 -0.8199 -1.4788  1.6936
 7327TIP3   OH243471   6.596   0.621  11.042  0.5959  0.2976 -0.0465
 7327TIP3    H143472   6.610   0.581  11.128 -0.0473  0.6049  0.2123
 7327TIP3    H243473   6.681   0.659  11.019  0.4811  1.2637  1.0123
 7328TIP3   OH243474   5.775   1.131   5.071  0.3755  0.3495  0.3716
 7328TIP3    H143475   5.780   1.075   4.994 -0.3091  1.4739 -0.5178
 7328TIP3    H243476   5.706   1.092   5.125 -0.1832  0.4011 -0.3015
 7329TIP3   OH243477   4.286   4.298   5.934  0.0341  0.0944 -0.1197
 7329TIP3    H143478   4.207   4.350   5.950  0.3391  0.6106 -0.2834
 7329TIP3    H243479   4.358   4.357   5.955  0.3751 -0.6497  0.8659
 7330TIP3   OH243480   0.790   0.529  16.635 -0.0378 -0.4490 -0.6684
 7330TIP3    H143481   0.857   0.594  16.612  1.4595 -1.1195  1.4883
 7330TIP3    H243482   0.722   0.580  16.679  0.6811 -0.1814  0.1659
 7331TIP3   OH243483   5.732   2.040  13.924 -0.0602 -0.1908  0.5136
 7331TIP3    H143484   5.714   1.979  13.852 -1.4097  0.0037  0.6514
 7331TIP3    H243485   5.819   2.015  13.955 -0.0302 -1.1804 -0.2948
 7332TIP3   OH243486   5.501   3.744  14.290 -0.4052  0.3344  0.1970
 7332TIP3    H143487   5.559   3.814  14.319  0.6697 -0.3661 -0.1992
 7332TIP3    H243488   5.456   3.781  14.214  1.8960 -0.1173 -1.5115
 7333TIP3   OH243489   4.327   6.207   4.530 -0.2240  0.0322 -0.1112
 7333TIP3    H143490   4.337   6.272   4.599  1.1244  2.3832 -2.3461
 7333TIP3    H243491   4.412   6.204   4.486 -0.9862 -1.4135 -1.6451
 7334TIP3   OH243492   2.983   3.736   0.120  0.1606 -0.5090  0.2144
 7334TIP3    H143493   2.969   3.688   0.038 -2.4740 -1.0305  0.8530
 7334TIP3    H243494   3.004   3.668   0.184  1.3691 -0.2004  0.1589
 7335TIP3   OH243495   3.655   5.005  16.264 -0.4746 -0.1030  0.3652
 7335TIP3    H143496   3.704   4.933  16.224 -0.7041  0.2440 -0.5784
 7335TIP3    H243497   3.722   5.067  16.292 -0.2446 -0.9120  1.6902
 7336TIP3   OH243498   4.434   3.402   0.023  0.7198  0.8672  0.2103
 7336TIP3    H143499   4.409   3.319   0.065  2.2582  0.0726 -0.3602
 7336TIP3    H243500   4.406   3.469   0.085 -0.8494 -0.0431  0.5458
 7337TIP3   OH243501   1.359   5.384   1.398 -0.2679 -0.4694 -0.3936
 7337TIP3    H143502   1.331   5.345   1.315  0.1435 -2.4747  0.3675
 7337TIP3    H243503   1.278   5.417   1.437 -0.4526  0.6360 -1.6127
 7338TIP3   OH243504   5.106   2.937   1.993  0.4909 -0.0407  0.3271
 7338TIP3    H143505   5.201   2.926   2.000  0.4936 -0.0351  0.2969
 7338TIP3    H243506   5.082   2.988   2.070  0.2683 -1.5725  1.3213
 7339TIP3   OH243507   4.022   1.701   5.283 -0.7805 -0.3354  0.1532
 7339TIP3    H143508   4.030   1.661   5.196  0.2638 -0.5184  0.3264
 7339TIP3    H243509   3.995   1.791   5.264 -1.2449 -0.5647 -0.3249
 7340TIP3   OH243510   5.199   0.781  12.723  0.2421 -0.0323  0.2652
 7340TIP3    H143511   5.216   0.757  12.632 -1.1136 -0.2308  0.0450
 7340TIP3    H243512   5.105   0.765  12.735 -0.1062  2.2973  1.0053
 7341TIP3   OH243513   4.071   6.330  11.167 -0.3875  0.0012  0.4573
 7341TIP3    H143514   4.055   6.418  11.134  0.5834 -0.3615 -1.1066
 7341TIP3    H243515   3.984   6.291  11.174 -0.8366  1.1061  1.2977
 7342TIP3   OH243516   5.930   1.405   4.401 -0.7266 -0.3033  0.7090
 7342TIP3    H143517   5.862   1.390   4.335  1.2086  0.0893 -1.5004
 7342TIP3    H243518   5.962   1.493   4.383  0.1993 -0.3702  1.8690
 7343TIP3   OH243519   1.226   1.435  13.203 -0.3134  0.2883  0.5826
 7343TIP3    H143520   1.164   1.366  13.177 -0.5993 -0.5912  3.2017
 7343TIP3    H243521   1.175   1.516  13.197 -0.0044  0.3510 -2.4433
 7344TIP3   OH243522   5.371   1.713   4.623 -0.6592 -0.4466  0.3015
 7344TIP3    H143523   5.351   1.803   4.596 -0.4510 -0.5096 -0.0732
 7344TIP3    H243524   5.462   1.716   4.653 -0.3543 -0.7111 -0.5682
 7345TIP3   OH243525   5.740   1.077   1.086 -0.1231 -0.0681  0.4134
 7345TIP3    H143526   5.675   1.129   1.134 -2.8356  0.3151 -3.2773
 7345TIP3    H243527   5.810   1.139   1.065 -1.5780  1.2349 -0.8045
 7346TIP3   OH243528   4.390   5.327  11.062 -0.1845 -0.6407  0.6494
 7346TIP3    H143529   4.417   5.263  11.126 -1.5024 -0.3687  1.5162
 7346TIP3    H243530   4.472   5.357  11.021  0.5083 -2.2312  0.7998
 7347TIP3   OH243531   1.116   3.278  15.048  0.5321 -0.1162  0.0426
 7347TIP3    H143532   1.029   3.239  15.039  0.9123 -0.4745 -4.1817
 7347TIP3    H243533   1.150   3.280  14.958  4.6611  0.5934  1.4384
 7348TIP3   OH243534   6.175   5.335  16.876  0.4093  0.6334 -0.9027
 7348TIP3    H143535   6.246   5.274  16.896  0.2094  0.4397 -0.7748
 7348TIP3    H243536   6.096   5.280  16.872 -0.0803  1.1215  1.0360
 7349TIP3   OH243537   3.538   6.686  11.483 -0.0886  0.1438  0.2992
 7349TIP3    H143538   3.446   6.660  11.482 -0.6371  1.9196  0.2151
 7349TIP3    H243539   3.579   6.633  11.415 -1.9343  2.0355 -2.5522
 7350TIP3   OH243540   0.808   3.485  11.575  0.0683 -0.1928  0.3266
 7350TIP3    H143541   0.835   3.501  11.484 -0.7929 -0.3376  0.0398
 7350TIP3    H243542   0.738   3.549  11.590 -0.7870 -1.1175  0.4104
 7351TIP3   OH243543   3.455   5.486   1.946  0.0619 -0.6993 -0.1853
 7351TIP3    H143544   3.407   5.558   1.905 -0.2645 -1.1868 -0.6657
 7351TIP3    H243545   3.495   5.439   1.873  0.2631 -1.0183  0.1269
 7352TIP3   OH243546   5.499   2.218  14.316 -0.2907  0.1127  0.1852
 7352TIP3    H143547   5.548   2.146  14.276  0.3281  0.1308  0.8852
 7352TIP3    H243548   5.511   2.291  14.255 -0.6168 -0.2695 -0.3424
 7353TIP3   OH243549   6.313   1.172   0.070 -0.3115 -0.2525 -0.1631
 7353TIP3    H143550   6.236   1.127   0.103 -1.7569 -0.0486 -2.9421
 7353TIP3    H243551   6.372   1.101   0.043 -0.0221 -0.4023  0.8137
 7354TIP3   OH243552   6.620   5.216  14.621 -0.1453 -0.2203  0.0552
 7354TIP3    H143553   6.597   5.304  14.651  0.0662 -0.5998  1.4126
 7354TIP3    H243554   6.695   5.191  14.675  0.8908 -0.5874 -1.4924
 7355TIP3   OH243555   2.372   5.133   4.587 -0.5070  0.2668  0.1090
 7355TIP3    H143556   2.380   5.073   4.662 -1.1670  1.8021  1.4847
 7355TIP3    H243557   2.328   5.210   4.623 -2.1330  0.5265 -2.2076
 7356TIP3   OH243558   2.754   3.430  11.636  0.0217  0.3109  0.2897
 7356TIP3    H143559   2.701   3.367  11.686  0.8136  1.3537  2.5833
 7356TIP3    H243560   2.734   3.410  11.545  1.1817 -4.1071  0.7722
 7357TIP3   OH243561   1.858   2.011  12.779  0.3048  0.2492 -0.3382
 7357TIP3    H143562   1.950   2.026  12.798  0.3453 -1.6132  1.2877
 7357TIP3    H243563   1.814   2.015  12.864 -0.7809 -0.8112 -0.8034
 7358TIP3   OH243564   4.497   2.573   2.134  0.0063  0.0792 -0.1162
 7358TIP3    H143565   4.544   2.528   2.064 -0.5018  0.4976 -0.7396
 7358TIP3    H243566   4.405   2.565   2.111 -0.1252  0.9132  0.0791
 7359TIP3   OH243567   0.354   0.244   3.926  0.0917  0.5373  0.3664
 7359TIP3    H143568   0.378   0.201   4.008  1.3421  1.5050  0.5416
 7359TIP3    H243569   0.304   0.178   3.878  0.2539 -0.4089  1.4518
 7360TIP3   OH243570   0.476   5.876  14.137  0.0883 -0.1085 -0.8640
 7360TIP3    H143571   0.557   5.826  14.131  0.2516  0.1530 -0.8584
 7360TIP3    H243572   0.504   5.965  14.159 -0.2648 -0.2254  0.0894
 7361TIP3   OH243573   4.042   4.071  13.067 -0.1462 -0.0774 -0.7969
 7361TIP3    H143574   4.091   4.025  12.998 -1.5052 -3.0853  0.0992
 7361TIP3    H243575   3.988   4.004  13.107 -0.0045  1.7117  2.7507
 7362TIP3   OH243576   1.625   0.871  10.926  0.8144  0.4705 -0.1834
 7362TIP3    H143577   1.624   0.886  10.831  0.4416 -1.2049 -0.4813
 7362TIP3    H243578   1.710   0.831  10.942 -0.1911 -1.8441 -0.3058
 7363TIP3   OH243579   0.390   5.977   0.590  0.3008 -0.2233  0.2368
 7363TIP3    H143580   0.465   6.031   0.568 -1.0407  1.9855  0.8072
 7363TIP3    H243581   0.328   5.989   0.518  0.3696 -1.8344 -0.1234
 7364TIP3   OH243582   0.082   1.870   0.360 -0.2010 -0.2118 -0.0156
 7364TIP3    H143583   0.068   1.872   0.265 -1.1546 -1.2502  0.0853
 7364TIP3    H243584   0.081   1.962   0.387 -1.1507  0.0308 -0.8418
 7365TIP3   OH243585   0.129   5.174   0.336  0.0837 -0.5301 -0.1939
 7365TIP3    H143586   0.067   5.238   0.300  0.7536 -0.5654 -1.4505
 7365TIP3    H243587   0.154   5.211   0.421 -0.0555  0.5470 -0.6018
 7366TIP3   OH243588   1.315   2.943   2.673  0.1938 -0.2483 -0.0708
 7366TIP3    H143589   1.339   2.968   2.584  0.4340 -1.1870 -0.2862
 7366TIP3    H243590   1.379   2.987   2.729 -0.0787  0.5023 -0.3476
 7367TIP3   OH243591   2.827   2.236   2.194  0.5958  0.4523  0.4554
 7367TIP3    H143592   2.873   2.313   2.161  1.3724  0.3574  1.2693
 7367TIP3    H243593   2.750   2.271   2.239 -0.5008  0.5824 -1.4117
 7368TIP3   OH243594   0.338   6.706   0.530  0.0263 -0.6463 -0.0558
 7368TIP3    H143595   0.312   6.779   0.587  1.4673 -0.9037  0.9720
 7368TIP3    H243596   0.432   6.718   0.517 -0.0597 -1.3108 -1.3623
 7369TIP3   OH243597   0.711   5.596  11.849 -0.1443  0.4526 -0.5660
 7369TIP3    H143598   0.796   5.568  11.817 -0.8427 -2.7995  0.0743
 7369TIP3    H243599   0.650   5.572  11.779 -0.7535  1.0449 -0.2552
 7370TIP3   OH243600   4.353   0.374  14.604  0.1635 -0.5115 -0.0635
 7370TIP3    H143601   4.382   0.294  14.646  1.2132 -0.2286 -0.2289
 7370TIP3    H243602   4.265   0.354  14.572 -0.2498 -1.0455  1.3552
 7371TIP3   OH243603   0.901   5.795  12.485 -0.0593  0.4088  0.2411
 7371TIP3    H143604   0.941   5.721  12.533  1.5181  0.9418 -0.1851
 7371TIP3    H243605   0.956   5.870  12.507 -0.1187  0.9441 -1.3283
 7372TIP3   OH243606   4.578   5.684  16.753  0.4014  0.4742 -0.6511
 7372TIP3    H143607   4.544   5.721  16.672  0.5391  0.7120 -0.6013
 7372TIP3    H243608   4.666   5.654  16.730 -0.1633 -0.9851 -1.0221
 7373TIP3   OH243609   0.578   1.719   5.238 -0.5232 -0.1166  0.1635
 7373TIP3    H143610   0.554   1.653   5.303 -2.9832  0.7317  0.2320
 7373TIP3    H243611   0.599   1.669   5.159  0.1879 -1.0592  0.9271
 7374TIP3   OH243612   6.021   4.760   2.788  0.1918  0.0948 -0.1621
 7374TIP3    H143613   6.055   4.694   2.727  2.9413  0.5429  0.7749
 7374TIP3    H243614   5.970   4.819   2.732 -0.6007 -1.6188 -1.3485
 7375TIP3   OH243615   3.677   4.840   3.593 -0.1910  0.0767 -0.2685
 7375TIP3    H143616   3.594   4.794   3.610 -1.4780  2.2872 -0.1894
 7375TIP3    H243617   3.685   4.902   3.665  0.5735  1.1999 -1.2880
 7376TIP3   OH243618   5.148   1.052   0.962  0.6616  0.4944 -0.2146
 7376TIP3    H143619   5.124   0.969   1.002  1.4170  1.2985  2.0769
 7376TIP3    H243620   5.081   1.113   0.991  1.3625  1.1499  0.0667
 7377TIP3   OH243621   0.729   4.383   5.778  0.6391  0.2937 -0.3559
 7377TIP3    H143622   0.740   4.288   5.784  0.5647  0.1925 -1.5890
 7377TIP3    H243623   0.637   4.396   5.756  0.2302  0.7541  1.4503
 7378TIP3   OH243624   2.311   0.379   2.955  0.4233  0.0988 -0.1539
 7378TIP3    H143625   2.406   0.387   2.952  0.6130 -1.0932  1.3872
 7378TIP3    H243626   2.290   0.311   2.890  0.8736 -1.1599  0.9748
 7379TIP3   OH243627   4.408   2.279  10.695  0.4331  0.3839  0.2084
 7379TIP3    H143628   4.490   2.326  10.682  1.5843 -1.9022 -1.6341
 7379TIP3    H243629   4.430   2.205  10.751 -1.0488  1.2238  2.0131
 7380TIP3   OH243630   2.626   1.819   5.122  0.2603  0.1902  0.6366
 7380TIP3    H143631   2.640   1.838   5.214 -0.9314 -0.0023  0.8688
 7380TIP3    H243632   2.677   1.886   5.076  0.8280  0.3084  1.4241
 7381TIP3   OH243633   4.364   2.272   3.563  1.0420 -0.3647 -0.1492
 7381TIP3    H143634   4.334   2.189   3.525  2.2353 -0.2063 -1.5533
 7381TIP3    H243635   4.284   2.320   3.584  0.3221 -1.8802  0.7750
 7382TIP3   OH243636   6.185   2.033   2.254 -0.4034  0.3318 -0.4857
 7382TIP3    H143637   6.277   2.007   2.244  0.3561  1.9836  1.4450
 7382TIP3    H243638   6.172   2.102   2.190 -0.0500  0.6337 -0.2356
 7383TIP3   OH243639   3.293   5.386   2.154  0.5032  0.1579  0.1609
 7383TIP3    H143640   3.341   5.402   2.073  0.7806  2.1947  0.6711
 7383TIP3    H243641   3.355   5.339   2.210  0.9320  0.3044 -0.1842
 7384TIP3   OH243642   1.172   1.190  14.661  0.2507  0.3765 -0.1686
 7384TIP3    H143643   1.184   1.163  14.752  2.3527 -2.7918 -1.2006
 7384TIP3    H243644   1.118   1.268  14.666 -1.3796 -0.7515  3.6858
 7385TIP3   OH243645   3.040   3.202  16.845 -0.1866  0.2205 -0.1541
 7385TIP3    H143646   3.001   3.263  16.907  0.3290 -0.7577  1.1746
 7385TIP3    H243647   3.029   3.245  16.760  0.9576  2.6100  0.7937
 7386TIP3   OH243648   5.432   4.328  16.253 -0.1517  0.4514 -0.3950
 7386TIP3    H143649   5.426   4.335  16.348  1.4788  1.6934 -0.3467
 7386TIP3    H243650   5.381   4.250  16.231 -1.0746  0.5113  1.4209
 7387TIP3   OH243651   6.194   3.113   5.364 -0.8720  0.1876 -0.4491
 7387TIP3    H143652   6.210   3.054   5.290 -2.6088 -0.8045 -0.0778
 7387TIP3    H243653   6.246   3.191   5.344 -1.0206 -0.1986 -2.5425
 7388TIP3   OH243654   0.132   1.579  11.763 -0.0020  0.2598 -0.1415
 7388TIP3    H143655   0.044   1.541  11.764 -0.4236  1.1253 -1.4177
 7388TIP3    H243656   0.180   1.526  11.699 -0.9191  2.4429 -2.7865
 7389TIP3   OH243657   1.739   0.943   0.534 -0.0893  0.0060  0.0004
 7389TIP3    H143658   1.713   0.929   0.443  0.9638 -0.8144 -0.1906
 7389TIP3    H243659   1.835   0.938   0.533  0.0111  1.1236  0.9714
 7390TIP3   OH243660   3.060   3.707  15.095 -0.1594  0.6037 -0.6069
 7390TIP3    H143661   3.030   3.667  15.177 -1.5742 -0.8855 -1.7783
 7390TIP3    H243662   2.985   3.699  15.036  1.3652  0.1528 -2.5608
 7391TIP3   OH243663   3.175   3.883  13.735 -0.0370  0.3764 -0.2701
 7391TIP3    H143664   3.150   3.942  13.664 -0.2871  0.7468  0.1218
 7391TIP3    H243665   3.270   3.873  13.725  0.1366  1.4945  0.1383
 7392TIP3   OH243666   3.092   1.013  14.790  0.6501  0.8899  0.1095
 7392TIP3    H143667   3.117   0.928  14.753  0.0482  0.6465  0.2556
 7392TIP3    H243668   2.997   1.009  14.798  0.7310  1.0983  1.3222
 7393TIP3   OH243669   6.016   3.508  13.119 -0.3272 -0.2539 -0.1347
 7393TIP3    H143670   6.001   3.498  13.213  0.5345  1.1338  0.1750
 7393TIP3    H243671   5.933   3.543  13.085 -0.6433 -0.7736  0.0851
 7394TIP3   OH243672   3.480   5.514  10.870  0.0297  0.2685 -0.2967
 7394TIP3    H143673   3.494   5.423  10.842 -0.2905  0.0310  0.3081
 7394TIP3    H243674   3.550   5.563  10.826  0.4934 -0.3418 -0.2539
 7395TIP3   OH243675   4.847   6.083   5.025 -0.0428  0.1264  0.0391
 7395TIP3    H143676   4.855   6.051   4.935  1.5410 -0.0036  0.1950
 7395TIP3    H243677   4.911   6.032   5.075 -1.0670  0.0107  1.3116
 7396TIP3   OH243678   0.223   1.894  14.814  0.6390  0.3502  0.1045
 7396TIP3    H143679   0.315   1.900  14.788  0.1605 -0.1275 -1.8723
 7396TIP3    H243680   0.175   1.896  14.732 -1.2659  2.5127  1.1686
 7397TIP3   OH243681   4.071   3.729  12.497  0.2565  0.0187 -0.6740
 7397TIP3    H143682   4.158   3.765  12.482 -0.1350  1.2388 -0.1602
 7397TIP3    H243683   4.024   3.799  12.543 -0.9003 -0.7279 -0.6872
 7398TIP3   OH243684   0.642   5.021   0.165 -0.8438  0.7036 -0.7206
 7398TIP3    H143685   0.719   5.078   0.163 -1.4180  1.4974 -0.6947
 7398TIP3    H243686   0.627   4.997   0.073  1.1693 -1.9019 -0.4926
 7399TIP3   OH243687   0.765   5.815  11.567  0.0734  0.1179  0.0465
 7399TIP3    H143688   0.841   5.808  11.625 -0.5131  0.6977  0.8933
 7399TIP3    H243689   0.752   5.727  11.533  0.5006 -0.1971  0.6929
 7400TIP3   OH243690   0.959   1.432  15.687  0.5128 -0.0308 -0.1008
 7400TIP3    H143691   0.922   1.485  15.758  1.9647 -0.8060  1.2882
 7400TIP3    H243692   0.903   1.354  15.684  0.5330 -0.0621  0.3043
 7401TIP3   OH243693   6.173   6.602   2.794  0.4314  0.1819  0.4228
 7401TIP3    H143694   6.121   6.662   2.740  0.7693 -0.0963 -0.2125
 7401TIP3    H243695   6.112   6.532   2.818  0.5526 -0.2236 -0.4472
 7402TIP3   OH243696   6.713   2.075   3.803 -0.5846 -0.1268 -0.3122
 7402TIP3    H143697   6.736   2.077   3.896 -3.2297  0.0262  0.4060
 7402TIP3    H243698   6.684   2.164   3.783  0.0654 -0.1275 -1.3467
 7403TIP3   OH243699   0.010   3.236  12.329 -0.3240  0.0862  0.2475
 7403TIP3    H143700  -0.065   3.251  12.272 -0.7420 -0.1078  0.7371
 7403TIP3    H243701   0.086   3.251  12.273 -0.7169  1.3987  0.0259
 7404TIP3   OH243702   0.047   1.089   2.493 -0.0813  0.4207  0.1715
 7404TIP3    H143703   0.028   1.002   2.528 -2.9581  0.0042 -2.1251
 7404TIP3    H243704   0.138   1.083   2.464  1.2166 -0.3499  3.8751
 7405TIP3   OH243705   2.321   1.497   5.127  0.4623  0.7126 -0.5870
 7405TIP3    H143706   2.309   1.413   5.170  1.8869  1.2128  0.8774
 7405TIP3    H243707   2.413   1.497   5.097  0.6723  1.9519 -0.0361
 7406TIP3   OH243708   5.970   4.639  14.918  0.1114  0.2164  0.6769
 7406TIP3    H143709   6.049   4.588  14.936 -0.2600 -1.0324 -1.0125
 7406TIP3    H243710   5.907   4.608  14.984  0.4767 -0.1220  0.8744
 7407TIP3   OH243711   1.940   6.504   2.247 -0.3190 -0.3856 -0.1388
 7407TIP3    H143712   1.981   6.541   2.169 -2.0259  2.1686  0.0835
 7407TIP3    H243713   1.847   6.495   2.225 -0.5426 -1.3367  1.0302
 7408TIP3   OH243714   2.061   0.440  12.562 -0.0356  0.3637 -0.4062
 7408TIP3    H143715   2.146   0.410  12.593  0.2288  2.1294  0.7434
 7408TIP3    H243716   2.080   0.503  12.493 -0.4473  0.1524 -0.7188
 7409TIP3   OH243717   1.084   6.640   0.530  1.3319 -0.5270  0.1201
 7409TIP3    H143718   1.101   6.648   0.436 -1.5560  0.6904 -0.3854
 7409TIP3    H243719   1.043   6.554   0.539  0.2380 -0.0280  0.0027
 7410TIP3   OH243720   6.609   0.684   0.375  0.7189  0.0165 -0.2745
 7410TIP3    H143721   6.608   0.619   0.305  2.1016  1.0172 -1.2631
 7410TIP3    H243722   6.674   0.652   0.437 -0.0341 -0.5277  0.2663
 7411TIP3   OH243723   4.148   5.617  11.713 -0.1396  0.8911 -0.2345
 7411TIP3    H143724   4.096   5.539  11.733  1.5485 -0.1846  0.0844
 7411TIP3    H243725   4.154   5.619  11.618  2.1023 -1.0013 -0.2208
 7412TIP3   OH243726   2.228   2.488  14.048 -0.2970 -0.8053  0.7997
 7412TIP3    H143727   2.248   2.574  14.085 -0.6302 -0.6589  0.6445
 7412TIP3    H243728   2.287   2.428  14.093  1.5172 -0.2064 -0.6338
 7413TIP3   OH243729   1.175   5.868  10.814 -0.0560 -0.1834 -0.8027
 7413TIP3    H143730   1.082   5.843  10.823  0.4503 -2.4810 -1.1815
 7413TIP3    H243731   1.222   5.797  10.858  1.5218  1.5950  0.5350
 7414TIP3   OH243732   6.489   5.058   0.464  0.7073  0.0186 -0.5022
 7414TIP3    H143733   6.416   5.091   0.517  2.9103  1.2112  2.0053
 7414TIP3    H243734   6.505   4.970   0.498 -0.0410 -0.5936 -1.6574
 7415TIP3   OH243735   4.831   3.110   1.965  0.7924  0.3101  0.1678
 7415TIP3    H143736   4.853   3.025   1.926 -1.6514 -1.1848  1.7458
 7415TIP3    H243737   4.854   3.101   2.057 -1.8420  0.3068  0.9118
 7416TIP3   OH243738   6.182   1.184   3.227  0.0391 -0.1494  0.5851
 7416TIP3    H143739   6.101   1.148   3.190 -0.2342 -0.5395  1.5456
 7416TIP3    H243740   6.196   1.265   3.178  0.5934 -1.4461 -1.5258
 7417TIP3   OH243741   3.853   1.422   2.341  0.2652 -0.2546 -0.1042
 7417TIP3    H143742   3.772   1.380   2.367  0.4892 -0.0656  0.9388
 7417TIP3    H243743   3.903   1.432   2.422  0.0879  2.2875 -0.2154
 7418TIP3   OH243744   3.039   3.438   3.426 -0.5939  0.3350 -0.7481
 7418TIP3    H143745   3.032   3.470   3.516  0.2718 -3.6138  0.9439
 7418TIP3    H243746   3.128   3.461   3.400  0.0748 -0.6650  0.4920
 7419TIP3   OH243747   3.297   3.646  11.537  0.4137 -0.1601 -0.2009
 7419TIP3    H143748   3.316   3.558  11.503 -0.6393  0.7948 -3.6755
 7419TIP3    H243749   3.365   3.702  11.499  0.0897  0.7856  0.5732
 7420TIP3   OH243750   6.154   6.067  16.317 -0.4631  0.5807  0.0173
 7420TIP3    H143751   6.212   5.997  16.288 -0.9785  0.4642 -0.7791
 7420TIP3    H243752   6.126   6.110  16.236 -1.4064  0.6896  0.3798
 7421TIP3   OH243753   5.271   4.049  13.581  0.1943  0.2504 -0.0377
 7421TIP3    H143754   5.262   4.137  13.546  1.4670  1.1071  1.6201
 7421TIP3    H243755   5.366   4.033  13.584  0.1076 -0.1938  1.8426
 7422TIP3   OH243756   2.463   4.760   6.019  0.3243 -0.2635 -0.0835
 7422TIP3    H143757   2.541   4.715   6.050 -0.1969 -0.5592  0.8351
 7422TIP3    H243758   2.391   4.703   6.044 -0.2299  0.2853 -0.4006
 7423TIP3   OH243759   3.907   2.277   5.117  0.2820 -0.4610  0.2478
 7423TIP3    H143760   3.830   2.308   5.069  0.7174 -0.3454 -0.3863
 7423TIP3    H243761   3.886   2.293   5.209 -0.7423 -1.0640  0.1367
 7424TIP3   OH243762   3.282   4.675  12.964  0.4912  0.7856  0.2636
 7424TIP3    H143763   3.303   4.588  13.000  1.4311  0.9239  0.0911
 7424TIP3    H243764   3.285   4.734  13.040 -1.8625  0.4466  0.7024
 7425TIP3   OH243765   6.560   2.288  10.514  0.0240  0.5121  0.5750
 7425TIP3    H143766   6.471   2.299  10.482 -0.4398 -0.7487  1.3526
 7425TIP3    H243767   6.574   2.361  10.573 -0.7046  0.4005  0.8886
 7426TIP3   OH243768   1.146   4.671  15.512 -0.2473 -0.3605  0.4091
 7426TIP3    H143769   1.173   4.759  15.539  0.2842 -0.2622 -0.4095
 7426TIP3    H243770   1.158   4.617  15.590  0.8077  0.0088  0.5088
 7427TIP3   OH243771   0.806   0.543  15.489 -0.2091 -0.2758 -0.3771
 7427TIP3    H143772   0.858   0.506  15.561 -1.0846 -0.8567 -0.0137
 7427TIP3    H243773   0.868   0.594  15.438  0.3312  0.6256  1.1101
 7428TIP3   OH243774   5.424   0.736   0.955  0.6337  0.3335 -0.0553
 7428TIP3    H143775   5.400   0.709   0.866  1.2166 -0.9905  0.1633
 7428TIP3    H243776   5.346   0.779   0.989  1.3910  3.8745 -2.3005
 7429TIP3   OH243777   3.919   1.079  11.540 -0.0595  0.5548 -0.6889
 7429TIP3    H143778   3.841   1.105  11.588 -0.9332 -1.8742 -0.6136
 7429TIP3    H243779   3.905   1.113  11.452 -2.3151 -1.4970 -1.2591
 7430TIP3   OH243780   3.165   1.977  11.282  0.5904  0.1749 -0.2719
 7430TIP3    H143781   3.100   1.937  11.340  2.0568 -1.7324  0.1779
 7430TIP3    H243782   3.225   2.022  11.341  0.9123  0.0133 -0.4712
 7431TIP3   OH243783   2.592   5.128  16.076 -0.1881  1.0447 -0.4725
 7431TIP3    H143784   2.502   5.099  16.064 -0.0408  0.7399 -0.8969
 7431TIP3    H243785   2.586   5.204  16.133 -0.8776  2.0248 -1.7815
 7432TIP3   OH243786   6.773   0.171  12.671 -0.2081 -0.0522  0.0991
 7432TIP3    H143787   6.731   0.154  12.755 -1.4775 -0.9408 -0.6752
 7432TIP3    H243788   6.719   0.238  12.630  0.0197 -0.0873 -0.2694
 7433TIP3   OH243789   1.003   3.662   1.516  0.0699 -0.5437 -0.0883
 7433TIP3    H143790   0.972   3.749   1.541  0.5871  0.0764 -1.5033
 7433TIP3    H243791   0.993   3.659   1.421 -1.1057 -2.5135  0.0452
 7434TIP3   OH243792   6.295   3.230  11.624 -0.0790  0.1250  0.0091
 7434TIP3    H143793   6.224   3.181  11.583 -0.6775  0.4073  0.7088
 7434TIP3    H243794   6.269   3.241  11.715  0.8278  0.2947  0.2609
 7435TIP3   OH243795   6.528   4.085   5.325  0.1409 -0.3516 -0.6331
 7435TIP3    H143796   6.434   4.091   5.307  0.3230 -0.3210 -1.6281
 7435TIP3    H243797   6.560   4.016   5.267  0.5769 -1.0564  0.4022
 7436TIP3   OH243798   6.662   3.031   5.178  0.0142  0.3285  0.0335
 7436TIP3    H143799   6.625   3.064   5.260  0.3477 -0.9703  0.7302
 7436TIP3    H243800   6.751   3.066   5.176 -0.5334  1.7734 -0.6456
 7437TIP3   OH243801   4.937   1.216   4.952  0.4996  0.0995 -0.1257
 7437TIP3    H143802   5.009   1.278   4.957  2.0804 -1.5797 -1.1167
 7437TIP3    H243803   4.934   1.189   4.860 -1.8285  0.5608 -0.2660
 7438TIP3   OH243804   6.541   0.973   0.992 -0.3828  0.8050 -0.1125
 7438TIP3    H143805   6.531   0.985   0.898 -1.4652  1.6097  0.0993
 7438TIP3    H243806   6.458   0.935   1.021 -0.9478  2.6636  0.8465
 7439TIP3   OH243807   3.840   0.535  10.699  0.2575 -0.3621  0.3699
 7439TIP3    H143808   3.837   0.440  10.693 -0.8904 -0.2935 -0.5829
 7439TIP3    H243809   3.929   0.558  10.675  0.8456 -1.2402  1.6102
 7440TIP3   OH243810   6.738   3.626  13.644 -0.0412 -0.0934  0.0522
 7440TIP3    H143811   6.767   3.695  13.584 -0.2030 -1.1337 -1.2887
 7440TIP3    H243812   6.760   3.545  13.598 -0.9941 -0.9215  1.0214
 7441TIP3   OH243813   6.322   1.245   0.589 -0.7840 -0.7004  0.3222
 7441TIP3    H143814   6.254   1.236   0.522 -0.2444 -0.6041 -0.2536
 7441TIP3    H243815   6.404   1.235   0.540 -0.3094  1.4590  0.6178
 7442TIP3   OH243816   3.787   6.390   5.828 -0.8942  0.4682 -0.4280
 7442TIP3    H143817   3.741   6.345   5.899  1.1147  0.4591  0.9401
 7442TIP3    H243818   3.805   6.478   5.862 -0.8238  0.8218 -1.3453
 7443TIP3   OH243819   4.531   1.429   1.318  0.3150 -0.1356 -0.1175
 7443TIP3    H143820   4.534   1.334   1.324 -0.1110 -0.2628 -1.5508
 7443TIP3    H243821   4.573   1.449   1.234  0.9189  0.9866  0.4190
 7444TIP3   OH243822   6.495   6.796   0.518  1.0192  0.6177 -0.1303
 7444TIP3    H143823   6.433   6.758   0.456  0.1689 -0.5556  1.3948
 7444TIP3    H243824   6.483   6.891   0.508 -0.4297  0.4194 -0.4408
 7445TIP3   OH243825   0.628   6.751   2.101  0.6575 -0.3066 -0.2689
 7445TIP3    H143826   0.688   6.683   2.130  0.3284 -0.5203 -0.0927
 7445TIP3    H243827   0.657   6.830   2.146 -0.5726 -0.8652  1.6097
 7446TIP3   OH243828   0.890   0.597   4.173 -0.3096  0.0584  0.4727
 7446TIP3    H143829   0.934   0.640   4.099  2.4658 -1.7284  0.9205
 7446TIP3    H243830   0.801   0.631   4.171  0.3209  1.9043 -2.2033
 7447TIP3   OH243831   4.661   3.799  14.435 -0.2961  0.1106  0.1857
 7447TIP3    H143832   4.620   3.870  14.485 -1.2773 -1.1947  1.3057
 7447TIP3    H243833   4.743   3.781  14.482 -0.9392 -0.7224  1.0263
 7448TIP3   OH243834   0.797   0.062   2.177  0.5760  0.5042  0.0013
 7448TIP3    H143835   0.855   0.041   2.104  1.7677  0.9291  0.7876
 7448TIP3    H243836   0.856   0.072   2.252 -0.5756  0.4363  0.9480
 7449TIP3   OH243837   6.784   6.248   1.123  0.4410  0.2868 -0.1664
 7449TIP3    H143838   6.749   6.284   1.205  2.1450 -0.7137  1.0734
 7449TIP3    H243839   6.748   6.159   1.120  1.4819 -0.1671  0.2608
 7450TIP3   OH243840   2.467   1.008   3.076 -0.2655 -0.6102 -0.2315
 7450TIP3    H143841   2.387   0.975   3.035 -0.0278  0.2857 -1.4700
 7450TIP3    H243842   2.529   1.019   3.003  1.2949 -2.0731  0.7906
 7451TIP3   OH243843   3.101   0.590  16.227 -0.2699  0.6726 -0.0285
 7451TIP3    H143844   3.187   0.632  16.230  0.9218 -1.6690  1.6763
 7451TIP3    H243845   3.054   0.625  16.303  0.7722 -1.0397  1.4719
 7452TIP3   OH243846   3.138   1.683   1.726 -0.5396 -0.3856 -0.4740
 7452TIP3    H143847   3.198   1.721   1.791 -1.0866 -0.5400  0.1290
 7452TIP3    H243848   3.171   1.594   1.712 -1.0974 -0.7588  0.4813
 7453TIP3   OH243849   6.683   5.030   4.053  0.7012  0.3222 -0.1946
 7453TIP3    H143850   6.719   5.119   4.051  0.4411  0.4241 -1.6740
 7453TIP3    H243851   6.708   4.996   4.139  1.3711  1.5876  0.1429
 7454TIP3   OH243852   6.468   2.407   2.306 -0.2698 -0.1732 -0.6344
 7454TIP3    H143853   6.530   2.465   2.350  0.5553 -2.1431  0.9434
 7454TIP3    H243854   6.383   2.430   2.343  0.0326  0.0315 -0.0507
 7455TIP3   OH243855   1.855   5.430  16.207  0.5148  0.3824  0.1071
 7455TIP3    H143856   1.933   5.449  16.156 -0.8349  2.2541 -1.4117
 7455TIP3    H243857   1.798   5.383  16.146  0.1676 -0.3317  0.9683
 7456TIP3   OH243858   5.698   5.625  15.304  0.3496  0.3126 -0.4209
 7456TIP3    H143859   5.718   5.675  15.225  2.6727  0.2469  0.0633
 7456TIP3    H243860   5.658   5.544  15.271  0.1550  0.8168 -1.4510
 7457TIP3   OH243861   4.414   5.652   3.798  0.7746 -0.5063  0.3271
 7457TIP3    H143862   4.432   5.736   3.755 -1.0135  0.0065  0.4862
 7457TIP3    H243863   4.395   5.675   3.889  0.8407 -1.1458  0.5049
 7458TIP3   OH243864   4.550   1.189  13.234  0.3009 -0.0542  0.5712
 7458TIP3    H143865   4.502   1.251  13.178  0.0521  0.1307  0.9840
 7458TIP3    H243866   4.515   1.103  13.208  0.8819 -0.0626 -0.2316
 7459TIP3   OH243867   0.612   4.720   5.474  0.0014  0.1877 -0.1692
 7459TIP3    H143868   0.695   4.690   5.511 -1.0983 -1.3430  1.2056
 7459TIP3    H243869   0.559   4.742   5.551 -0.9729  0.8511 -1.0139
 7460TIP3   OH243870   6.125   2.318  15.366 -0.0917 -0.1571 -0.0992
 7460TIP3    H143871   6.030   2.328  15.371 -0.0750 -0.1212  0.1321
 7460TIP3    H243872   6.144   2.241  15.420  0.0156 -0.1384 -0.1102
 7461TIP3   OH243873   6.802   6.782   2.378  0.0061 -0.1484  0.5337
 7461TIP3    H143874   6.807   6.716   2.309 -0.7099 -0.4814  0.7784
 7461TIP3    H243875   6.814   6.732   2.459 -0.8852 -0.0512  0.7431
 7462TIP3   OH243876   1.080   0.882   5.301  0.2135 -0.2796 -0.0478
 7462TIP3    H143877   1.021   0.941   5.253 -0.9398  1.0193  2.7744
 7462TIP3    H243878   1.024   0.837   5.364  1.2434 -3.7660 -1.3496
 7463TIP3   OH243879   5.469   4.054  16.804  0.3284 -0.3010 -0.0553
 7463TIP3    H143880   5.459   4.078  16.896  2.8763 -2.6282  0.9685
 7463TIP3    H243881   5.564   4.057  16.788 -0.1105  1.6759 -3.1551
 7464TIP3   OH243882   0.279   2.378  14.811 -0.4850 -0.2817 -0.2380
 7464TIP3    H143883   0.220   2.429  14.756 -0.7157  1.0603  1.1874
 7464TIP3    H243884   0.226   2.306  14.844 -0.0173 -1.8632 -2.6888
 7465TIP3   OH243885   5.546   5.524   1.190 -0.2476 -0.3399 -0.5539
 7465TIP3    H143886   5.538   5.525   1.094 -1.2687 -1.9942 -0.5237
 7465TIP3    H243887   5.457   5.509   1.221  0.2190 -0.7846  0.6123
 7466TIP3   OH243888   2.811   3.960   1.674 -0.2631  0.6332  0.4625
 7466TIP3    H143889   2.903   3.961   1.702 -0.7145 -0.4576  2.0982
 7466TIP3    H243890   2.795   3.869   1.648 -0.9265  0.7898  0.3029
 7467TIP3   OH243891   4.835   3.571  16.253  0.7788  0.3302  0.2785
 7467TIP3    H143892   4.763   3.579  16.316  0.2787  0.4808 -0.3077
 7467TIP3    H243893   4.865   3.660  16.240  0.4723  0.3690 -0.1685
 7468TIP3   OH243894   5.018   5.642  13.547  0.1286  0.4437 -0.3054
 7468TIP3    H143895   4.927   5.657  13.572  0.3432  0.7552  0.3184
 7468TIP3    H243896   5.013   5.590  13.467 -0.5813 -0.2030  0.1530
 7469TIP3   OH243897   2.264   2.330   0.335  0.1354 -0.1149 -0.0671
 7469TIP3    H143898   2.283   2.266   0.266  2.6713 -0.4324  0.8100
 7469TIP3    H243899   2.275   2.415   0.292 -2.6188 -0.1950 -1.0762
 7470TIP3   OH243900   3.885   3.536  11.813  0.0969  0.4256  0.0455
 7470TIP3    H143901   3.937   3.608  11.778  0.4668  0.5402  0.7957
 7470TIP3    H243902   3.920   3.522  11.901 -0.6466 -0.0024  0.2842
 7471TIP3   OH243903   2.367   5.755   0.691 -0.1340 -0.1286  0.2109
 7471TIP3    H143904   2.313   5.786   0.618  0.7174 -0.8564 -0.7502
 7471TIP3    H243905   2.456   5.780   0.668  0.3991 -2.0197  0.0593
 7472TIP3   OH243906   1.474   6.393  16.260  0.7022  0.4468 -0.1325
 7472TIP3    H143907   1.516   6.396  16.346  0.3255 -2.9841  0.2971
 7472TIP3    H243908   1.539   6.353  16.202 -0.8381 -2.4328 -0.0573
 7473TIP3   OH243909   6.840   0.279  13.500 -0.1917  0.5268  0.7511
 7473TIP3    H143910   6.775   0.315  13.439  1.0882  1.5361 -0.0574
 7473TIP3    H243911   6.791   0.215  13.551 -2.1373  2.1572  1.0395
 7474TIP3   OH243912   1.842   3.462  12.018 -0.0977 -0.6149  0.4887
 7474TIP3    H143913   1.814   3.483  11.929  1.2236  0.1432  0.2315
 7474TIP3    H243914   1.895   3.383  12.008  0.2228 -0.4111  0.5712
 7475TIP3   OH243915   5.681   6.307   2.460  0.2389 -0.1271 -0.4535
 7475TIP3    H143916   5.741   6.241   2.425  0.3822  0.2904 -1.0086
 7475TIP3    H243917   5.712   6.324   2.548  1.5026  0.7256 -1.0290
 7476TIP3   OH243918   1.098   3.919  15.582  0.3529  0.3709  1.1189
 7476TIP3    H143919   1.068   3.975  15.654 -0.6904  1.0628  0.1741
 7476TIP3    H243920   1.102   3.832  15.621 -0.1214  0.7419  2.0483
 7477TIP3   OH243921   1.979   0.384  11.897 -1.0103  0.3324  0.0540
 7477TIP3    H143922   1.965   0.454  11.833  0.2906  1.5575  1.0527
 7477TIP3    H243923   2.039   0.422  11.961 -0.7742 -1.5050  0.9736
 7478TIP3   OH243924   2.656   5.728   6.196 -0.4099 -0.1087 -0.1707
 7478TIP3    H143925   2.609   5.707   6.115 -0.6477  1.0618 -0.3549
 7478TIP3    H243926   2.661   5.645   6.244  1.6924 -1.3871 -2.3555
 7479TIP3   OH243927   5.262   1.312  16.132 -0.4578  0.4830 -0.1269
 7479TIP3    H143928   5.275   1.369  16.207 -3.0781 -1.1115  1.7303
 7479TIP3    H243929   5.175   1.335  16.099 -0.7931 -1.1364 -0.4789
 7480TIP3   OH243930   5.189   2.646   0.783 -0.6006 -0.4986  0.3622
 7480TIP3    H143931   5.175   2.690   0.699 -0.2650 -0.5899  0.2566
 7480TIP3    H243932   5.284   2.635   0.789 -0.7401 -2.3062 -0.1742
 7481TIP3   OH243933   5.187   5.604  14.210 -0.0992 -0.6146 -0.1561
 7481TIP3    H143934   5.131   5.537  14.251  0.8665  0.5009  3.3148
 7481TIP3    H243935   5.227   5.559  14.135 -3.7236 -2.1329 -1.4116
 7482TIP3   OH243936   1.926   1.433   1.171 -0.1705 -0.4081 -0.0867
 7482TIP3    H143937   1.919   1.340   1.193  0.5924 -0.1682  1.2874
 7482TIP3    H243938   1.934   1.434   1.076 -2.0208 -1.6216 -0.3107
 7483TIP3   OH243939   0.489   0.653   4.704 -0.3574 -0.0981 -0.0238
 7483TIP3    H143940   0.513   0.630   4.794  0.8126 -0.7426 -0.4685
 7483TIP3    H243941   0.431   0.729   4.713 -0.3652 -0.2314  1.2734
 7484TIP3   OH243942   1.606   2.903  14.911 -0.3921  0.0773  0.3560
 7484TIP3    H143943   1.611   2.925  14.818  1.5396  0.0354  0.4175
 7484TIP3    H243944   1.574   2.813  14.913 -0.1095 -0.0384 -0.2763
 7485TIP3   OH243945   5.253   4.823  13.363 -0.5984 -0.3937  0.3210
 7485TIP3    H143946   5.216   4.873  13.291  0.0590  0.0829  0.3037
 7485TIP3    H243947   5.179   4.801  13.419 -0.8183  1.1266  0.6526
 7486TIP3   OH243948   5.341   1.917  12.413  0.1193 -0.0079  0.4006
 7486TIP3    H143949   5.276   1.857  12.450 -1.0779 -0.1475 -1.7791
 7486TIP3    H243950   5.290   1.989  12.376  1.4001  1.1856  0.8612
 7487TIP3   OH243951   2.353   0.142   0.737 -0.9730 -0.0926  0.4179
 7487TIP3    H143952   2.312   0.140   0.651 -1.6864  0.3777  0.7358
 7487TIP3    H243953   2.318   0.222   0.778 -0.3155 -0.0837  0.9797
 7488TIP3   OH243954   5.458   2.733   5.041 -0.0014 -0.5609  0.0233
 7488TIP3    H143955   5.462   2.711   5.134  1.4006  0.2622  0.1815
 7488TIP3    H243956   5.418   2.819   5.039  4.9109  2.0936  0.4639
 7489TIP3   OH243957   2.579   0.424   3.089  0.5287  0.9248  0.2483
 7489TIP3    H143958   2.659   0.414   3.038 -0.1928  1.4466 -1.0197
 7489TIP3    H243959   2.554   0.335   3.113  0.1950  0.5331 -1.4191
 7490TIP3   OH243960   4.068   5.351   1.940 -0.5399 -0.0604  0.7131
 7490TIP3    H143961   4.008   5.277   1.926 -0.2046 -0.7136  2.4570
 7490TIP3    H243962   4.013   5.429   1.927 -1.7241 -0.6421  1.9817
 7491TIP3   OH243963   1.937   1.369  13.208  0.2073 -0.2886 -0.2491
 7491TIP3    H143964   1.928   1.376  13.113 -1.2440  0.6811 -0.0654
 7491TIP3    H243965   1.848   1.373  13.241  0.6501 -1.1776  1.1378
 7492TIP3   OH243966   4.794   3.823  12.331 -0.3734  0.5029 -0.0506
 7492TIP3    H143967   4.827   3.903  12.370  1.1329  0.0456 -0.3158
 7492TIP3    H243968   4.796   3.759  12.402  0.0997  0.2720 -0.2670
 7493TIP3   OH243969   2.942   2.931   5.112 -0.0707 -0.2619 -0.0162
 7493TIP3    H143970   3.003   2.871   5.155 -1.0809 -0.0255  1.8175
 7493TIP3    H243971   2.856   2.903   5.141 -0.7681  0.2629 -1.4933
 7494TIP3   OH243972   4.954   5.228   1.650  0.2190  0.0341  0.3952
 7494TIP3    H143973   4.999   5.144   1.656 -0.1090 -0.5019 -2.7975
 7494TIP3    H243974   4.872   5.209   1.606  0.0599  2.0014 -0.2817
 7495TIP3   OH243975   4.117   2.641   2.241  0.6947  0.0259  0.1517
 7495TIP3    H143976   4.168   2.669   2.316 -0.6495 -0.2123  1.1875
 7495TIP3    H243977   4.033   2.687   2.250  1.4211  2.1707 -2.6982
 7496TIP3   OH243978   6.012   1.077  10.824  0.2050  0.1370  0.1051
 7496TIP3    H143979   6.015   1.039  10.736  2.1178 -0.7922  0.5101
 7496TIP3    H243980   5.995   1.002  10.881  0.2232  0.5284  0.6258
 7497TIP3   OH243981   2.118   2.078  12.868  0.8198 -0.0283 -0.4497
 7497TIP3    H143982   2.152   2.001  12.914  1.0305 -0.1539 -0.8120
 7497TIP3    H243983   2.105   2.143  12.936  0.5955 -0.4016 -0.1311
 7498TIP3   OH243984   5.192   6.253   3.152  0.3465  0.3126 -0.3278
 7498TIP3    H143985   5.182   6.181   3.214  1.3269 -0.9406 -1.5492
 7498TIP3    H243986   5.103   6.279   3.129 -0.0174 -0.3658  0.2868
 7499TIP3   OH243987   4.533   6.675   0.251  0.1788 -0.5519 -0.4775
 7499TIP3    H143988   4.517   6.769   0.256  0.1969 -0.3443 -3.0412
 7499TIP3    H243989   4.613   6.661   0.302  1.0536  1.0951 -1.3413
 7500TIP3   OH243990   2.504   3.019   3.655 -0.5036 -0.3254 -0.2173
 7500TIP3    H143991   2.589   2.979   3.638 -0.6178 -1.0360  0.8704
 7500TIP3    H243992   2.524   3.111   3.672  0.2914 -0.8361  1.9035
 7501TIP3   OH243993   5.653   3.485  11.252  0.1000 -0.1597  0.2348
 7501TIP3    H143994   5.724   3.549  11.259 -1.4987  1.7441 -0.1826
 7501TIP3    H243995   5.697   3.404  11.225  2.1872  0.7572  0.6798
 7502TIP3   OH243996   6.465   1.467   4.116 -0.0684 -0.6351  0.2245
 7502TIP3    H143997   6.448   1.495   4.027 -1.3703 -0.3631  0.5346
 7502TIP3    H243998   6.410   1.389   4.128 -0.1715 -0.4696  0.8841
 7503TIP3   OH243999   0.234   0.860   1.236 -0.0341 -0.5180  0.4665
 7503TIP3    H144000   0.267   0.900   1.316 -1.7978 -1.1591  1.5759
 7503TIP3    H244001   0.201   0.934   1.184  0.6762 -0.1435  0.5477
 7504TIP3   OH244002   0.264   2.580   3.742 -0.4474 -0.0172 -0.2104
 7504TIP3    H144003   0.203   2.654   3.748 -1.2636 -0.7297  0.6508
 7504TIP3    H244004   0.349   2.617   3.764 -0.8615  0.6391  0.3508
 7505TIP3   OH244005   6.627   6.700   3.857  0.3607 -0.5235  0.4125
 7505TIP3    H144006   6.602   6.610   3.833  1.2500 -0.5698 -0.4297
 7505TIP3    H244007   6.669   6.735   3.778 -1.1587  1.1160  0.2783
 7506TIP3   OH244008   6.563   6.680  17.023 -0.0612 -0.2437 -0.2021
 7506TIP3    H144009   6.511   6.603  17.046 -0.9867  0.3945 -0.1045
 7506TIP3    H244010   6.614   6.652  16.947  0.7654 -1.4213  0.7343
 7507TIP3   OH244011   6.214   0.096  12.688  0.5536 -0.2557 -0.3476
 7507TIP3    H144012   6.148   0.027  12.678 -0.2931  0.3975  0.4533
 7507TIP3    H244013   6.248   0.110  12.600  0.2080 -1.1782 -0.6438
 7508TIP3   OH244014   1.761   0.392  13.277  0.1451  0.0905 -0.1372
 7508TIP3    H144015   1.825   0.336  13.320 -0.8337 -2.0190 -1.2938
 7508TIP3    H244016   1.755   0.469  13.333  2.6367 -0.2700  0.7225
 7509TIP3   OH244017   4.646   5.862   1.673  0.0325 -0.0597 -0.0538
 7509TIP3    H144018   4.608   5.940   1.633  1.8580  0.5382 -0.7600
 7509TIP3    H244019   4.596   5.789   1.636 -2.0315  0.7618  1.0043
 7510TIP3   OH244020   4.123   5.512  16.085  0.0211  0.3663 -0.0498
 7510TIP3    H144021   4.152   5.595  16.124  0.6278 -0.0907  0.4927
 7510TIP3    H244022   4.204   5.462  16.072 -0.2934  0.0375 -0.8021
 7511TIP3   OH244023   2.007   4.754  16.777 -0.3156  0.8716  0.2064
 7511TIP3    H144024   2.022   4.672  16.731 -5.4847 -1.8175  2.5056
 7511TIP3    H244025   2.056   4.744  16.859  3.1438  2.6215 -1.3952
 7512TIP3   OH244026   1.013   1.768  10.850  0.0220  0.4160  0.3254
 7512TIP3    H144027   0.935   1.803  10.806  1.0349  0.5899 -1.4083
 7512TIP3    H244028   1.066   1.844  10.871  0.4679  0.2040 -0.0017
 7513TIP3   OH244029   0.507   6.503  14.346 -0.0666 -0.1898 -0.1876
 7513TIP3    H144030   0.555   6.422  14.363 -2.5854 -1.4106  1.6371
 7513TIP3    H244031   0.477   6.495  14.256 -0.8555 -1.6698  0.1726
 7514TIP3   OH244032   2.199   1.982   0.706  0.0386  0.6843  0.1676
 7514TIP3    H144033   2.168   2.031   0.781 -0.1556 -1.0621  1.2695
 7514TIP3    H244034   2.293   2.004   0.701  0.3486 -0.1725  1.7288
 7515TIP3   OH244035   0.339   5.843   2.575  0.0762  0.1488  0.2060
 7515TIP3    H144036   0.323   5.871   2.665  0.8816 -0.4673  0.5457
 7515TIP3    H244037   0.275   5.893   2.523 -2.2366 -1.3978  1.3823
 7516TIP3   OH244038   5.232   6.140   0.454  0.0922 -0.3762  0.2826
 7516TIP3    H144039   5.281   6.164   0.532  0.6633 -1.4165  0.2613
 7516TIP3    H244040   5.201   6.051   0.471 -0.3910 -0.3495 -0.3848
 7517TIP3   OH244041   4.814   3.555  11.364  0.2666 -0.1110 -0.4852
 7517TIP3    H144042   4.764   3.478  11.391 -1.1589  0.8971 -0.1132
 7517TIP3    H244043   4.845   3.594  11.446  1.0925 -0.3441 -0.6776
 7518TIP3   OH244044   4.200   1.048   6.612 -0.2153 -0.0369  0.0506
 7518TIP3    H144045   4.189   0.978   6.548  0.9349  0.0422 -0.2594
 7518TIP3    H244046   4.294   1.052   6.627 -0.5122 -1.2455  3.1098
 7519TIP3   OH244047   3.039   5.452   0.099 -0.0229 -0.2178  0.1404
 7519TIP3    H144048   3.109   5.491   0.046  0.7663 -0.5831  0.8848
 7519TIP3    H244049   3.026   5.365   0.062 -1.0678  0.3352 -0.8686
 7520TIP3   OH244050   3.136   4.959  11.378  0.0021 -0.0003 -0.3379
 7520TIP3    H144051   3.064   4.906  11.413  1.1969 -0.6499  1.2346
 7520TIP3    H244052   3.102   4.993  11.295 -1.4760 -1.7407 -0.5115
 7521TIP3   OH244053   4.529   4.797  14.285  0.2205 -0.3696 -0.3395
 7521TIP3    H144054   4.615   4.824  14.253  0.7414  0.0545  1.3340
 7521TIP3    H244055   4.542   4.711  14.323 -0.1176 -0.3560 -0.1825
 7522TIP3   OH244056   4.658   5.127   1.894 -0.5989  0.1382 -0.3271
 7522TIP3    H144057   4.689   5.125   1.985  0.2671 -0.2884 -0.6172
 7522TIP3    H244058   4.627   5.038   1.877  2.6552 -0.9261 -1.5403
 7523TIP3   OH244059   3.201   1.795   6.416  0.3291 -0.2706  0.0957
 7523TIP3    H144060   3.165   1.861   6.475 -0.6946  0.1448 -0.9648
 7523TIP3    H244061   3.124   1.755   6.375  1.0409  0.2369 -1.8109
 7524TIP3   OH244062   3.463   1.969   4.908 -0.1983 -0.2554 -0.4009
 7524TIP3    H144063   3.511   2.031   4.963 -1.0697  0.8456 -0.8383
 7524TIP3    H244064   3.501   1.884   4.928  0.1343  0.2425  1.2101
 7525TIP3   OH244065   6.217   3.886  15.405  0.4753  0.1823  0.7755
 7525TIP3    H144066   6.231   3.979  15.392  1.5634 -0.0874 -0.1329
 7525TIP3    H244067   6.144   3.864  15.348 -0.0782  0.5499  1.3303
 7526TIP3   OH244068   1.898   6.821   0.609  0.3370 -0.0493  0.4394
 7526TIP3    H144069   1.891   6.848   0.517  2.5120 -0.1614  0.1922
 7526TIP3    H244070   1.992   6.826   0.629  0.0736 -1.2892  2.2826
 7527TIP3   OH244071   3.875   0.778   5.760  0.3149  0.0926  0.0776
 7527TIP3    H144072   3.837   0.837   5.825 -0.0669 -0.3793  0.2894
 7527TIP3    H244073   3.967   0.802   5.757  0.1022  0.9169 -0.0751
 7528TIP3   OH244074   1.023   3.556  11.957  0.1135  0.5768  0.0156
 7528TIP3    H144075   1.026   3.519  11.869  0.6295  0.6964 -0.0223
 7528TIP3    H244076   1.040   3.481  12.015 -0.3252  0.4792  0.0231
 7529TIP3   OH244077   2.868   3.695   1.594 -0.2128  0.2320  1.1457
 7529TIP3    H144078   2.963   3.686   1.590 -0.1751  0.6929  0.9418
 7529TIP3    H244079   2.841   3.636   1.665  0.1053 -0.7436  0.4812
 7530TIP3   OH244080   0.690   5.513  16.819  0.3855  0.1879 -0.8948
 7530TIP3    H144081   0.727   5.547  16.901  3.7143  0.3282 -2.2898
 7530TIP3    H244082   0.605   5.555  16.812 -0.8019 -1.0151  3.1938
 7531TIP3   OH244083   0.346   1.430   4.134  0.2267  0.5448 -0.2841
 7531TIP3    H144084   0.263   1.434   4.181 -0.2314  0.6285 -1.0858
 7531TIP3    H244085   0.329   1.373   4.059  0.7390  1.0096 -0.7637
 7532TIP3   OH244086   2.578   0.992   6.400 -0.2590 -0.3837  0.0776
 7532TIP3    H144087   2.603   0.899   6.397  0.8139 -0.1890  1.8403
 7532TIP3    H244088   2.492   0.993   6.440 -0.1878 -0.6014  0.2352
 7533TIP3   OH244089   1.936   3.267   4.366  0.1573  0.3559 -0.1435
 7533TIP3    H144090   1.948   3.268   4.461 -1.1922 -0.2406  0.0654
 7533TIP3    H244091   1.843   3.245   4.354  0.4357 -0.1494 -1.6086
 7534TIP3   OH244092   6.542   2.903   1.289 -0.1691  0.4492 -0.2347
 7534TIP3    H144093   6.452   2.879   1.311  0.2372 -0.3111  0.7058
 7534TIP3    H244094   6.534   2.959   1.212 -1.4787  0.8668  0.1793
 7535TIP3   OH244095   3.079   4.679   2.238 -0.3591  0.5044  0.4694
 7535TIP3    H144096   3.145   4.716   2.180 -0.2652  0.4102  0.5152
 7535TIP3    H244097   3.122   4.676   2.324 -0.8255  1.5511  0.7574
 7536TIP3   OH244098   0.066   1.184   4.658 -0.0712  0.0849 -0.4999
 7536TIP3    H144099   0.127   1.113   4.638  0.1624 -0.1257  0.8063
 7536TIP3    H244100   0.120   1.254   4.694 -0.4616  0.3274 -0.3693
 7537TIP3   OH244101   4.655   5.394  11.008 -0.1873  0.6720 -0.0685
 7537TIP3    H144102   4.711   5.327  10.970  0.6124  1.4803 -0.3510
 7537TIP3    H244103   4.637   5.454  10.936 -2.0192  0.0724 -0.1698
 7538TIP3   OH244104   2.161   3.373  13.792  0.3797  0.0831  0.1191
 7538TIP3    H144105   2.127   3.337  13.874 -1.6340  0.7867 -0.3497
 7538TIP3    H244106   2.134   3.309  13.725  1.9605 -0.4605 -0.0435
 7539TIP3   OH244107   2.204   5.513   0.783 -0.1521  0.8609 -0.2456
 7539TIP3    H144108   2.248   5.435   0.817  0.5482  1.2303 -0.2811
 7539TIP3    H244109   2.264   5.585   0.805 -1.5228  1.6088  1.2213
 7540TIP3   OH244110   4.350   3.528  12.900 -0.1584 -0.1186 -0.2279
 7540TIP3    H144111   4.317   3.612  12.868 -0.1172  0.0020  0.0364
 7540TIP3    H244112   4.381   3.548  12.989  0.7036 -0.2202 -0.5046
 7541TIP3   OH244113   2.467   6.746  11.825  0.1286 -0.1492  0.2569
 7541TIP3    H144114   2.380   6.767  11.858 -0.0471  0.4908 -0.5847
 7541TIP3    H244115   2.451   6.704  11.740  0.6467  0.1914 -0.0137
 7542TIP3   OH244116   1.103   2.943  14.815 -0.3540 -0.8701  0.2140
 7542TIP3    H144117   1.014   2.926  14.844 -0.8865  2.5932  1.0739
 7542TIP3    H244118   1.106   2.908  14.726 -1.7790 -3.1044  0.9639
 7543TIP3   OH244119   3.831   5.361   3.371 -0.7172  0.0926  0.5680
 7543TIP3    H144120   3.780   5.418   3.429 -2.0596 -0.3113 -0.1689
 7543TIP3    H244121   3.835   5.277   3.418 -0.8092  0.1043  0.5973
 7544TIP3   OH244122   5.677   4.436  14.318  0.1260 -0.1702  0.1298
 7544TIP3    H144123   5.725   4.425  14.236 -2.9590 -1.7212 -1.6687
 7544TIP3    H244124   5.666   4.531  14.327  0.5302  0.0343 -1.2690
 7545TIP3   OH244125   2.047   4.469  13.062 -0.0917 -0.2396  0.2140
 7545TIP3    H144126   2.134   4.487  13.026  0.2261 -0.6635  0.7449
 7545TIP3    H244127   2.016   4.554  13.093 -0.1814  0.0453 -0.6448
 7546TIP3   OH244128   0.830   4.663  13.853 -0.0318  0.1714  0.4377
 7546TIP3    H144129   0.834   4.643  13.947  1.8791  2.1901  0.8838
 7546TIP3    H244130   0.737   4.661  13.832 -0.3702 -2.9320  1.7032
 7547TIP3   OH244131   0.936   6.470  12.254 -0.1575 -0.0610  0.2387
 7547TIP3    H144132   0.862   6.412  12.272  0.1372 -0.0862  1.4694
 7547TIP3    H244133   0.902   6.533  12.191 -0.6891 -1.1470 -0.5993
 7548TIP3   OH244134   1.901   0.253   3.208  0.2385  0.0631 -0.3795
 7548TIP3    H144135   1.834   0.185   3.200  0.2596  0.1939 -1.9731
 7548TIP3    H244136   1.931   0.268   3.118  1.5928  0.8280  0.1646
 7549TIP3   OH244137   4.677   6.076  14.640 -0.6457 -0.3165  0.1411
 7549TIP3    H144138   4.731   6.047  14.566  0.3675  2.0499 -0.1368
 7549TIP3    H244139   4.594   6.100  14.601 -1.3457 -2.2790  0.3169
 7550TIP3   OH244140   1.225   6.742   2.651 -0.0034 -0.4337 -0.1429
 7550TIP3    H144141   1.153   6.784   2.697  1.1147 -0.7992  2.1031
 7550TIP3    H244142   1.273   6.695   2.719  2.7685  0.3581 -1.3931
 7551TIP3   OH244143   0.444   2.428  16.459 -0.6822  0.6341 -0.2858
 7551TIP3    H144144   0.371   2.462  16.408  0.7747  1.5685 -1.8760
 7551TIP3    H244145   0.489   2.506  16.492 -0.3963  0.0822  0.6810
 7552TIP3   OH244146   0.292   5.433   0.034 -0.7336  0.8131 -0.5083
 7552TIP3    H144147   0.299   5.341   0.007  0.4451  1.4733 -2.7662
 7552TIP3    H244148   0.282   5.430   0.129  1.2320 -1.5913 -0.2734
 7553TIP3   OH244149   5.729   1.917   3.493  0.0316  0.8273 -0.1992
 7553TIP3    H144150   5.650   1.862   3.494  0.2663  0.4866  0.9843
 7553TIP3    H244151   5.781   1.882   3.421 -0.4337  0.3844 -0.3301
 7554TIP3   OH244152   1.594   1.213  16.731 -0.2772  0.4434 -0.0800
 7554TIP3    H144153   1.630   1.157  16.663  0.2707  0.2798  0.3423
 7554TIP3    H244154   1.644   1.191  16.809 -0.5395  1.0153  0.2524
 7555TIP3   OH244155   6.015   1.251   0.428  0.0098  0.1773  0.4251
 7555TIP3    H144156   6.066   1.316   0.380 -0.2159  0.4802  0.5936
 7555TIP3    H244157   5.949   1.221   0.365 -0.4130  0.7199  0.5967
 7556TIP3   OH244158   4.267   6.619   0.577  0.1936 -0.3923 -0.0666
 7556TIP3    H144159   4.212   6.563   0.522  2.5676 -3.1437  0.0941
 7556TIP3    H244160   4.355   6.583   0.567  1.2712  1.0289  3.0035
 7557TIP3   OH244161   4.306   5.702  13.193  0.0948  0.6799 -1.0508
 7557TIP3    H144162   4.212   5.714  13.209  0.2616 -0.9904  1.6712
 7557TIP3    H244163   4.310   5.623  13.139 -0.0465 -0.4833  0.5674
 7558TIP3   OH244164   5.262   1.733   0.101 -0.2413 -0.2169 -0.3543
 7558TIP3    H144165   5.343   1.687   0.123 -0.8222 -0.0268  2.5823
 7558TIP3    H244166   5.206   1.665   0.063  0.7200 -0.6986 -0.9533
 7559TIP3   OH244167   3.380   2.019  11.880 -0.1625  0.0921  0.1234
 7559TIP3    H144168   3.353   2.050  11.794  0.2367  5.6352  1.5475
 7559TIP3    H244169   3.303   2.030  11.935 -0.5289 -3.7147  0.5874
 7560TIP3   OH244170   4.544   2.800   3.251  0.4091 -0.4632  0.2313
 7560TIP3    H144171   4.536   2.884   3.207  0.7664  0.1364  1.2927
 7560TIP3    H244172   4.637   2.791   3.270  0.0707  0.1724  2.4953
 7561TIP3   OH244173   0.970   2.065  16.687  0.4272  0.7909  0.2162
 7561TIP3    H144174   0.886   2.024  16.665  0.6089 -0.1857  1.2864
 7561TIP3    H244175   1.019   2.063  16.605 -0.4223  0.9906 -0.3165
 7562TIP3   OH244176   1.475   6.685  16.126 -0.0481  0.1371  0.2459
 7562TIP3    H144177   1.467   6.590  16.131 -0.1306  0.1925  1.5569
 7562TIP3    H244178   1.508   6.711  16.212 -0.6763  1.3505  0.1439
 7563TIP3   OH244179   1.025   5.314   1.483 -0.3469 -0.3310  0.0003
 7563TIP3    H144180   1.059   5.387   1.535 -0.8523  0.2518 -0.4839
 7563TIP3    H244181   0.941   5.292   1.524 -0.4960 -0.2223 -0.2463
 7564TIP3   OH244182   4.558   6.235  13.946  0.3119  0.0430 -0.5694
 7564TIP3    H144183   4.524   6.320  13.973 -0.5232 -0.1615 -0.9469
 7564TIP3    H244184   4.605   6.202  14.022 -0.2607  0.3807 -0.0661
 7565TIP3   OH244185   6.783   3.190  11.752 -0.4682  0.1665  0.2548
 7565TIP3    H144186   6.706   3.167  11.701 -0.0623 -0.2261 -0.1840
 7565TIP3    H244187   6.764   3.278  11.786 -0.5851  0.5847 -0.8639
 7566TIP3   OH244188   0.456   2.712  11.712 -0.1739  0.0263 -0.1324
 7566TIP3    H144189   0.424   2.679  11.628  0.6815 -2.3320  0.3712
 7566TIP3    H244190   0.423   2.802  11.717 -3.3693 -0.9362 -1.3379
 7567TIP3   OH244191   5.457   5.917  13.037 -0.3769 -0.4225 -0.8476
 7567TIP3    H144192   5.393   5.919  13.109 -1.1295 -1.0078 -1.4816
 7567TIP3    H244193   5.536   5.957  13.074  0.0131 -2.7350  1.0792
 7568TIP3   OH244194   5.812   2.205  11.506 -0.5691 -0.2747 -0.0559
 7568TIP3    H144195   5.737   2.146  11.507 -0.3274 -0.5892  1.1156
 7568TIP3    H244196   5.773   2.292  11.498 -1.0175 -0.4913 -0.2717
 7569TIP3   OH244197   6.436   2.482  14.483  0.5928 -0.1523 -0.5092
 7569TIP3    H144198   6.353   2.472  14.435  1.4188 -1.5991 -1.7066
 7569TIP3    H244199   6.444   2.401  14.534  1.2953 -0.0482 -0.4497
 7570TIP3   OH244200   0.217   1.884   1.352  0.2447  0.6567  1.1908
 7570TIP3    H144201   0.300   1.931   1.345 -1.1092  3.0211 -0.7714
 7570TIP3    H244202   0.193   1.864   1.261 -0.8752 -0.8848  1.7820
 7571TIP3   OH244203   5.919   3.806   0.501 -0.2409 -0.2259  0.7254
 7571TIP3    H144204   5.901   3.724   0.455  0.7910 -0.2032  0.2368
 7571TIP3    H244205   5.849   3.865   0.474 -0.1336 -0.4834 -0.1426
 7572TIP3   OH244206   1.847   2.299  15.500  0.5562  0.3399 -0.4134
 7572TIP3    H144207   1.860   2.246  15.422 -0.2693  1.9585 -1.7086
 7572TIP3    H244208   1.797   2.375  15.470 -0.8608  0.4392  1.9108
 7573TIP3   OH244209   2.941   0.149  16.740  0.1356  0.3140  0.1389
 7573TIP3    H144210   2.997   0.227  16.737 -0.4783  0.7255 -0.8617
 7573TIP3    H244211   2.920   0.139  16.833  1.0488  0.7419  0.4034
 7574TIP3   OH244212   3.059   4.289  14.341  0.5117  0.0679  0.3502
 7574TIP3    H144213   2.982   4.286  14.399  0.6692  0.4493  0.5838
 7574TIP3    H244214   3.023   4.283  14.253  0.1087  1.4749  0.4011
 7575TIP3   OH244215   4.751   5.102   0.467  0.0812 -0.1062 -0.1185
 7575TIP3    H144216   4.774   5.015   0.498  0.1455  0.4502  1.4543
 7575TIP3    H244217   4.832   5.152   0.470  0.1602 -0.1014 -1.5154
 7576TIP3   OH244218   3.881   5.791  14.559  0.1540 -0.6943 -0.2696
 7576TIP3    H144219   3.826   5.713  14.560  1.1097 -1.4174 -1.6594
 7576TIP3    H244220   3.830   5.857  14.607 -1.8558 -1.3661 -1.3642
 7577TIP3   OH244221   4.890   0.421   4.502  0.7454  0.1461 -0.1702
 7577TIP3    H144222   4.936   0.357   4.556 -1.6043 -0.9114  0.7515
 7577TIP3    H244223   4.868   0.372   4.422 -0.4975 -0.0625  0.2678
 7578TIP3   OH244224   0.296   3.680   4.291 -0.4588 -0.3135 -0.7545
 7578TIP3    H144225   0.379   3.708   4.252 -1.7411  1.4963 -2.3723
 7578TIP3    H244226   0.303   3.584   4.293  2.2376 -0.1822  0.6250
 7579TIP3   OH244227   3.491   2.259  12.635 -0.2721 -0.3062 -0.0728
 7579TIP3    H144228   3.475   2.209  12.715 -0.4407  0.7187  0.5387
 7579TIP3    H244229   3.581   2.290  12.643 -0.0872 -0.6893 -0.5641
 7580TIP3   OH244230   5.168   3.750   3.651  0.1027 -0.8163  0.0625
 7580TIP3    H144231   5.258   3.775   3.670 -0.5715  0.7157  1.4656
 7580TIP3    H244232   5.168   3.733   3.556  1.5154  0.7883 -0.2929
 7581TIP3   OH244233   5.603   2.491  11.370  0.0914 -0.0064 -0.4059
 7581TIP3    H144234   5.602   2.395  11.364  0.2127 -0.0994  0.7038
 7581TIP3    H244235   5.522   2.512  11.417 -0.9492  0.6108 -2.3917
 7582TIP3   OH244236   3.255   0.238  14.687 -0.2552  0.6793 -0.0078
 7582TIP3    H144237   3.274   0.155  14.644  0.0236  0.2868  0.8380
 7582TIP3    H244238   3.171   0.223  14.731 -0.4183  0.9925 -0.2075
 7583TIP3   OH244239   4.897   4.827  14.915  0.0974  1.0890 -0.6602
 7583TIP3    H144240   4.988   4.801  14.899 -0.1825  0.3369 -1.0661
 7583TIP3    H244241   4.904   4.915  14.953  1.0847  0.3389  1.0478
 7584TIP3   OH244242   6.122   1.003   1.399  0.0964 -0.2652 -0.6462
 7584TIP3    H144243   6.029   1.015   1.415  0.1998  0.0491 -0.2650
 7584TIP3    H244244   6.150   1.085   1.357  0.3108 -0.1450 -0.2691
 7585TIP3   OH244245   3.513   1.488   4.566  0.1032 -0.0861 -0.2998
 7585TIP3    H144246   3.454   1.503   4.640 -0.4890 -0.2225 -0.7406
 7585TIP3    H244247   3.460   1.442   4.501 -0.3730  2.8401 -2.1877
 7586TIP3   OH244248   1.813   1.557   4.469  0.0395  0.2811 -0.4685
 7586TIP3    H144249   1.730   1.588   4.434 -0.5758  0.5123  1.0964
 7586TIP3    H244250   1.789   1.491   4.534  0.9927  1.1021  0.7801
 7587TIP3   OH244251   6.741   4.151  15.798  0.1185  0.0419  0.1623
 7587TIP3    H144252   6.802   4.092  15.841 -1.1281 -0.9278  0.6523
 7587TIP3    H244253   6.728   4.112  15.711 -0.4975 -0.2658  0.3890
 7588TIP3   OH244254   3.115   0.741   4.701 -0.2964  0.8167  0.0107
 7588TIP3    H144255   3.098   0.647   4.711 -0.3146  0.9224  1.1581
 7588TIP3    H244256   3.066   0.766   4.623  0.7995 -0.3856 -1.1136
 7589TIP3   OH244257   5.778   6.153   0.876 -0.4417 -0.0184  0.3374
 7589TIP3    H144258   5.846   6.220   0.881 -1.5444  1.0545  1.8573
 7589TIP3    H244259   5.807   6.094   0.806  1.0805  1.4506 -0.3223
 7590TIP3   OH244260   2.989   6.743   0.579 -0.0839  0.1849 -0.0824
 7590TIP3    H144261   2.981   6.652   0.610  0.0577  0.5508  1.0822
 7590TIP3    H244262   3.060   6.780   0.631  0.0793  0.8815 -0.7778
 7591TIP3   OH244263   5.775   1.068   4.180 -0.1903  0.2413 -0.1104
 7591TIP3    H144264   5.723   1.148   4.185  0.1881  0.5390 -0.9053
 7591TIP3    H244265   5.794   1.057   4.087 -1.0962 -1.3211 -0.1505
 7592TIP3   OH244266   6.760   0.196   2.102 -0.9115 -0.4234  0.1228
 7592TIP3    H144267   6.829   0.163   2.161 -0.1898 -2.3190 -1.6412
 7592TIP3    H244268   6.679   0.180   2.149 -0.2768 -0.0112  1.4180
 7593TIP3   OH244269   0.355   3.634   2.656 -0.2786 -0.3081 -0.0532
 7593TIP3    H144270   0.362   3.701   2.588 -0.1829 -0.6678 -0.3986
 7593TIP3    H244271   0.400   3.558   2.620 -1.5231 -0.9906 -0.2016
 7594TIP3   OH244272   6.335   6.018   0.801  0.4439  0.2429  0.0850
 7594TIP3    H144273   6.259   6.076   0.790  0.6399  0.3289 -0.8407
 7594TIP3    H244274   6.315   5.941   0.749  0.8557  0.1324  0.0854
 7595TIP3   OH244275   3.058   2.941  11.009  0.0487 -0.3390 -0.3068
 7595TIP3    H144276   3.037   3.032  11.029  1.7923  0.0767 -0.2445
 7595TIP3    H244277   3.058   2.937  10.913  2.5138  0.4148 -0.3959
 7596TIP3   OH244278   2.823   2.413  16.563  0.0342  0.2528  0.0441
 7596TIP3    H144279   2.805   2.326  16.529 -0.1849 -0.3637  1.6580
 7596TIP3    H244280   2.916   2.412  16.585 -0.3444 -0.2360  1.7814
 7597TIP3   OH244281   0.707   1.849   4.856  0.0511  0.0974  0.4502
 7597TIP3    H144282   0.644   1.914   4.824 -1.0305 -0.3734  1.5414
 7597TIP3    H244283   0.738   1.804   4.777 -1.7341 -0.3219 -0.0505
 7598TIP3   OH244284   4.819   3.913   4.515  0.0427  0.0524 -0.0850
 7598TIP3    H144285   4.774   3.964   4.448  0.2831 -0.1820 -0.4246
 7598TIP3    H244286   4.750   3.861   4.556 -0.0288 -0.1674 -0.4801
 7599TIP3   OH244287   1.144   1.035  13.906  0.8387 -0.2258 -0.1796
 7599TIP3    H144288   1.191   1.117  13.890  0.1666  0.1876 -0.0975
 7599TIP3    H244289   1.075   1.059  13.968  0.6796 -0.8716 -0.1016
 7600TIP3   OH244290   4.386   1.709  14.967 -0.0740 -0.0562  0.0415
 7600TIP3    H144291   4.316   1.769  14.996  0.2604 -0.7504  2.5678
 7600TIP3    H244292   4.352   1.622  14.988  0.9506 -0.5028 -0.1197
 7601TIP3   OH244293   6.788   5.335  12.566  0.0455 -0.5412  0.1577
 7601TIP3    H144294   6.745   5.405  12.515 -0.9692 -1.8007 -0.7838
 7601TIP3    H244295   6.754   5.346  12.655  1.5418  1.4556  0.5577
 7602TIP3   OH244296   5.607   4.492   2.037 -1.4950 -0.3091  0.1964
 7602TIP3    H144297   5.558   4.471   1.957 -0.7309  0.4652 -0.4975
 7602TIP3    H244298   5.649   4.576   2.018 -1.6994  0.1289  1.6102
 7603TIP3   OH244299   2.517   4.281   0.054  0.4031  0.1901  0.0710
 7603TIP3    H144300   2.509   4.367   0.096  1.0385  0.2505  0.0847
 7603TIP3    H244301   2.597   4.288   0.002 -0.1972  0.0052 -0.8913
 7604TIP3   OH244302   4.668   3.168   5.388  0.6553  0.1660 -0.2870
 7604TIP3    H144303   4.573   3.168   5.378  0.8686  1.0839 -3.3856
 7604TIP3    H244304   4.683   3.206   5.474 -1.7746 -0.0608  0.2964
 7605TIP3   OH244305   4.684   6.258   6.378  0.0277 -0.0679  0.0065
 7605TIP3    H144306   4.711   6.248   6.470 -1.5945  0.7055  0.6154
 7605TIP3    H244307   4.762   6.235   6.328  1.5592  1.2612  1.6176
 7606TIP3   OH244308   4.925   5.126  16.275 -0.2014  0.2017 -0.5429
 7606TIP3    H144309   4.843   5.165  16.306  0.5113  2.6615 -1.4836
 7606TIP3    H244310   4.926   5.039  16.313 -4.1306 -0.6939 -2.0324
 7607TIP3   OH244311   6.005   4.547  12.380  0.3520 -0.5053  0.1336
 7607TIP3    H144312   5.935   4.593  12.333  0.7509  0.5796  0.5618
 7607TIP3    H244313   6.040   4.486  12.315 -0.2192 -0.2381 -0.4494
 7608TIP3   OH244314   1.311   5.904  15.213 -0.1690 -0.5325 -0.2934
 7608TIP3    H144315   1.298   5.870  15.302  2.8222  0.0334  0.4517
 7608TIP3    H244316   1.282   5.996  15.219  2.0494  0.1670  0.7943
 7609TIP3   OH244317   4.804   3.476  16.939 -0.2183 -0.1454  0.4027
 7609TIP3    H144318   4.755   3.437  16.867 -0.0063 -0.3285  0.3578
 7609TIP3    H244319   4.759   3.445  17.018  0.0089 -0.5648  0.3701
 7610TIP3   OH244320   0.965   4.103   5.026 -0.2520 -0.0904 -0.4504
 7610TIP3    H144321   1.016   4.031   5.062  0.3490  0.7994  0.5553
 7610TIP3    H244322   0.972   4.093   4.931  1.9000  0.0469 -0.3470
 7611TIP3   OH244323   4.572   5.693  15.948 -0.0597  0.0243 -0.4526
 7611TIP3    H144324   4.569   5.635  15.872  0.9243  1.2641 -1.4883
 7611TIP3    H244325   4.513   5.765  15.926  0.6332  0.6568 -0.2699
 7612TIP3   OH244326   4.708   6.430   2.767 -0.5853 -0.0979  0.1942
 7612TIP3    H144327   4.687   6.514   2.725 -2.2303  0.4268  1.9297
 7612TIP3    H244328   4.723   6.370   2.694  2.6006  2.0794 -1.1427
 7613TIP3   OH244329   4.276   3.603   2.839 -0.2784 -0.0147  0.6545
 7613TIP3    H144330   4.344   3.556   2.791 -0.8040 -1.3965  1.2256
 7613TIP3    H244331   4.202   3.606   2.779  0.2497  1.4948  0.0309
 7614TIP3   OH244332   4.662   3.431   1.186 -0.1923 -0.6794 -0.5211
 7614TIP3    H144333   4.576   3.471   1.195  0.1340 -0.4422  2.9255
 7614TIP3    H244334   4.724   3.499   1.214  0.6983 -2.1673  1.3802
 7615TIP3   OH244335   4.296   4.473  15.255 -0.1082 -0.0372 -0.0358
 7615TIP3    H144336   4.252   4.516  15.328 -1.3429 -0.7673 -0.3203
 7615TIP3    H244337   4.343   4.544  15.210 -2.3161  1.1174 -0.6731
 7616TIP3   OH244338   3.553   2.219  15.118  0.0057  0.1184 -0.4834
 7616TIP3    H144339   3.598   2.289  15.070  0.1179  0.6163  0.3323
 7616TIP3    H244340   3.599   2.139  15.091  3.4679  0.8201  2.4877
 7617TIP3   OH244341   1.549   6.521   1.847  0.3189 -0.0989  0.7586
 7617TIP3    H144342   1.455   6.539   1.840  0.1941 -0.4132  1.5417
 7617TIP3    H244343   1.558   6.429   1.823  0.1121 -0.6984  2.7588
 7618TIP3   OH244344   5.720   5.932   4.671 -0.0024  0.3316  0.4861
 7618TIP3    H144345   5.711   5.871   4.597 -0.3572 -2.3345  2.5906
 7618TIP3    H244346   5.814   5.949   4.676  0.0100  0.7461 -0.6690
 7619TIP3   OH244347   5.978   2.214   2.149  0.1322  0.4846  0.0713
 7619TIP3    H144348   5.890   2.177   2.162  0.7609 -0.3828  2.2963
 7619TIP3    H244349   6.020   2.155   2.088  0.0261 -0.6468  1.0614
 7620TIP3   OH244350   1.128   4.220   2.298  0.1457  0.0273  0.2406
 7620TIP3    H144351   1.091   4.231   2.386 -1.6044  0.4942 -0.5255
 7620TIP3    H244352   1.183   4.298   2.287 -1.1818  1.0070  0.2047
 7621TIP3   OH244353   6.416   6.048   2.934 -0.1588 -0.1951 -0.0397
 7621TIP3    H144354   6.337   6.063   2.984 -0.6796 -1.6162 -0.3810
 7621TIP3    H244355   6.487   6.072   2.993 -0.8080 -0.2832  0.7969
 7622TIP3   OH244356   4.333   6.618  14.620 -0.0139  0.1438 -0.2931
 7622TIP3    H144357   4.353   6.642  14.710  0.1416  0.5465 -0.4324
 7622TIP3    H244358   4.262   6.554  14.627  0.1719 -0.0221  0.1246
 7623TIP3   OH244359   4.241   6.664   0.201  0.3640 -0.5031  0.1741
 7623TIP3    H144360   4.151   6.663   0.234  0.2686 -1.8643 -0.0597
 7623TIP3    H244361   4.283   6.736   0.248 -1.0137  0.5991 -0.2081
 7624TIP3   OH244362   5.761   4.004  10.567  0.4748 -0.1827 -0.0381
 7624TIP3    H144363   5.753   3.920  10.521  1.3570 -0.0333 -0.4700
 7624TIP3    H244364   5.852   4.008  10.594 -0.1566 -0.5903  2.3675
 7625TIP3   OH244365   2.007   2.542   0.348 -0.2249  0.0407  0.3401
 7625TIP3    H144366   2.066   2.591   0.405  0.6507  0.1011 -0.6011
 7625TIP3    H244367   1.961   2.482   0.407 -0.9611  1.6103  1.4499
 7626TIP3   OH244368   0.888   4.798   1.111 -0.0297 -0.4991  0.3030
 7626TIP3    H144369   0.883   4.883   1.153 -2.0348 -0.8872  0.9149
 7626TIP3    H244370   0.916   4.738   1.180  1.5007 -0.3764 -0.1543
 7627TIP3   OH244371   2.361   2.412  14.646 -0.2569 -0.5700 -0.2912
 7627TIP3    H144372   2.431   2.366  14.693  0.4301  0.5681 -0.1569
 7627TIP3    H244373   2.294   2.428  14.713  0.6552  0.9155  0.3461
 7628TIP3   OH244374   5.070   0.463   2.003  0.5372  0.1489 -0.0569
 7628TIP3    H144375   5.013   0.486   2.076  1.1322  1.1313  0.1253
 7628TIP3    H244376   5.128   0.396   2.039  0.8379  0.6366  0.3897
 7629TIP3   OH244377   3.434   0.978  14.137  0.5261  0.1289 -0.4775
 7629TIP3    H144378   3.439   0.957  14.044 -2.5942 -0.9739 -0.5343
 7629TIP3    H244379   3.376   1.054  14.141 -1.0959 -1.0763  0.5755
 7630TIP3   OH244380   0.806   5.224   2.948 -0.2527 -0.1479 -0.3869
 7630TIP3    H144381   0.825   5.163   2.877 -1.1772 -0.6858 -0.1787
 7630TIP3    H244382   0.769   5.301   2.904 -1.9410 -0.9357 -0.4309
 7631TIP3   OH244383   5.298   4.462   2.866  0.2310  0.0820 -0.5781
 7631TIP3    H144384   5.382   4.433   2.831  0.6598  0.5912  0.0037
 7631TIP3    H244385   5.317   4.488   2.956 -0.2733  1.4282 -0.8365
 7632TIP3   OH244386   4.869   4.168  12.088 -0.3926  0.4297  0.6011
 7632TIP3    H144387   4.777   4.147  12.072 -0.3325 -0.6446  1.5496
 7632TIP3    H244388   4.888   4.239  12.027 -1.5589 -0.0407 -0.3520
 7633TIP3   OH244389   4.709   5.224  11.431  0.3140 -0.4787  0.1416
 7633TIP3    H144390   4.700   5.318  11.414 -0.6744 -0.6426 -0.3509
 7633TIP3    H244391   4.630   5.186  11.392  1.6227 -1.7423 -1.4268
 7634TIP3   OH244392   0.108   5.915  13.238  0.3695  0.5501 -0.1800
 7634TIP3    H144393   0.118   5.990  13.297 -0.2519 -0.8085  1.7752
 7634TIP3    H244394   0.014   5.896  13.239  0.3290  0.5300 -1.7278
 7635TIP3   OH244395   2.572   5.283   3.936  0.0451  0.0384  0.4751
 7635TIP3    H144396   2.512   5.274   3.863  0.3306  0.5144  0.1774
 7635TIP3    H244397   2.516   5.304   4.011 -0.0468  2.3723 -0.1595
 7636TIP3   OH244398   5.897   3.646  12.846 -0.9321  0.1719 -0.3606
 7636TIP3    H144399   5.845   3.679  12.920 -0.5207  0.9223 -0.3976
 7636TIP3    H244400   5.892   3.550  12.855  1.4808  0.1591  2.3778
 7637TIP3   OH244401   1.862   3.855   0.739 -0.5529  0.2917  0.2338
 7637TIP3    H144402   1.828   3.777   0.782 -0.7561  1.0621  1.5172
 7637TIP3    H244403   1.784   3.905   0.714 -0.4191  0.2290 -0.3230
 7638TIP3   OH244404   5.210   1.755   4.999 -0.1444 -0.2977  0.2711
 7638TIP3    H144405   5.278   1.690   5.017 -1.6485 -2.1967 -0.5221
 7638TIP3    H244406   5.164   1.765   5.082  1.5910  1.7570  1.1008
 7639TIP3   OH244407   3.013   0.644  12.744  0.0351 -0.5486 -0.6275
 7639TIP3    H144408   2.957   0.677  12.674 -0.4177 -0.5556 -0.2738
 7639TIP3    H244409   3.101   0.639  12.705 -0.0115  0.4574 -0.8639
 7640TIP3   OH244410   0.827   1.376  14.870  0.1961 -0.0888 -0.8103
 7640TIP3    H144411   0.880   1.297  14.860  0.2758 -0.1424 -0.0452
 7640TIP3    H244412   0.882   1.436  14.921 -0.5384 -0.2371  0.2013
 7641TIP3   OH244413   0.391   6.758   3.126 -0.2868 -0.5319  0.2078
 7641TIP3    H144414   0.437   6.675   3.120  0.3828 -0.1537 -0.1269
 7641TIP3    H244415   0.300   6.737   3.107 -0.4011 -1.4196  1.6581
 7642TIP3   OH244416   2.303   4.337   5.437 -0.2600 -0.6556 -0.0977
 7642TIP3    H144417   2.249   4.385   5.501  1.3896  2.8845 -1.1235
 7642TIP3    H244418   2.336   4.262   5.486 -1.6571  0.1149  2.2107
 7643TIP3   OH244419   4.899   5.279   2.117 -0.6123 -0.3078  0.4681
 7643TIP3    H144420   4.904   5.349   2.052  2.1382  1.8138  2.6729
 7643TIP3    H244421   4.815   5.293   2.161 -0.0007  1.9656  1.0629
 7644TIP3   OH244422   3.072   1.066   3.338  0.2706 -0.4635 -0.1442
 7644TIP3    H144423   3.021   1.025   3.408  1.2719 -1.1728  0.2023
 7644TIP3    H244424   3.008   1.115   3.286 -0.4958  0.1422  1.3068
 7645TIP3   OH244425   5.505   0.885   4.797 -0.1425  0.9725  0.2794
 7645TIP3    H144426   5.469   0.968   4.827 -2.0070 -0.0814  1.1605
 7645TIP3    H244427   5.492   0.825   4.870  1.7756  0.0373 -0.0815
 7646TIP3   OH244428   5.340   5.412  13.042  0.0060  0.2298  0.9208
 7646TIP3    H144429   5.253   5.382  13.067  0.1825 -0.0718  1.1753
 7646TIP3    H244430   5.384   5.334  13.009  0.8054 -0.0424  2.5275
 7647TIP3   OH244431   6.406   2.041   2.509 -0.1181 -0.8101 -0.0915
 7647TIP3    H144432   6.456   2.058   2.588  1.2241 -2.1160 -0.6201
 7647TIP3    H244433   6.315   2.034   2.539  0.1393  0.3926  1.0584
 7648TIP3   OH244434   0.234   6.058   3.605  0.1926 -0.3254 -0.1380
 7648TIP3    H144435   0.214   6.026   3.517 -0.5732  2.2261 -0.9584
 7648TIP3    H244436   0.159   6.031   3.658 -1.3133  1.4785 -1.2124
 7649TIP3   OH244437   2.562   2.175  11.306  0.1057 -0.0809  0.5200
 7649TIP3    H144438   2.617   2.145  11.233  0.6360  0.5294  0.6596
 7649TIP3    H244439   2.548   2.096  11.359  0.8731 -0.2516  0.4851
 7650TIP3   OH244440   5.384   2.835  11.429  0.6762  0.5084  0.1469
 7650TIP3    H144441   5.426   2.850  11.344  0.6038  0.6249  0.1301
 7650TIP3    H244442   5.293   2.864  11.415  0.5295  0.0323  0.1140
 7651TIP3   OH244443   5.710   0.927  14.276  0.2627  0.2339 -0.2146
 7651TIP3    H144444   5.687   1.004  14.327 -0.3726  0.4510 -0.8123
 7651TIP3    H244445   5.634   0.868  14.285 -0.2353  0.6291 -1.5729
 7652TIP3   OH244446   3.524   5.258  11.615 -0.0743 -0.2297 -0.2657
 7652TIP3    H144447   3.444   5.214  11.586 -0.3032  0.4718 -0.6917
 7652TIP3    H244448   3.500   5.298  11.699 -0.8062  1.7464 -1.3594
 7653TIP3   OH244449   1.391   3.780  12.935 -0.2454  0.0481 -0.0150
 7653TIP3    H144450   1.432   3.839  12.872 -0.5958 -0.7113 -0.9699
 7653TIP3    H244451   1.446   3.702  12.937 -0.0749  0.1720  0.8513
 7654TIP3   OH244452   4.830   3.845  10.246  0.1226  0.1120  0.3892
 7654TIP3    H144453   4.754   3.789  10.263 -0.2524  0.2844 -0.6650
 7654TIP3    H244454   4.796   3.916  10.193  1.0222  0.1955 -0.0968
 7655TIP3   OH244455   5.119   0.112  16.999  0.1097  0.3450 -0.1960
 7655TIP3    H144456   5.108   0.020  16.973 -1.4428  0.4507  0.0007
 7655TIP3    H244457   5.094   0.113  17.092 -0.5575  1.0804 -0.3743
 7656TIP3   OH244458   5.929   0.453  12.601 -0.2741  0.0672  0.2946
 7656TIP3    H144459   5.979   0.506  12.538  1.6145  1.8919  3.1269
 7656TIP3    H244460   5.859   0.512  12.631  0.8475  0.4419  2.2728
 7657TIP3   OH244461   2.865   6.491  10.945  0.2285 -0.4339 -0.9348
 7657TIP3    H144462   2.931   6.447  10.892 -0.7949  1.8791 -4.4777
 7657TIP3    H244463   2.899   6.581  10.955 -0.2053 -0.4628  1.4224
 7658TIP3   OH244464   2.228   3.339   5.716 -0.1293 -0.0383 -0.0475
 7658TIP3    H144465   2.149   3.304   5.756 -0.9367  1.3825 -0.3405
 7658TIP3    H244466   2.223   3.311   5.624  1.0790 -2.1941  0.4680
 7659TIP3   OH244467   3.750   2.346  11.947 -0.2093  0.0324 -0.3993
 7659TIP3    H144468   3.825   2.297  11.982 -2.2849 -1.9221  1.6475
 7659TIP3    H244469   3.723   2.403  12.019 -1.5917 -0.4257 -0.5229
 7660TIP3   OH244470   3.426   4.817  12.226  0.3163  0.4634  0.7129
 7660TIP3    H144471   3.470   4.796  12.309  0.2248 -1.7937  0.2639
 7660TIP3    H244472   3.497   4.821  12.162  0.1644 -0.3231  0.4842
 7661TIP3   OH244473   0.168   4.557  16.355  0.6904  0.0552 -0.1440
 7661TIP3    H144474   0.255   4.577  16.321  1.3940 -0.3388  1.3463
 7661TIP3    H244475   0.184   4.509  16.436 -0.9102  1.1225  0.8581
 7662TIP3   OH244476   5.234   1.038  11.633  0.3834 -0.4169 -0.1703
 7662TIP3    H144477   5.268   0.961  11.679 -0.3143 -0.7281 -0.1675
 7662TIP3    H244478   5.144   1.047  11.664  0.3645  0.2317 -0.3913
 7663TIP3   OH244479   1.302   3.082  15.804 -0.1352 -0.9044  0.5617
 7663TIP3    H144480   1.340   3.102  15.718 -1.3454 -0.4906  0.1080
 7663TIP3    H244481   1.373   3.037  15.851  0.1921 -2.2252 -1.0675
 7664TIP3   OH244482   2.114   0.529   0.041  0.4126  0.1126  0.3706
 7664TIP3    H144483   2.068   0.571  -0.032  1.6775  2.0720  0.6114
 7664TIP3    H244484   2.052   0.534   0.114  0.6417  1.9915  0.4883
 7665TIP3   OH244485   4.958   5.821  16.524  0.2700  0.2908  0.1726
 7665TIP3    H144486   5.000   5.752  16.576  1.2570  0.6757 -0.0898
 7665TIP3    H244487   4.907   5.774  16.458  1.4454 -0.1965 -0.4029
 7666TIP3   OH244488   3.184   2.660  11.782  0.6078  0.2073 -0.3265
 7666TIP3    H144489   3.180   2.580  11.834  1.6496 -0.3396 -1.0308
 7666TIP3    H244490   3.154   2.729  11.841 -0.1996 -0.6800  0.3316
 7667TIP3   OH244491   6.494   2.913   1.878  0.6788  0.4745 -0.3281
 7667TIP3    H144492   6.405   2.944   1.890  0.4170  0.1253 -1.3287
 7667TIP3    H244493   6.511   2.860   1.956  0.8555  2.3963  1.0095
 7668TIP3   OH244494   2.095   2.220  13.102  0.2717 -0.1389  0.2292
 7668TIP3    H144495   2.168   2.189  13.155 -0.4193 -1.8576  0.2432
 7668TIP3    H244496   2.018   2.178  13.141 -0.4618 -0.0448 -1.0818
 7669TIP3   OH244497   4.046   1.255   0.603  0.3609  0.4782 -0.0235
 7669TIP3    H144498   4.007   1.314   0.668 -2.4902  1.2837 -2.2572
 7669TIP3    H244499   4.043   1.169   0.645 -1.5016  0.9578  0.9486
 7670TIP3   OH244500   3.754   5.975  16.523  0.2082 -0.4817 -0.1098
 7670TIP3    H144501   3.727   6.047  16.580 -0.3803 -1.9751  1.5958
 7670TIP3    H244502   3.846   5.993  16.503 -0.3188  1.5081 -1.0136
 7671TIP3   OH244503   5.490   1.680   5.039  0.5773 -0.1427  0.0743
 7671TIP3    H144504   5.499   1.757   4.984  0.4431  0.2565  0.6054
 7671TIP3    H244505   5.572   1.632   5.028  0.7904  0.2413 -0.0129
 7672TIP3   OH244506   1.934   5.092  10.640 -0.4438 -0.4221 -0.2870
 7672TIP3    H144507   1.998   5.071  10.572  1.7114 -2.1651  2.1189
 7672TIP3    H244508   1.964   5.175  10.676  0.1032 -0.8939  0.3729
 7673TIP3   OH244509   0.245   1.506   4.564 -0.6241  0.1647 -0.2002
 7673TIP3    H144510   0.182   1.516   4.494 -1.1373  0.2553  0.2659
 7673TIP3    H244511   0.322   1.466   4.523 -0.4634  1.3055 -1.0466
 7674TIP3   OH244512   0.281   0.255  12.541  0.4620  0.5401  0.1168
 7674TIP3    H144513   0.200   0.291  12.505  0.2530 -0.1733 -0.1440
 7674TIP3    H244514   0.349   0.282  12.479  0.3725  0.8512  0.1545
 7675TIP3   OH244515   0.130   4.410   1.815 -0.4234 -0.2302 -0.3735
 7675TIP3    H144516   0.048   4.443   1.779 -0.5325 -1.9365 -1.8109
 7675TIP3    H244517   0.107   4.325   1.854  0.6319 -0.7409 -0.8143
 7676TIP3   OH244518   5.740   2.540  16.232  0.4695 -0.2035 -0.8478
 7676TIP3    H144519   5.716   2.480  16.161 -0.7771  1.7531 -2.1855
 7676TIP3    H244520   5.791   2.609  16.189 -0.2318  0.9877  0.1746
 7677TIP3   OH244521   0.903   0.040   6.429  0.1782  0.1912 -0.1497
 7677TIP3    H144522   0.870   0.117   6.382 -0.4067 -0.5387 -0.9695
 7677TIP3    H244523   0.839  -0.028   6.411 -1.1033  0.3268  3.2774
 7678TIP3   OH244524   0.116   1.504  16.628  0.1336  0.2863  0.3379
 7678TIP3    H144525   0.185   1.485  16.692  0.0486  0.8842  0.6135
 7678TIP3    H244526   0.144   1.459  16.548  0.1595 -0.5989  0.8381
 7679TIP3   OH244527   0.628   3.190   4.746  0.3060 -0.3342  0.2252
 7679TIP3    H144528   0.595   3.142   4.823  1.7819 -1.3245  0.2779
 7679TIP3    H244529   0.686   3.256   4.783 -1.4714  1.3718  0.1290
 7680TIP3   OH244530   0.967   2.811   4.983  0.4628  0.5183  0.4016
 7680TIP3    H144531   0.917   2.829   4.904 -1.6587  0.7636  1.7207
 7680TIP3    H244532   1.028   2.885   4.990  0.3517  0.7306 -0.7303
 7681TIP3   OH244533   4.471   2.321  12.221  0.1693  0.0778  0.2709
 7681TIP3    H144534   4.559   2.316  12.184  0.9213 -0.3881  1.9942
 7681TIP3    H244535   4.462   2.413  12.248 -0.0025  0.1912 -0.1562
 7682TIP3   OH244536   5.439   0.952   2.914  0.1855  0.4796  0.9176
 7682TIP3    H144537   5.350   0.947   2.879  0.7060 -2.7251 -0.3110
 7682TIP3    H244538   5.430   0.932   3.007 -0.3367 -1.3964  0.5137
 7683TIP3   OH244539   0.293   6.319  11.805 -0.1953  0.2289  0.1935
 7683TIP3    H144540   0.277   6.225  11.792  0.9619 -0.0891  0.9521
 7683TIP3    H244541   0.225   6.347  11.866  0.0984 -0.3739  0.8166
 7684TIP3   OH244542   2.064   3.822   1.910  0.0777 -0.0882  0.0042
 7684TIP3    H144543   2.119   3.749   1.940  0.0733 -0.5667 -1.1092
 7684TIP3    H244544   1.987   3.818   1.967  0.3584 -0.5617  0.3633
 7685TIP3   OH244545   0.952   2.064  15.098  0.2253 -0.5857  0.7198
 7685TIP3    H144546   0.982   2.128  15.162  2.8495 -0.5848 -0.3673
 7685TIP3    H244547   0.857   2.076  15.094  0.4757  2.3662  1.4494
 7686TIP3   OH244548   2.683   0.928  11.462 -0.4665 -0.4303 -0.0176
 7686TIP3    H144549   2.702   0.865  11.392 -0.2635 -0.2400 -0.1350
 7686TIP3    H244550   2.653   1.006  11.415 -1.4448 -0.6858  0.1574
 7687TIP3   OH244551   5.906   6.308   0.492  0.1943 -0.2672 -0.2541
 7687TIP3    H144552   5.946   6.362   0.561 -2.3897  2.3483 -0.6329
 7687TIP3    H244553   5.834   6.263   0.535  0.1399 -0.6369 -0.7206
 7688TIP3   OH244554   0.945   6.178  11.676  0.1365 -0.3659 -0.5626
 7688TIP3    H144555   0.962   6.239  11.747  1.5004  0.3362 -1.4396
 7688TIP3    H244556   0.863   6.135  11.700  0.1233  0.4562  0.9935
 7689TIP3   OH244557   2.155   2.093   0.953 -0.3563  0.2629 -0.3031
 7689TIP3    H144558   2.150   2.185   0.978 -3.7848  0.8363 -2.4615
 7689TIP3    H244559   2.146   2.045   1.036 -0.8412  1.8816  0.6192
 7690TIP3   OH244560   4.148   4.237   6.445  0.1934 -0.1633  0.6884
 7690TIP3    H144561   4.207   4.190   6.386 -0.3647 -2.1803  1.6287
 7690TIP3    H244562   4.183   4.326   6.450  1.4147 -0.5036 -1.0516
 7691TIP3   OH244563   4.291   4.122   6.263 -0.1632  0.1632 -0.2986
 7691TIP3    H144564   4.322   4.081   6.182 -2.2522  0.6132 -1.4054
 7691TIP3    H244565   4.353   4.193   6.279  2.4046 -2.1108  0.6017
 7692TIP3   OH244566   5.422   3.111   1.757 -0.2158  0.0311 -0.1153
 7692TIP3    H144567   5.416   3.068   1.843 -1.2732 -0.3809 -0.3664
 7692TIP3    H244568   5.421   3.038   1.695  0.6977  0.3216 -0.4750
 7693TIP3   OH244569   1.286   4.654  12.178 -0.5801  0.0081  0.0021
 7693TIP3    H144570   1.212   4.678  12.122 -0.7532 -0.0180  0.2233
 7693TIP3    H244571   1.321   4.738  12.209 -0.3475  0.0337 -0.3198
 7694TIP3   OH244572   2.425   4.669   0.934  0.1657 -0.1774  0.5462
 7694TIP3    H144573   2.352   4.721   0.899 -0.4320 -1.9317 -1.0639
 7694TIP3    H244574   2.388   4.625   1.011  0.4821  1.2222  1.5282
 7695TIP3   OH244575   3.118   6.116   1.595 -0.5100  0.2696  0.3921
 7695TIP3    H144576   3.165   6.173   1.656  0.1029 -0.2181  0.3881
 7695TIP3    H244577   3.101   6.171   1.519 -2.2399  1.2046  1.4061
 7696TIP3   OH244578   4.888   5.673  11.039 -0.1349 -0.2917  0.1257
 7696TIP3    H144579   4.920   5.710  10.957 -1.1343  0.2978 -0.0196
 7696TIP3    H244580   4.937   5.592  11.050 -0.0913 -0.4560 -1.1317
 7697TIP3   OH244581   3.358   5.011   4.584  0.2771  0.3469 -0.1609
 7697TIP3    H144582   3.374   4.917   4.573 -1.0709  0.1017 -0.2434
 7697TIP3    H244583   3.378   5.028   4.676  1.7556  0.2597 -0.4482
 7698TIP3   OH244584   6.821   6.490  12.786  0.2309  0.0012  0.5365
 7698TIP3    H144585   6.773   6.409  12.771 -2.6028  1.5084  0.8885
 7698TIP3    H244586   6.849   6.485  12.877 -0.7286 -0.2097  0.8296
 7699TIP3   OH244587   0.169   4.599   2.605 -0.2385 -0.4579 -0.6887
 7699TIP3    H144588   0.143   4.625   2.694 -1.1253  0.3353 -1.1629
 7699TIP3    H244589   0.087   4.601   2.555  0.0633 -1.9527 -1.2903
 7700TIP3   OH244590   0.391   3.109  13.433 -0.7455  0.0027  0.2143
 7700TIP3    H144591   0.412   3.028  13.387 -0.5018 -1.4266  2.6619
 7700TIP3    H244592   0.410   3.178  13.369 -1.0036 -1.8230 -1.9775
 7701TIP3   OH244593   0.211   4.402  13.807  0.1018  0.2295  0.5009
 7701TIP3    H144594   0.215   4.408  13.902 -0.2187  1.9189  0.4372
 7701TIP3    H244595   0.133   4.350  13.790 -0.2328  0.5050  1.1560
 7702TIP3   OH244596   3.358   2.363  13.402 -0.0904  0.0380 -0.0287
 7702TIP3    H144597   3.381   2.453  13.423 -0.7436  0.2659 -0.2694
 7702TIP3    H244598   3.423   2.335  13.338  0.6217  0.0522  0.6703
 7703TIP3   OH244599   0.377   1.577  12.886  0.0828  0.3672 -0.1199
 7703TIP3    H144600   0.381   1.502  12.946  0.0814 -2.2155 -3.1147
 7703TIP3    H244601   0.296   1.622  12.911  0.3374 -0.2736  2.1058
 7704TIP3   OH244602   5.024   3.480  15.469 -0.0167 -0.7543  0.4753
 7704TIP3    H144603   5.085   3.543  15.509  2.4532 -3.0406  0.5785
 7704TIP3    H244604   5.033   3.495  15.375 -0.6638  0.0827  0.5360
 7705TIP3   OH244605   3.315   0.078   5.410 -0.4987  0.0268  0.6230
 7705TIP3    H144606   3.222   0.074   5.434 -0.6528 -0.5126 -0.0320
 7705TIP3    H244607   3.356   0.008   5.461 -0.0034  1.7047  2.6918
 7706TIP3   OH244608   1.378   5.085   4.151  0.0977 -0.1895 -0.1574
 7706TIP3    H144609   1.443   5.136   4.102  0.2182 -0.9630 -0.8337
 7706TIP3    H244610   1.424   5.059   4.230 -0.6393  2.5333  1.2951
 7707TIP3   OH244611   4.664   2.625   4.831 -0.8455 -0.4761  0.9982
 7707TIP3    H144612   4.696   2.656   4.746 -1.1486  0.3245  1.1695
 7707TIP3    H244613   4.676   2.530   4.827 -1.5237 -0.5417 -0.2208
 7708TIP3   OH244614   4.751   6.715   2.974  0.4391 -0.0107 -0.0223
 7708TIP3    H144615   4.703   6.785   2.930  2.3453  0.1814 -1.9492
 7708TIP3    H244616   4.843   6.733   2.955  1.4568 -0.1137  3.8325
 7709TIP3   OH244617   2.948   5.506  13.486 -0.2789  0.2365  0.1357
 7709TIP3    H144618   2.897   5.577  13.448 -0.4253  0.7728  1.3066
 7709TIP3    H244619   2.940   5.434  13.423 -0.7575  0.9972 -0.6902
 7710TIP3   OH244620   3.582   6.470  16.037 -0.0403  0.5084 -0.6604
 7710TIP3    H144621   3.646   6.537  16.012 -0.4016  0.7077 -1.0875
 7710TIP3    H244622   3.501   6.498  15.993 -0.5755  0.5964  0.3574
 7711TIP3   OH244623   1.921   2.396   2.943  0.1286  0.0253 -0.1996
 7711TIP3    H144624   1.958   2.443   3.018  0.1669  1.0979 -0.8638
 7711TIP3    H244625   1.995   2.381   2.885  0.1517 -1.0677  0.0982
 7712TIP3   OH244626   5.973   4.850   5.998 -0.0691  0.2220  0.0519
 7712TIP3    H144627   5.896   4.809   6.037 -0.2480  0.6865  0.2000
 7712TIP3    H244628   5.999   4.918   6.062 -0.8478  1.5393 -0.9797
 7713TIP3   OH244629   0.732   4.585  16.919  0.0244 -0.4979 -0.0119
 7713TIP3    H144630   0.783   4.574  16.838  0.7144 -0.2794  0.3792
 7713TIP3    H244631   0.798   4.594  16.987 -0.5362 -2.1598  0.8018
 7714TIP3   OH244632   0.449   1.379  10.730 -0.6965 -0.6578 -0.4854
 7714TIP3    H144633   0.412   1.464  10.755  1.8963  1.0199 -1.8899
 7714TIP3    H244634   0.538   1.379  10.767 -0.2149 -2.2359 -1.5118
 7715TIP3   OH244635   5.815   3.763  16.186 -0.0518 -0.0776 -0.3463
 7715TIP3    H144636   5.742   3.710  16.218 -0.7921  0.2749 -1.3687
 7715TIP3    H244637   5.875   3.769  16.259 -1.1354 -0.2412  0.5840
 7716TIP3   OH244638   6.816   1.525  13.357 -0.0914 -0.0869  0.5103
 7716TIP3    H144639   6.899   1.484  13.382 -0.9022 -1.5349  0.9198
 7716TIP3    H244640   6.757   1.509  13.431 -0.6574  1.2592  0.3926
 7717TIP3   OH244641   2.268   6.213  14.729 -0.1422  0.4278  0.2575
 7717TIP3    H144642   2.329   6.286  14.742  0.5194  0.1048 -0.9037
 7717TIP3    H244643   2.202   6.225  14.797 -0.2116  2.2844 -0.0782
 7718TIP3   OH244644   2.736   1.075  11.065  0.2681  0.7545  0.0238
 7718TIP3    H144645   2.776   1.102  10.983  2.0366 -0.1635  0.5453
 7718TIP3    H244646   2.643   1.097  11.055  0.6388  1.6301 -1.7797
 7719TIP3   OH244647   4.667   4.988   1.138 -0.3963  0.3178  0.0921
 7719TIP3    H144648   4.718   5.028   1.208  3.1567 -0.6650 -1.6829
 7719TIP3    H244649   4.654   5.058   1.074 -2.8171  0.9729  1.2087
 7720TIP3   OH244650   5.558   3.633   1.717  0.2119 -0.1144  0.1052
 7720TIP3    H144651   5.465   3.627   1.740  0.4118 -2.7416  0.4972
 7720TIP3    H244652   5.601   3.658   1.799 -0.0187 -0.2294  0.2617
 7721TIP3   OH244653   6.307   6.320  15.783  0.1250 -0.0776 -0.3581
 7721TIP3    H144654   6.326   6.414  15.775 -1.0025  0.0807 -1.6879
 7721TIP3    H244655   6.218   6.311  15.748  0.4775 -1.7413 -0.9169
 7722TIP3   OH244656   3.068   0.124   0.841 -0.5786  0.2655 -0.3685
 7722TIP3    H144657   2.998   0.142   0.904  0.3555  0.6922  0.5813
 7722TIP3    H244658   3.089   0.032   0.854 -0.0404  0.4776  0.3251
 7723TIP3   OH244659   2.002   5.391  11.651  0.4894  0.2768  0.2666
 7723TIP3    H144660   2.042   5.375  11.565  0.8818  2.4339 -0.0089
 7723TIP3    H244661   1.934   5.457  11.634  0.2398  0.3715  1.5374
 7724TIP3   OH244662   0.685   6.027   5.087 -0.6914 -0.2536  0.1617
 7724TIP3    H144663   0.650   6.088   5.151 -0.0365  0.2180  0.0892
 7724TIP3    H244664   0.687   6.077   5.005 -0.7132 -0.5695 -0.0340
 7725TIP3   OH244665   2.474   4.290   4.456  0.0118  0.0562  0.4331
 7725TIP3    H144666   2.379   4.298   4.463 -0.1191 -1.2097  0.4038
 7725TIP3    H244667   2.508   4.374   4.489 -1.0925  0.2768  1.0661
 7726TIP3   OH244668   6.466   0.965   1.937  0.2236  0.4925  0.1546
 7726TIP3    H144669   6.372   0.969   1.919  0.2862 -0.3419 -0.4243
 7726TIP3    H244670   6.500   1.048   1.904 -0.5614  1.6824  2.1264
 7727TIP3   OH244671   2.547   0.962  13.945  0.0591 -0.2670  0.1960
 7727TIP3    H144672   2.546   0.932  13.854 -1.0490  1.7084 -0.5003
 7727TIP3    H244673   2.638   0.987  13.960  0.4533 -1.4850 -0.0344
 7728TIP3   OH244674   3.958   3.172   2.616 -0.3007 -0.6336  0.2075
 7728TIP3    H144675   4.023   3.221   2.667 -2.1667  0.5562  1.5749
 7728TIP3    H244676   3.985   3.185   2.525  0.6599  0.9187  0.6704
 7729TIP3   OH244677   2.149   6.069  15.216 -0.1594  0.7575  0.7283
 7729TIP3    H144678   2.082   6.007  15.244 -0.5499  1.8454  2.3724
 7729TIP3    H244679   2.205   6.080  15.293  2.1323 -0.3557 -0.6924
 7730TIP3   OH244680   2.597   4.201  14.241  0.1467  0.3067 -0.1733
 7730TIP3    H144681   2.603   4.155  14.157  1.3700 -0.5669  0.3470
 7730TIP3    H244682   2.678   4.176  14.286 -0.4709  0.8006  1.2393
 7731TIP3   OH244683   1.588   5.349   0.768  0.9121  0.1512 -0.2773
 7731TIP3    H144684   1.665   5.332   0.823  2.2700  1.4442 -1.6794
 7731TIP3    H244685   1.623   5.396   0.692 -1.0700 -0.4856 -1.6636
 7732TIP3   OH244686   2.806   4.374   4.074 -0.2644  0.1482  0.3510
 7732TIP3    H144687   2.723   4.327   4.075  0.5261 -1.3043  0.6322
 7732TIP3    H244688   2.797   4.439   4.144 -1.2774  0.2312  0.1565
 7733TIP3   OH244689   3.346   5.458   3.967  0.5022  0.1260 -0.4610
 7733TIP3    H144690   3.260   5.500   3.977 -0.0259 -0.9429 -0.3539
 7733TIP3    H244691   3.339   5.410   3.885  0.7807 -0.4569 -0.1473
 7734TIP3   OH244692   1.545   1.506  12.272 -0.4021 -0.1582 -0.5872
 7734TIP3    H144693   1.457   1.503  12.234 -0.1137 -1.3301 -1.2211
 7734TIP3    H244694   1.531   1.518  12.366 -1.3240 -2.0817 -0.4318
 7735TIP3   OH244695   0.093   1.785   5.679 -0.3382  0.0820  0.3401
 7735TIP3    H144696   0.018   1.833   5.644 -1.5775 -1.1764  1.2048
 7735TIP3    H244697   0.084   1.696   5.644  0.3203 -0.2847  1.0586
 7736TIP3   OH244698   3.723   6.443   4.296  0.1814  0.8409 -0.1575
 7736TIP3    H144699   3.772   6.525   4.307  1.1623  0.4477 -1.3574
 7736TIP3    H244700   3.725   6.402   4.382  3.3461  0.1287 -0.4508
 7737TIP3   OH244701   1.099   1.279   6.261  0.1925 -0.1056  0.1965
 7737TIP3    H144702   1.037   1.351   6.256 -1.4166 -1.4843 -0.8282
 7737TIP3    H244703   1.178   1.313   6.218 -0.2631  1.2758  0.4006
 7738TIP3   OH244704   1.779   2.311   5.131  0.0712  0.1137 -0.3077
 7738TIP3    H144705   1.807   2.336   5.219  0.7237 -0.9488 -0.1864
 7738TIP3    H244706   1.856   2.328   5.076  0.0482 -0.2572 -0.4625
 7739TIP3   OH244707   2.946   1.044  13.760 -0.0148  0.7528  0.0228
 7739TIP3    H144708   3.030   1.001  13.777  0.3291  0.6114 -1.7642
 7739TIP3    H244709   2.963   1.137  13.776 -0.6282  0.3928  3.4212
 7740TIP3   OH244710   6.818   1.594  14.564  0.2297 -0.3188 -0.8753
 7740TIP3    H144711   6.884   1.652  14.528 -0.4929 -0.1906 -2.0243
 7740TIP3    H244712   6.737   1.645  14.562 -0.1884 -0.9688 -0.8163
 7741TIP3   OH244713   5.450   2.860   3.908  0.2385  0.4318 -0.1276
 7741TIP3    H144714   5.373   2.839   3.960  0.0632  0.9017 -0.1949
 7741TIP3    H244715   5.466   2.782   3.855  0.1960  0.0909  0.3571
 7742TIP3   OH244716   6.158   4.212   5.783 -0.8575  0.2653  0.1456
 7742TIP3    H144717   6.137   4.215   5.690 -1.2402 -1.0487  0.1641
 7742TIP3    H244718   6.074   4.198   5.827 -0.5705 -0.0580  0.6111
 7743TIP3   OH244719   1.459   4.194   1.915  0.2113 -0.3009  0.7529
 7743TIP3    H144720   1.490   4.283   1.932  0.3632 -0.2165  0.0562
 7743TIP3    H244721   1.523   4.158   1.853 -1.4084  0.0984 -1.2343
 7744TIP3   OH244722   0.604   5.099   2.203  0.1062  0.0838 -0.0069
 7744TIP3    H144723   0.663   5.057   2.267 -1.2970 -0.0451  1.2459
 7744TIP3    H244724   0.545   5.029   2.175 -1.1210  0.7861  0.7491
 7745TIP3   OH244725   2.772   2.726  15.984 -0.0731 -0.4157 -0.2867
 7745TIP3    H144726   2.828   2.676  16.043 -1.9882 -2.2594  0.0925
 7745TIP3    H244727   2.755   2.666  15.911 -1.5768  0.0355 -0.3528
 7746TIP3   OH244728   6.297   0.260  12.903 -0.5849 -0.0972 -0.0435
 7746TIP3    H144729   6.278   0.207  12.825 -1.4650 -1.2754  0.9339
 7746TIP3    H244730   6.286   0.199  12.976  2.3382  0.3886  0.9271
 7747TIP3   OH244731   6.805   6.624   4.561  0.8125  0.0090 -0.0077
 7747TIP3    H144732   6.837   6.704   4.602  1.7810 -0.6066  0.4594
 7747TIP3    H244733   6.872   6.601   4.497 -0.8806  1.2232 -2.3675
 7748TIP3   OH244734   5.242   2.305   0.690  0.1668  0.3155  0.0614
 7748TIP3    H144735   5.316   2.365   0.702 -0.1448  0.4907  1.2362
 7748TIP3    H244736   5.256   2.267   0.603  0.7191  1.5991 -0.4402
 7749TIP3   OH244737   1.213   2.584  15.879  0.2590 -0.9609 -0.6061
 7749TIP3    H144738   1.261   2.523  15.935 -0.4649 -1.4536 -0.5135
 7749TIP3    H244739   1.216   2.544  15.792 -0.2231 -1.1359 -0.5444
 7750TIP3   OH244740   6.696   3.307  10.883 -0.0740 -0.0268  0.3438
 7750TIP3    H144741   6.640   3.369  10.838  0.4757  1.1710  1.2611
 7750TIP3    H244742   6.782   3.318  10.842  0.2191  0.4392  1.0491
 7751TIP3   OH244743   0.908   1.121  14.756 -0.9880 -0.1720 -0.6321
 7751TIP3    H144744   0.843   1.119  14.686 -1.4875 -0.4353 -0.1633
 7751TIP3    H244745   0.991   1.136  14.711 -1.6281  2.6353 -1.0773
 7752TIP3   OH244746   3.396   1.478  13.822  0.5264  0.4103  0.3252
 7752TIP3    H144747   3.344   1.479  13.902 -0.8699 -0.3026 -0.5141
 7752TIP3    H244748   3.348   1.535  13.761  1.3818  0.6880 -0.1157
 7753TIP3   OH244749   5.029   1.569   5.149  0.3377 -0.2349  0.0463
 7753TIP3    H144750   5.057   1.653   5.187  1.3778 -0.7472  0.4532
 7753TIP3    H244751   5.074   1.503   5.201  0.0984 -1.0302 -0.7277
 7754TIP3   OH244752   5.753   3.292   1.750  0.0097 -0.0640  0.0487
 7754TIP3    H144753   5.803   3.214   1.774  0.1740 -0.2464 -0.8618
 7754TIP3    H244754   5.690   3.303   1.822  1.0212 -0.1118  0.9546
 7755TIP3   OH244755   0.781   3.620  16.631  0.2700 -0.7075  0.1540
 7755TIP3    H144756   0.787   3.525  16.644  0.1246 -0.7543 -0.1090
 7755TIP3    H244757   0.825   3.657  16.707  1.1318 -0.9998 -0.1934
 7756TIP3   OH244758   6.241   3.482  12.954  0.0146 -0.2159 -0.3713
 7756TIP3    H144759   6.232   3.442  12.868 -1.5019  1.1888 -0.9293
 7756TIP3    H244760   6.153   3.479  12.992  0.9587 -2.2846  1.8824
 7757TIP3   OH244761   4.484   2.710  16.147 -0.3350  0.1796 -0.4597
 7757TIP3    H144762   4.496   2.616  16.158 -1.1522  0.1354  0.1301
 7757TIP3    H244763   4.394   2.720  16.115 -0.5568  0.8036  0.3232
 7758TIP3   OH244764   5.105   1.296   1.521 -0.3316  1.1445 -0.1982
 7758TIP3    H144765   5.089   1.384   1.487  0.7867  1.5924  0.3742
 7758TIP3    H244766   5.108   1.307   1.616  0.0410  0.5318 -0.1365
 7759TIP3   OH244767   3.265   1.489   0.630  0.4641 -0.3219  0.0094
 7759TIP3    H144768   3.345   1.475   0.579  0.8354 -1.0158  0.7685
 7759TIP3    H244769   3.280   1.441   0.711  0.1870  1.3368  1.0903
 7760TIP3   OH244770   4.263   5.761   5.588 -0.3014 -0.2624  0.2955
 7760TIP3    H144771   4.246   5.850   5.620  1.2597 -0.1397  0.9345
 7760TIP3    H244772   4.358   5.751   5.598 -0.6230 -2.5835  1.8261
 7761TIP3   OH244773   1.518   3.122   2.780  0.0663  0.3050  0.8888
 7761TIP3    H144774   1.594   3.064   2.792  0.0144  0.2168  0.7878
 7761TIP3    H244775   1.472   3.118   2.864 -0.1498 -0.1032  0.7550
 7762TIP3   OH244776   5.942   1.450   3.407 -0.2355 -0.3835  0.3443
 7762TIP3    H144777   5.989   1.368   3.426  1.6088  0.4365 -0.3690
 7762TIP3    H244778   5.910   1.439   3.317  1.3552  0.1980 -0.3419
 7763TIP3   OH244779   5.512   1.849  10.721  0.6146  0.2552 -0.8200
 7763TIP3    H144780   5.436   1.904  10.741  1.2121  1.2698 -1.2412
 7763TIP3    H244781   5.483   1.795  10.648  0.1195  0.2436 -0.6187
 7764TIP3   OH244782   3.133   2.404  16.659  0.4687 -0.0635 -0.0350
 7764TIP3    H144783   3.132   2.310  16.642  2.8248 -0.0238 -0.8177
 7764TIP3    H244784   3.145   2.444  16.573  0.2028  0.9239  0.3700
 7765TIP3   OH244785   1.091   5.013   1.487 -0.0131  0.1496  0.1136
 7765TIP3    H144786   1.041   5.076   1.540 -1.4880 -1.8321  1.2146
 7765TIP3    H244787   1.076   5.040   1.397 -2.1647  0.3586  0.4658
 7766TIP3   OH244788   4.833   4.603  12.434  0.0924  0.4367 -0.1433
 7766TIP3    H144789   4.818   4.529  12.376  4.1986 -0.0878 -0.8118
 7766TIP3    H244790   4.850   4.677  12.375 -0.5857  1.1101  0.4821
 7767TIP3   OH244791   5.372   3.740   4.484  0.8869 -0.1861  0.0009
 7767TIP3    H144792   5.399   3.692   4.562  2.0994  0.6173  0.0931
 7767TIP3    H244793   5.433   3.813   4.478  0.6036 -0.0448 -1.5169
 7768TIP3   OH244794   2.972   2.957  16.555 -0.0745  0.2563 -1.0048
 7768TIP3    H144795   2.886   2.978  16.518 -0.6740  0.0076  0.2322
 7768TIP3    H244796   2.991   2.869  16.522 -0.5899  0.0443 -0.7484
 7769TIP3   OH244797   0.859   1.686   0.437 -0.1459 -0.2603  0.3063
 7769TIP3    H144798   0.861   1.731   0.353  1.7182 -0.0720  0.4103
 7769TIP3    H244799   0.943   1.640   0.441 -0.8764 -1.5744  1.3746
 7770TIP3   OH244800   1.463   3.001  16.871 -0.4793  0.0485  0.1980
 7770TIP3    H144801   1.413   2.997  16.952 -1.1181 -2.2695 -0.2401
 7770TIP3    H244802   1.398   2.988  16.802  0.5765 -2.6729 -0.4010
 7771TIP3   OH244803   1.338   6.738  12.824 -0.2512  0.1003  0.5013
 7771TIP3    H144804   1.351   6.790  12.745 -0.7832  0.4516  0.6427
 7771TIP3    H244805   1.243   6.733  12.834 -0.1828  1.1932  1.8576
 7772TIP3   OH244806   0.442   5.629   5.984 -0.0474  0.7098  0.2065
 7772TIP3    H144807   0.478   5.593   5.903  3.2782  0.8549  1.4899
 7772TIP3    H244808   0.380   5.562   6.015  1.4852 -1.1275 -0.5468
 7773TIP3   OH244809   4.616   0.969   4.833 -0.3480  0.1231  0.0545
 7773TIP3    H144810   4.586   1.046   4.881  1.1674  1.0899 -0.4588
 7773TIP3    H244811   4.613   0.996   4.741 -0.5806 -0.7325 -0.1974
 7774TIP3   OH244812   4.788   6.111  11.781  0.2207 -0.4096 -0.5939
 7774TIP3    H144813   4.739   6.030  11.771 -0.4732  0.1075 -1.6918
 7774TIP3    H244814   4.871   6.085  11.819 -0.4151 -1.4781  0.1106
 7775TIP3   OH244815   6.149   2.999  16.347 -0.3720  0.1685 -0.6543
 7775TIP3    H144816   6.069   2.961  16.383 -1.2169  2.7846  0.4158
 7775TIP3    H244817   6.151   2.968  16.256 -0.1897 -3.4921  0.4288
 7776TIP3   OH244818   0.825   2.046  11.412  0.6454 -0.7915 -0.5614
 7776TIP3    H144819   0.832   2.085  11.499  1.6380  1.1539 -1.4350
 7776TIP3    H244820   0.914   2.052  11.376  0.0367 -0.5064 -2.1076
 7777TIP3   OH244821   2.598   3.612  16.274 -0.2585 -0.4120  0.2428
 7777TIP3    H144822   2.604   3.580  16.364  1.3014 -1.2385 -0.1137
 7777TIP3    H244823   2.509   3.588  16.247 -0.9853  0.4183  1.7309
 7778TIP3   OH244824   3.624   1.758   4.982 -0.0650  0.7190  0.2418
 7778TIP3    H144825   3.700   1.813   4.965 -1.2434  3.1786  2.2688
 7778TIP3    H244826   3.657   1.687   5.037  1.0476  0.7816 -0.3179
 7779TIP3   OH244827   4.179   4.793  12.394  0.5984 -0.0377  0.1403
 7779TIP3    H144828   4.226   4.876  12.395 -0.5600  0.6488  0.1337
 7779TIP3    H244829   4.132   4.791  12.478 -0.9488  0.2876 -0.6681
 7780TIP3   OH244830   0.844   1.581   2.890  0.4844  0.1938 -0.2818
 7780TIP3    H144831   0.921   1.622   2.849 -0.4694  1.5159 -0.8170
 7780TIP3    H244832   0.863   1.487   2.888  2.1104  0.4891 -0.3330
 7781TIP3   OH244833   6.871   6.355  13.191 -0.1825  0.2334 -0.0907
 7781TIP3    H144834   6.918   6.379  13.271  0.2380  1.2039 -0.6065
 7781TIP3    H244835   6.907   6.413  13.124 -0.7326 -0.3684 -0.9237
 7782TIP3   OH244836   2.306   5.925   2.875 -0.0169  0.6123  0.3393
 7782TIP3    H144837   2.244   5.995   2.896  0.3960  1.1106 -0.0700
 7782TIP3    H244838   2.255   5.844   2.883 -0.1229  0.8083  2.4357
 7783TIP3   OH244839   2.140   0.042  14.374 -0.7070  0.0552  0.1931
 7783TIP3    H144840   2.098  -0.007  14.304  0.6743 -0.4214 -0.3344
 7783TIP3    H244841   2.224  -0.002  14.388 -0.7240  0.4546  1.7993
 7784TIP3   OH244842   3.385   0.307  15.292  0.3297  0.0069 -0.0220
 7784TIP3    H144843   3.318   0.358  15.246 -0.4284  1.4741  2.5187
 7784TIP3    H244844   3.338   0.234  15.331  0.3000  0.6243  1.1434
 7785TIP3   OH244845   2.469   5.275   4.353 -0.1247  0.1911 -0.0328
 7785TIP3    H144846   2.469   5.222   4.432  1.4244  0.5830  0.2662
 7785TIP3    H244847   2.493   5.363   4.383 -0.3437  0.5339 -0.8261
 7786TIP3   OH244848   2.029   6.673   2.492 -0.0074 -0.2465  1.0068
 7786TIP3    H144849   2.068   6.595   2.454 -1.5627 -1.4662  1.7879
 7786TIP3    H244850   2.002   6.726   2.417 -1.8893 -2.0187  0.3408
 7787TIP3   OH244851   0.910   3.458  11.320 -0.3444  0.1421  0.1886
 7787TIP3    H144852   0.862   3.378  11.298 -3.6981  2.0062  0.0735
 7787TIP3    H244853   0.929   3.498  11.235  2.6010 -1.0798  0.1671
 7788TIP3   OH244854   2.655   1.072   0.604  0.0094  0.4075 -0.2337
 7788TIP3    H144855   2.588   1.100   0.667  0.0873 -0.8930  0.4462
 7788TIP3    H244856   2.606   1.029   0.535  0.0861  0.0175 -0.0474
 7789TIP3   OH244857   1.533   6.045  12.420  0.3345  0.3766  0.4154
 7789TIP3    H144858   1.536   6.018  12.328  2.0120  0.2414  0.4785
 7789TIP3    H244859   1.449   6.090  12.429 -0.6208 -1.0798 -0.7525
 7790TIP3   OH244860   2.226   5.452   1.469  0.0459  0.7312 -0.6657
 7790TIP3    H144861   2.190   5.503   1.541 -1.2182  0.3910 -1.0353
 7790TIP3    H244862   2.192   5.494   1.390  0.3018  0.2810 -1.0238
 7791TIP3   OH244863   0.778   6.798   1.061 -0.1133 -0.5169 -0.3626
 7791TIP3    H144864   0.871   6.820   1.072 -0.8793  3.0701  0.3965
 7791TIP3    H244865   0.741   6.808   1.148 -1.5446  0.3293 -1.0323
 7792TIP3   OH244866   5.576   5.713   1.875 -0.2635  0.5270 -0.0096
 7792TIP3    H144867   5.546   5.719   1.785 -0.6496  1.9664  0.1947
 7792TIP3    H244868   5.527   5.640   1.912 -1.8869  1.4234 -0.3102
 7793TIP3   OH244869   5.436   1.979   3.044  0.0287  0.2298  0.5899
 7793TIP3    H144870   5.409   1.927   3.120  0.4132 -0.4778  0.2560
 7793TIP3    H244871   5.506   1.927   3.005 -0.0561  0.6747 -0.1493
 7794TIP3   OH244872   5.899   6.184  12.377  0.3182 -0.0453 -0.3241
 7794TIP3    H144873   5.807   6.211  12.384  0.5221  0.5607  0.1162
 7794TIP3    H244874   5.905   6.144  12.290 -0.5060 -0.7001 -0.0989
 7795TIP3   OH244875   1.187   3.031   1.749 -0.7466 -0.0895  0.1521
 7795TIP3    H144876   1.276   3.042   1.781  0.3126 -2.1009 -1.8228
 7795TIP3    H244877   1.144   2.977   1.814 -0.7279  1.3030  1.3693
 7796TIP3   OH244878   4.507   4.702  16.172 -0.5832 -0.0217  0.2966
 7796TIP3    H144879   4.581   4.704  16.232 -0.6013  2.6665  0.3423
 7796TIP3    H244880   4.546   4.717  16.086 -0.9771  0.6832  0.2342
 7797TIP3   OH244881   4.144   1.998  12.661  0.3754 -0.6412  0.3987
 7797TIP3    H144882   4.138   2.007  12.757  0.3526 -0.9222  0.4252
 7797TIP3    H244883   4.059   1.962  12.635  0.5607 -1.0326  0.3305
 7798TIP3   OH244884   1.222   2.059  16.988  0.2252  0.5557 -0.3693
 7798TIP3    H144885   1.246   2.105  16.908  1.6120  1.9867  0.8008
 7798TIP3    H244886   1.164   2.119  17.034 -0.6593 -0.3059 -0.3374
 7799TIP3   OH244887   4.275   6.640  10.892  0.1249  0.2459  0.6712
 7799TIP3    H144888   4.346   6.684  10.845 -0.0025  0.0678  0.3091
 7799TIP3    H244889   4.294   6.656  10.985  0.2708  0.7622  0.5553
 7800TIP3   OH244890   0.943   4.080   1.935 -0.1411 -0.0920  0.0909
 7800TIP3    H144891   0.972   4.014   1.998  1.2610  0.9330  0.5791
 7800TIP3    H244892   1.017   4.140   1.929 -0.5140  0.2199 -2.0295
 7801TIP3   OH244893   2.584   4.379   3.173  0.1383  0.6557  0.8465
 7801TIP3    H144894   2.636   4.406   3.098  0.3741 -0.5334  0.5597
 7801TIP3    H244895   2.648   4.351   3.238 -0.1013  0.0969  0.8512
 7802TIP3   OH244896   0.264   2.920  12.461  0.3934 -0.0400 -0.4323
 7802TIP3    H144897   0.257   2.836  12.415  1.5671  0.4507 -1.5403
 7802TIP3    H244898   0.183   2.966  12.438 -0.4411 -0.9779  0.4851
 7803TIP3   OH244899   6.741   3.002   2.921  0.9183 -0.5465 -0.0390
 7803TIP3    H144900   6.744   2.933   2.854  0.2569 -0.3246 -0.3033
 7803TIP3    H244901   6.800   3.070   2.889 -0.4977  0.2093 -1.1439
 7804TIP3   OH244902   4.986   4.262  14.661  0.3143 -0.0731 -0.4324
 7804TIP3    H144903   4.912   4.237  14.605  0.1906  1.6991 -1.1205
 7804TIP3    H244904   5.058   4.206  14.633 -0.0855 -0.0570 -1.5155
 7805TIP3   OH244905   1.519   1.471   3.170  0.1189  0.0413  0.2809
 7805TIP3    H144906   1.423   1.468   3.173  0.1213  0.0750  0.4165
 7805TIP3    H244907   1.539   1.529   3.097  0.0008  1.9509  1.6675
 7806TIP3   OH244908   1.961   6.287  16.074 -0.1138 -0.1913  0.4384
 7806TIP3    H144909   1.931   6.239  15.996 -0.3831  1.8026 -0.7655
 7806TIP3    H244910   2.054   6.266  16.080 -0.0351 -0.2219 -0.5810
 7807TIP3   OH244911   4.968   0.003   1.467  0.4615 -0.5928 -0.0373
 7807TIP3    H144912   4.956   0.043   1.381  0.1345  0.5051  0.5014
 7807TIP3    H244913   5.063  -0.001   1.479  0.5431 -1.7426 -0.8786
 7808TIP3   OH244914   0.253   3.836   0.471 -0.5115 -0.5407 -0.3281
 7808TIP3    H144915   0.242   3.773   0.542  0.2270  0.0480  0.3246
 7808TIP3    H244916   0.303   3.789   0.404  0.5616 -0.4839  0.4079
 7809TIP3   OH244917   5.712   5.973  15.496  0.2283 -0.4900  0.0220
 7809TIP3    H144918   5.763   5.969  15.415  0.7454  1.5983  0.1994
 7809TIP3    H244919   5.761   5.918  15.557  0.5620 -1.0090 -0.6946
 7810TIP3   OH244920   4.024   5.376  11.788  0.4654 -0.4014 -0.1483
 7810TIP3    H144921   4.106   5.327  11.792 -0.5695 -2.1960  3.4033
 7810TIP3    H244922   3.959   5.312  11.758 -0.7114 -1.1405  3.5121
 7811TIP3   OH244923   2.385   0.694  15.433 -0.0113 -0.0018  0.5734
 7811TIP3    H144924   2.397   0.789  15.423  0.4949 -0.1939 -0.9552
 7811TIP3    H244925   2.290   0.681  15.426  0.0615  0.2085 -1.6805
 7812TIP3   OH244926   5.157   1.004  15.236  0.5750 -0.0179 -0.6037
 7812TIP3    H144927   5.177   1.071  15.302  1.1974  0.8011 -1.5926
 7812TIP3    H244928   5.096   1.048  15.177  0.4759 -0.5531 -0.8992
 7813TIP3   OH244929   0.697   5.312  12.806  0.7560  0.0226 -0.0326
 7813TIP3    H144930   0.619   5.291  12.755  0.1074 -1.5646  1.5124
 7813TIP3    H244931   0.733   5.227  12.830  2.8993  0.7343 -0.5559
 7814TIP3   OH244932   0.075   5.029  13.656 -0.2419 -0.3261  0.4426
 7814TIP3    H144933   0.070   4.968  13.582 -5.0493 -2.8604  2.3848
 7814TIP3    H244934   0.040   5.111  13.622 -1.5592 -1.1855 -0.3681
 7815TIP3   OH244935   0.667   5.277  10.938 -0.1077 -0.2283  0.4608
 7815TIP3    H144936   0.703   5.262  11.025  2.4228 -0.4809 -0.5445
 7815TIP3    H244937   0.647   5.371  10.937  3.0983  0.5814  0.3166
 7816TIP3   OH244938   1.838   6.445  13.938 -0.0102 -0.3134 -0.1042
 7816TIP3    H144939   1.834   6.459  14.033 -0.3789 -0.1989 -0.1330
 7816TIP3    H244940   1.840   6.533  13.901  0.5851 -0.3588 -0.1905
 7817TIP3   OH244941   6.684   6.134   1.601  0.0223 -0.2280  0.1203
 7817TIP3    H144942   6.749   6.084   1.651 -0.1116 -0.1067  0.4118
 7817TIP3    H244943   6.651   6.071   1.536 -0.7095 -0.7636  0.9818
 7818TIP3   OH244944   3.330   4.152   2.702  0.2882 -0.4069  0.3781
 7818TIP3    H144945   3.309   4.190   2.787 -2.0345 -2.3454  0.7716
 7818TIP3    H244946   3.249   4.156   2.652  0.8964 -1.6229 -0.7855
 7819TIP3   OH244947   1.290   6.777  14.967  0.7954  0.1782  0.8008
 7819TIP3    H144948   1.286   6.703  15.027  0.9325 -1.1381 -0.7288
 7819TIP3    H244949   1.290   6.854  15.023 -0.6471 -0.9329  2.4124
 7820TIP3   OH244950   1.599   2.746   5.201  0.0161 -0.0669  0.6696
 7820TIP3    H144951   1.569   2.736   5.291  0.3555  2.3431  1.1302
 7820TIP3    H244952   1.685   2.703   5.200  1.2919  2.2006  2.3420
 7821TIP3   OH244953   3.800   3.290  12.217  0.0052 -0.3537 -0.1041
 7821TIP3    H144954   3.863   3.224  12.189  0.2433 -0.9962  1.8056
 7821TIP3    H244955   3.718   3.265  12.174  0.4201 -1.0652 -0.4971
 7822TIP3   OH244956   5.603   1.243  15.113 -0.2178 -0.2848 -0.4971
 7822TIP3    H144957   5.602   1.325  15.162  1.4460  0.5746 -1.8138
 7822TIP3    H244958   5.516   1.238  15.073 -0.7194  0.2540  0.4829
 7823TIP3   OH244959   2.714   3.946  12.604 -0.6774 -0.0696 -0.0622
 7823TIP3    H144960   2.796   3.898  12.605  1.0735  2.7072  0.0615
 7823TIP3    H244961   2.725   4.012  12.535 -2.3462  1.0339  0.6478
 7824TIP3   OH244962   2.557   6.167   0.702 -0.7658  0.3297  0.1976
 7824TIP3    H144963   2.490   6.207   0.647  0.1927  0.6943 -0.7325
 7824TIP3    H244964   2.622   6.236   0.715 -1.6705  0.7844  3.1175
 7825TIP3   OH244965   3.842   1.573  14.237  0.8604  0.2978 -0.5274
 7825TIP3    H144966   3.820   1.594  14.146  0.1767 -1.2422 -0.7370
 7825TIP3    H244967   3.915   1.511  14.230  0.8064  0.1772 -0.0261
 7826TIP3   OH244968   4.190   1.382   5.001  0.0913 -0.0670  0.5390
 7826TIP3    H144969   4.260   1.407   5.061  0.2575  1.1727 -0.1487
 7826TIP3    H244970   4.234   1.351   4.922 -0.1102  0.7686  0.0827
 7827TIP3   OH244971   1.177   5.133  11.706  0.0033 -0.0719  0.5200
 7827TIP3    H144972   1.106   5.081  11.743  1.0709 -0.9572  1.4080
 7827TIP3    H244973   1.214   5.077  11.638 -0.3793  0.5498 -0.2203
 7828TIP3   OH244974   5.511   0.407  14.184 -0.5872  0.1632  0.4275
 7828TIP3    H144975   5.554   0.343  14.241  1.1320  0.4120 -0.5005
 7828TIP3    H244976   5.491   0.481  14.241 -2.6063 -1.1324  1.5145
 7829TIP3   OH244977   3.039   1.000   1.536 -0.0042  0.5225 -0.1926
 7829TIP3    H144978   3.019   1.064   1.604 -0.4797  2.4630 -2.0422
 7829TIP3    H244979   3.098   1.046   1.477 -1.2404 -0.3317 -2.1911
 7830TIP3   OH244980   0.616   4.398  11.296  0.1235 -0.0909 -0.2426
 7830TIP3    H144981   0.649   4.436  11.214 -0.3535 -0.3545 -0.5659
 7830TIP3    H244982   0.630   4.466  11.361 -2.3436  1.4501 -1.1479
 7831TIP3   OH244983   3.692   5.995  13.690  0.7809 -0.0869 -0.2622
 7831TIP3    H144984   3.637   6.071  13.708  1.2136  0.0425  0.5147
 7831TIP3    H244985   3.782   6.029  13.691  1.0394 -0.7572  0.9873
 7832TIP3   OH244986   1.513   1.649   1.443  0.0298  0.2261 -0.4047
 7832TIP3    H144987   1.434   1.668   1.494 -0.2221  0.7696 -0.9923
 7832TIP3    H244988   1.481   1.628   1.355  0.5772  1.3033 -0.8809
 7833TIP3   OH244989   6.479   0.157   3.557 -0.3007 -0.9117 -0.5543
 7833TIP3    H144990   6.471   0.200   3.472 -1.6636  1.4069  0.6389
 7833TIP3    H244991   6.389   0.136   3.583  0.0279 -1.0947  0.5187
 7834TIP3   OH244992   5.697   4.007  14.222 -0.2546 -0.2820 -0.1047
 7834TIP3    H144993   5.738   4.033  14.305 -1.1920  1.5680 -0.1661
 7834TIP3    H244994   5.606   3.989  14.244 -0.3382 -0.5214 -0.6156
 7835TIP3   OH244995   6.440   4.504   1.873  0.1817 -0.4077 -0.1082
 7835TIP3    H144996   6.435   4.550   1.790 -0.6455  0.7980  0.5760
 7835TIP3    H244997   6.364   4.446   1.874 -0.3355  0.2668  0.1903
 7836TIP3   OH244998   2.857   6.536  15.035  0.4439 -0.1955 -0.6821
 7836TIP3    H144999   2.942   6.495  15.053 -0.3419 -1.9197 -0.7484
 7836TIP3    H245000   2.872   6.589  14.957  1.2902 -1.0543 -1.1162
 7837TIP3   OH245001   2.741   3.858   6.644 -0.1581 -0.0834  0.1717
 7837TIP3    H145002   2.686   3.933   6.622 -0.1248  0.2031  1.0345
 7837TIP3    H245003   2.684   3.800   6.695  0.5954  0.7048  1.9938
 7838TIP3   OH245004   2.847   4.872   3.408  0.1253  0.3622  0.0481
 7838TIP3    H145005   2.754   4.890   3.420 -0.0690  1.3478 -2.3565
 7838TIP3    H245006   2.888   4.959   3.406  1.0793 -0.0483  0.7764
 7839TIP3   OH245007   5.332   3.205  16.892  0.3517 -0.6640 -0.7978
 7839TIP3    H145008   5.390   3.281  16.896 -1.5479  0.7860  1.4902
 7839TIP3    H245009   5.294   3.199  16.980  0.0661 -4.0316 -1.0128
 7840TIP3   OH245010   5.240   1.614   1.616 -0.2614 -0.3757  0.2332
 7840TIP3    H145011   5.294   1.535   1.611  0.5929  0.1892  0.1845
 7840TIP3    H245012   5.212   1.630   1.526 -1.6070 -1.3880  0.4448
 7841TIP3   OH245013   0.909   3.156   1.966 -0.5312  0.1730  0.5479
 7841TIP3    H145014   0.975   3.086   1.966 -0.9006 -0.1846  1.4050
 7841TIP3    H245015   0.951   3.228   1.920 -0.3793 -0.8264 -0.9379
 7842TIP3   OH245016   4.281   0.929  15.878  0.1828 -0.1767 -0.1656
 7842TIP3    H145017   4.196   0.960  15.848  0.6003  0.7427 -0.4323
 7842TIP3    H245018   4.333   0.922  15.798  0.9386  1.1385  0.1868
 7843TIP3   OH245019   4.376   6.020   1.821 -0.6557 -0.8085 -0.4308
 7843TIP3    H145020   4.290   6.037   1.780 -0.9823 -1.3920 -0.0043
 7843TIP3    H245021   4.438   6.067   1.766 -1.4113  1.0620  0.2176
 7844TIP3   OH245022   1.926   5.906  15.264  0.1968 -0.3878 -0.3637
 7844TIP3    H145023   1.881   5.977  15.309 -0.2215  0.0724 -1.4755
 7844TIP3    H245024   1.856   5.853  15.225  0.5647 -0.2862 -1.1848
 7845TIP3   OH245025   2.881   0.836   0.209  0.1121  0.0666 -0.1825
 7845TIP3    H145026   2.855   0.749   0.180  0.8836 -0.1834 -0.1373
 7845TIP3    H245027   2.932   0.821   0.288 -0.1376  0.5921  0.0814
 7846TIP3   OH245028   5.903   6.003  11.596  0.0065 -0.4232  0.1974
 7846TIP3    H145029   5.820   5.975  11.557  0.9291 -2.7941 -0.2293
 7846TIP3    H245030   5.964   5.932  11.576  2.5009  1.7672 -0.5633
 7847TIP3   OH245031   4.807   2.673   3.661 -0.8309  0.1142  0.0903
 7847TIP3    H145032   4.809   2.670   3.565  1.1908  0.8034  0.0616
 7847TIP3    H245033   4.870   2.606   3.689 -1.0466  0.2416  0.9189
 7848TIP3   OH245034   2.055   2.473   1.894 -0.5604  0.0280  0.2785
 7848TIP3    H145035   2.053   2.491   1.987  0.0769 -0.2937  0.3585
 7848TIP3    H245036   2.090   2.553   1.854  0.4583 -0.3302  0.4481
 7849TIP3   OH245037   3.509   2.762   1.988 -0.0178  0.3254 -0.5340
 7849TIP3    H145038   3.497   2.667   1.998 -0.4389  0.5077  0.8250
 7849TIP3    H245039   3.487   2.779   1.896  1.8250 -1.1387 -1.3355
 7850TIP3   OH245040   5.571   5.233   1.220  0.0553  0.0412  0.0727
 7850TIP3    H145041   5.583   5.323   1.251  1.9045 -0.5163  1.0848
 7850TIP3    H245042   5.514   5.242   1.144 -0.3974  1.9922  0.5782
 7851TIP3   OH245043   6.304   2.288   2.111 -0.7913  0.8596  0.6001
 7851TIP3    H145044   6.272   2.372   2.078 -0.6379  0.4804 -0.5833
 7851TIP3    H245045   6.369   2.311   2.177 -2.0599  1.6499  1.6248
 7852TIP3   OH245046   6.303   2.594  15.339  0.5468 -0.1306 -0.0742
 7852TIP3    H145047   6.248   2.516  15.355  0.4371 -0.2594 -0.9918
 7852TIP3    H245048   6.241   2.659  15.306  0.7984  0.0173 -0.2530
 7853TIP3   OH245049   3.077   1.400  16.322 -0.0986 -0.2941  0.1861
 7853TIP3    H145050   3.086   1.392  16.227 -0.6015  0.5490  0.0612
 7853TIP3    H245051   2.982   1.394  16.338 -0.0104 -0.5581  0.6533
 7854TIP3   OH245052   3.903   1.824  11.891  0.0551 -0.4041  0.3141
 7854TIP3    H145053   3.972   1.762  11.865 -0.5060 -1.5602  1.5001
 7854TIP3    H245054   3.916   1.899  11.832  2.0808 -0.7385  0.2524
 7855TIP3   OH245055   4.574   3.278   0.893 -0.7335  0.9609  0.0703
 7855TIP3    H145056   4.592   3.320   0.977 -2.1879  2.2491 -0.2051
 7855TIP3    H245057   4.660   3.266   0.853  0.0851 -0.6517  2.1426
 7856TIP3   OH245058   6.012   6.281  13.121  0.1349  0.0483  0.2626
 7856TIP3    H145059   5.941   6.320  13.070  0.5416 -0.7697 -0.9703
 7856TIP3    H245060   6.020   6.338  13.198 -0.2129  1.6078 -0.7931
 7857TIP3   OH245061   3.400   0.744   4.703 -0.4065 -0.1582  0.5057
 7857TIP3    H145062   3.403   0.690   4.624  0.9005 -0.7057  0.9018
 7857TIP3    H245063   3.308   0.743   4.729 -0.9064  0.2247 -1.1118
 7858TIP3   OH245064   3.016   1.734  15.023  0.2071  0.0593  0.6175
 7858TIP3    H145065   3.050   1.766  14.939 -0.1696 -0.3073  0.3179
 7858TIP3    H245066   3.090   1.740  15.083  0.0283  1.9604  0.7101
 7859TIP3   OH245067   4.463   5.109  11.577 -0.0774 -0.3491 -0.2590
 7859TIP3    H145068   4.492   5.186  11.626  0.3303  0.6923 -2.0584
 7859TIP3    H245069   4.543   5.060  11.559 -0.0747 -0.1581 -0.7928
 7860TIP3   OH245070   3.006   2.978   3.125 -0.0673 -0.6424  0.5626
 7860TIP3    H145071   3.055   3.045   3.078  0.1634 -1.0116  0.2711
 7860TIP3    H245072   3.071   2.911   3.145 -0.2230 -0.6165  1.1641
 7861TIP3   OH245073   4.062   5.073  16.853  0.0898 -0.0138 -0.5082
 7861TIP3    H145074   4.157   5.081  16.868 -0.2108  2.0657  0.7723
 7861TIP3    H245075   4.054   5.049  16.761  1.8577 -0.7199 -0.5147
 7862TIP3   OH245076   2.359   2.834  15.113 -0.4324 -0.1125  0.1318
 7862TIP3    H145077   2.421   2.865  15.179 -0.5028 -1.4373  0.8422
 7862TIP3    H245078   2.395   2.867  15.030  0.3457  0.4923  0.6883
 7863TIP3   OH245079   3.560   0.363   2.943 -0.7919  0.2443  0.4658
 7863TIP3    H145080   3.635   0.414   2.911  0.1760 -1.0380  0.5852
 7863TIP3    H245081   3.522   0.418   3.012  0.6375  0.5231  1.0802
 7864TIP3   OH245082   4.122   6.014  13.650  0.5258 -0.1577  0.0051
 7864TIP3    H145083   4.097   5.958  13.723 -0.9771  1.0124  0.4181
 7864TIP3    H245084   4.218   6.020  13.657  0.5335 -1.0883  1.0839
 7865TIP3   OH245085   4.247   0.981  13.375 -0.2818 -0.0914 -0.8115
 7865TIP3    H145086   4.324   1.009  13.325  1.1923 -1.2276  0.6992
 7865TIP3    H245087   4.217   0.902  13.329  0.0252 -0.1691 -0.8838
 7866TIP3   OH245088   6.476   3.957   0.329 -0.1273 -0.3183  0.0390
 7866TIP3    H145089   6.404   3.967   0.391  0.2591 -2.2329  0.8594
 7866TIP3    H245090   6.504   4.047   0.311 -1.6855  0.3853  0.9038
 7867TIP3   OH245091   2.688   2.842  16.968  0.0562 -0.0185  0.6941
 7867TIP3    H145092   2.736   2.897  16.906  0.3722  0.8945  1.7101
 7867TIP3    H245093   2.609   2.815  16.921  1.0879 -0.7717 -0.6866
 7868TIP3   OH245094   0.027   6.442  14.951 -0.0824 -0.2634 -0.5150
 7868TIP3    H145095   0.064   6.500  14.884  1.9075 -1.6773 -0.7050
 7868TIP3    H245096   0.069   6.358  14.937  0.2701 -0.6852  2.4127
 7869TIP3   OH245097   4.545   3.978   3.990 -0.1717  0.1876 -0.3149
 7869TIP3    H145098   4.459   3.954   3.956  0.2008  0.2485 -1.3582
 7869TIP3    H245099   4.530   4.001   4.081 -1.7394  2.7999 -1.1360
 7870TIP3   OH245100   2.118   2.331  11.974 -0.1556 -0.4342  0.5296
 7870TIP3    H145101   2.212   2.336  11.962 -0.1895 -2.4793 -1.3381
 7870TIP3    H245102   2.083   2.410  11.933  0.6553 -0.4939 -0.2814
 7871TIP3   OH245103   5.640   5.730   0.566 -0.0446  0.0445 -0.8075
 7871TIP3    H145104   5.558   5.683   0.585  0.3704 -0.5697 -0.4959
 7871TIP3    H245105   5.612   5.815   0.532 -0.8330  0.4394  0.7397
 7872TIP3   OH245106   5.448   6.000   4.417  0.4804 -0.1634 -0.0800
 7872TIP3    H145107   5.514   5.930   4.416 -0.7812 -1.4246  1.3856
 7872TIP3    H245108   5.456   6.040   4.503  0.8690  1.2653 -0.7365
 7873TIP3   OH245109   6.014   4.399  16.009  0.3304 -0.1240  0.2577
 7873TIP3    H145110   6.044   4.464  15.945 -2.5005  0.4323 -0.6083
 7873TIP3    H245111   5.990   4.450  16.086  1.3815 -0.5471  0.8845
 7874TIP3   OH245112   4.430   3.884  13.430 -0.0252  0.8800  0.7768
 7874TIP3    H145113   4.497   3.947  13.403 -0.6391  0.8902 -0.8146
 7874TIP3    H245114   4.383   3.929  13.500 -0.4678  2.2515 -0.3523
 7875TIP3   OH245115   0.211   2.859  11.499 -0.2338  0.1509 -0.2033
 7875TIP3    H145116   0.166   2.818  11.425 -0.3144 -0.3827  0.1370
 7875TIP3    H245117   0.158   2.935  11.521 -0.7664 -0.2629 -0.0473
 7876TIP3   OH245118   3.039   6.494   6.085 -1.0145 -0.2898  0.3367
 7876TIP3    H145119   3.067   6.586   6.088 -1.2258 -0.2253  0.3595
 7876TIP3    H245120   3.100   6.452   6.025 -1.3101  0.0035 -0.1769
 7877TIP3   OH245121   6.648   0.452   4.854  0.3901 -0.3670 -0.1172
 7877TIP3    H145122   6.596   0.499   4.920 -1.0544 -2.3614  0.2543
 7877TIP3    H245123   6.598   0.460   4.773 -0.1225 -1.6282  0.0586
 7878TIP3   OH245124   2.098   4.126  15.910 -0.2824 -0.8456  0.2310
 7878TIP3    H145125   2.184   4.155  15.879 -0.0709 -1.3381  0.3498
 7878TIP3    H245126   2.087   4.169  15.994 -0.7165  0.2414 -0.3618
 7879TIP3   OH245127   5.160   3.287   1.422 -0.1127  0.2080 -0.1540
 7879TIP3    H145128   5.183   3.329   1.339  0.6232  0.1176  0.0003
 7879TIP3    H245129   5.065   3.280   1.419 -0.2787  1.8975 -0.1916
 7880TIP3   OH245130   1.234   3.175   5.436 -0.3054 -0.1191 -0.0761
 7880TIP3    H145131   1.237   3.099   5.495  1.5626 -0.0819 -0.0523
 7880TIP3    H245132   1.168   3.152   5.371 -1.8929 -0.4801  1.5709
 7881TIP3   OH245133   5.540   6.725   3.367 -0.0657  0.0357 -0.3949
 7881TIP3    H145134   5.560   6.711   3.275 -1.9519  0.6559 -0.9422
 7881TIP3    H245135   5.479   6.655   3.390  2.2068 -1.5905  1.1159
 7882TIP3   OH245136   5.450   1.393   1.639  0.4442 -0.1461  0.2358
 7882TIP3    H145137   5.512   1.436   1.698  1.1063 -2.3129  1.2058
 7882TIP3    H245138   5.483   1.413   1.551  0.5637  1.4885  0.6130
 7883TIP3   OH245139   4.498   6.174   2.883  0.2853  0.1638 -0.7596
 7883TIP3    H145140   4.589   6.173   2.854  0.5610  0.4369  0.0593
 7883TIP3    H245141   4.463   6.255   2.846  0.0993 -0.3896 -1.8421
 7884TIP3   OH245142   6.447   1.024   3.949  0.3375 -0.4145  0.2646
 7884TIP3    H145143   6.489   1.045   3.866 -0.9699  1.1314 -0.0581
 7884TIP3    H245144   6.420   0.932   3.940  0.9203 -0.5065 -0.6797
 7885TIP3   OH245145   0.299   2.791   0.538  0.2714 -0.0883 -0.1662
 7885TIP3    H145146   0.254   2.737   0.602  0.2380 -0.2405 -0.3180
 7885TIP3    H245147   0.391   2.788   0.563  0.1558  0.5332  0.3744
 7886TIP3   OH245148   4.810   3.548  12.902  0.1195 -0.2263  0.6029
 7886TIP3    H145149   4.832   3.616  12.966  1.5137 -0.8801  0.8606
 7886TIP3    H245150   4.752   3.488  12.949 -0.6188  0.4399  0.5630
 7887TIP3   OH245151   3.596   4.186   0.924  0.3487 -0.0178  0.1870
 7887TIP3    H145152   3.583   4.164   1.016  0.8010 -2.7159 -0.2903
 7887TIP3    H245153   3.684   4.224   0.921 -0.2250  1.4715  1.0043
 7888TIP3   OH245154   5.664   5.495   3.128 -0.0856  0.1626  0.6057
 7888TIP3    H145155   5.703   5.416   3.090 -0.8703 -1.4425  2.8751
 7888TIP3    H245156   5.604   5.526   3.061  0.8850 -0.6660 -0.6913
 7889TIP3   OH245157   4.627   2.114   4.033  0.4900  0.6212  0.4650
 7889TIP3    H145158   4.603   2.157   4.115 -0.0731  0.6724  0.2796
 7889TIP3    H245159   4.641   2.187   3.971 -0.1672  0.5554  0.2304
 7890TIP3   OH245160   0.477   6.729  12.496 -0.2572 -0.1740  0.4830
 7890TIP3    H145161   0.558   6.678  12.499  0.1466  0.5092  2.0003
 7890TIP3    H245162   0.418   6.684  12.558 -1.0881 -0.7223 -0.6732
 7891TIP3   OH245163   1.520   2.752   4.587  0.2503 -0.0579 -0.0131
 7891TIP3    H145164   1.565   2.668   4.597 -0.1770 -0.1722  1.1018
 7891TIP3    H245165   1.478   2.746   4.501 -1.3730 -1.8195  0.8023
 7892TIP3   OH245166   4.291   4.985   0.412  0.1659  0.3966  0.4706
 7892TIP3    H145167   4.303   4.978   0.317  1.6825 -0.6830  0.7025
 7892TIP3    H245168   4.369   4.945   0.449 -0.7176  0.1502  2.1884
 7893TIP3   OH245169   0.644   5.207   3.655  0.0476 -0.0994 -0.0420
 7893TIP3    H145170   0.707   5.242   3.717 -0.4870  1.8435 -0.5493
 7893TIP3    H245171   0.658   5.258   3.575 -1.0284 -0.7994 -0.6975
 7894TIP3   OH245172   3.762   1.993   0.333  0.0096  0.1432 -0.2178
 7894TIP3    H145173   3.681   1.955   0.365 -0.2746  0.2132 -0.8373
 7894TIP3    H245174   3.831   1.945   0.379 -0.3729 -0.2356 -0.0344
 7895TIP3   OH245175   2.393   5.373  15.229  0.0114  0.1886  0.1079
 7895TIP3    H145176   2.471   5.426  15.246  1.6422 -1.8184 -0.6741
 7895TIP3    H245177   2.417   5.285  15.259 -1.6205 -0.6680 -0.9568
 7896TIP3   OH245178   2.213   6.625   2.690 -0.0198 -0.0202  0.5154
 7896TIP3    H145179   2.150   6.663   2.628  0.6467  0.7704  0.3048
 7896TIP3    H245180   2.284   6.593   2.635 -1.1182 -2.8071  0.5627
 7897TIP3   OH245181   3.887   5.391  12.570 -0.3792  0.1719 -0.6378
 7897TIP3    H145182   3.822   5.461  12.577 -1.5733 -0.8852 -0.7740
 7897TIP3    H245183   3.841   5.312  12.598  0.8008 -0.6447 -0.9033
 7898TIP3   OH245184   3.906   1.972   5.486 -0.5339 -0.1316 -0.6430
 7898TIP3    H145185   3.936   2.058   5.516 -1.0213 -0.3739  0.6400
 7898TIP3    H245186   3.986   1.925   5.463 -0.1739  0.3120 -0.3130
 7899TIP3   OH245187   3.721   3.736  12.423  0.2447  0.2707 -0.4240
 7899TIP3    H145188   3.635   3.742  12.463  0.3665  0.0271 -0.1213
 7899TIP3    H245189   3.704   3.728  12.329 -0.0183  1.6148 -0.4992
 7900TIP3   OH245190   2.708   0.932  15.465 -0.1243 -0.3522  0.3853
 7900TIP3    H145191   2.670   0.882  15.393 -0.9947 -0.6138  1.0017
 7900TIP3    H245192   2.787   0.884  15.489  0.6311  0.1980 -0.9194
 7901TIP3   OH245193   2.970   1.553  14.500 -0.0591 -0.0854 -0.2929
 7901TIP3    H145194   2.933   1.555  14.412  0.0773 -0.2714 -0.3532
 7901TIP3    H245195   2.923   1.483  14.545  0.6972 -0.7948 -0.5808
 7902TIP3   OH245196   4.385   0.905   3.659  0.6239  0.3755 -0.2600
 7902TIP3    H145197   4.326   0.909   3.735  0.9404  2.0692 -0.0819
 7902TIP3    H245198   4.460   0.855   3.691  0.2490  0.0637  0.1711
 7903TIP3   OH245199   3.464   0.705   6.035 -0.4893 -0.5285  0.0495
 7903TIP3    H145200   3.384   0.728   6.081 -0.2204 -0.3854  0.4477
 7903TIP3    H245201   3.436   0.690   5.944 -0.7300  1.0478 -0.1645
 7904TIP3   OH245202   4.157   0.201  14.982  0.4912 -0.0772 -0.2457
 7904TIP3    H145203   4.184   0.293  14.989 -0.1025 -0.0208  1.7734
 7904TIP3    H245204   4.178   0.163  15.067  3.5747 -2.6896 -1.9683
 7905TIP3   OH245205   0.713   0.136   5.852 -0.3389 -0.0016 -0.4611
 7905TIP3    H145206   0.688   0.227   5.836 -0.1538 -0.3384 -3.2364
 7905TIP3    H245207   0.784   0.141   5.915  1.1742  2.0101 -2.1663
 7906TIP3   OH245208   2.066   6.715  16.305 -0.5631 -0.1269  0.3358
 7906TIP3    H145209   2.006   6.686  16.236  1.2304 -0.5575 -1.1357
 7906TIP3    H245210   2.074   6.640  16.363  1.2087 -1.3939 -1.4206
 7907TIP3   OH245211   2.736   2.786   6.667  0.5774  0.1255  0.4480
 7907TIP3    H145212   2.781   2.854   6.717 -0.4532 -0.3145  2.0432
 7907TIP3    H245213   2.644   2.796   6.691  0.0387 -0.1094 -1.4023
 7908TIP3   OH245214   4.659   4.911  11.447 -0.5186 -0.4709 -0.1999
 7908TIP3    H145215   4.725   4.921  11.378 -0.4008  0.5450  0.0468
 7908TIP3    H245216   4.608   4.835  11.420 -0.9251  0.3068 -1.7883
 7909TIP3   OH245217   2.064   2.567   2.558  0.1383  0.8085  0.0361
 7909TIP3    H145218   2.140   2.525   2.599  1.3176  2.3089 -0.4898
 7909TIP3    H245219   2.017   2.608   2.630  0.2537  0.5241  0.2765
 7910TIP3   OH245220   0.195   0.410  14.817  0.4460  0.2019 -0.8089
 7910TIP3    H145221   0.289   0.426  14.806  0.8343 -1.9749 -1.1830
 7910TIP3    H245222   0.189   0.319  14.845 -1.5797  0.1848 -1.1072
 7911TIP3   OH245223   3.807   5.859   1.065 -0.0477  0.4442 -0.0944
 7911TIP3    H145224   3.901   5.872   1.062  0.0644 -0.4357 -1.2103
 7911TIP3    H245225   3.780   5.892   1.151  0.9996  2.3214 -0.4499
 7912TIP3   OH245226   4.838   3.092  12.002  0.1297 -0.1793  0.1199
 7912TIP3    H145227   4.779   3.047  12.063  2.5481 -1.2092  1.8725
 7912TIP3    H245228   4.867   3.170  12.050  0.8712 -0.1786 -0.3118
 7913TIP3   OH245229   2.321   0.806  14.047  0.5278 -0.3470 -0.4619
 7913TIP3    H145230   2.272   0.863  14.106 -1.5133 -1.5806 -0.8859
 7913TIP3    H245231   2.291   0.830  13.960  2.1992  0.2198 -0.9309
 7914TIP3   OH245232   1.878   6.162  11.994 -0.2852  0.2404  0.1686
 7914TIP3    H145233   1.828   6.136  11.917  0.6067 -3.1231  0.5741
 7914TIP3    H245234   1.831   6.124  12.068 -0.3453  2.1969  1.2038
 7915TIP3   OH245235   2.245   4.909   0.886  0.1079 -0.5000  0.1751
 7915TIP3    H145236   2.243   4.971   0.813  0.3097 -0.6588  0.0341
 7915TIP3    H245237   2.212   4.959   0.961 -1.5212 -0.7558 -0.3353
 7916TIP3   OH245238   4.238   2.176  12.252  0.2815  0.3150  0.0781
 7916TIP3    H145239   4.322   2.222  12.264  0.3635  0.1376  0.1953
 7916TIP3    H245240   4.263   2.091  12.217  0.0427  0.8653 -1.5425
 7917TIP3   OH245241   1.884   2.073  13.633 -0.2802 -0.0610  0.0576
 7917TIP3    H145242   1.836   2.011  13.577  0.2207 -1.0935  0.7403
 7917TIP3    H245243   1.972   2.036  13.640  0.1354  0.9291  0.2005
 7918TIP3   OH245244   0.558   1.413  16.208 -0.3483  0.6095  0.1973
 7918TIP3    H145245   0.526   1.462  16.132 -1.5836  0.1586  0.4005
 7918TIP3    H245246   0.562   1.322  16.178  0.6734  0.6323  0.2168
 7919TIP3   OH245247   1.718   1.929   2.033 -0.3879  0.1830 -0.2614
 7919TIP3    H145248   1.716   1.840   1.999  1.1208  0.0169 -0.0174
 7919TIP3    H245249   1.798   1.932   2.086 -0.1790  1.7948 -0.6123
 7920TIP3   OH245250   1.424   2.505   2.766 -0.0939 -0.1042 -0.6055
 7920TIP3    H145251   1.430   2.514   2.670  3.0867 -3.2133 -0.8980
 7920TIP3    H245252   1.434   2.411   2.781 -1.7354  0.1321  2.8227
 7921TIP3   OH245253   1.422   1.845  14.745  0.0611 -0.9118 -0.4491
 7921TIP3    H145254   1.421   1.760  14.703  3.0561 -1.5961  0.6026
 7921TIP3    H245255   1.376   1.832  14.828 -0.6893 -1.1197 -0.8958
 7922TIP3   OH245256   5.943   0.524   2.041 -0.1588  0.0455  0.3739
 7922TIP3    H145257   6.035   0.499   2.049 -0.2845 -0.5302  0.1150
 7922TIP3    H245258   5.933   0.600   2.099  0.2478 -0.5035  1.1862
 7923TIP3   OH245259   3.681   3.702   0.072 -0.0895  0.3711  0.3011
 7923TIP3    H145260   3.618   3.773   0.086  0.2545  0.7252  0.0786
 7923TIP3    H245261   3.743   3.737   0.008  0.1594 -0.0830  0.2893
 7924TIP3   OH245262   5.956   6.202  13.509 -0.2045 -0.5726 -0.1695
 7924TIP3    H145263   5.919   6.217  13.596 -0.8519  0.9460 -0.6710
 7924TIP3    H245264   5.881   6.177  13.456 -0.1819  0.5011 -0.7320
 7925TIP3   OH245265   0.806   4.642   0.753  0.1458  0.4619 -0.1899
 7925TIP3    H145266   0.853   4.604   0.827  0.1177  0.6914 -0.0503
 7925TIP3    H245267   0.837   4.595   0.676 -0.8564 -0.7507  0.1157
 7926TIP3   OH245268   0.951   0.234   3.088 -0.5248  0.3163 -0.4563
 7926TIP3    H145269   1.026   0.246   3.029  0.9690 -0.5180  1.1681
 7926TIP3    H245270   0.981   0.270   3.171 -1.2424 -1.6512  0.7025
 7927TIP3   OH245271   6.175   1.297  10.843  0.2372 -0.3856  0.4632
 7927TIP3    H145272   6.121   1.218  10.841 -0.2956 -0.0150 -0.0432
 7927TIP3    H245273   6.175   1.329  10.753 -1.8432  1.7076  1.1130
 7928TIP3   OH245274   1.416   5.889   5.320  0.1971 -0.1790 -0.2799
 7928TIP3    H145275   1.424   5.830   5.395 -0.2350  1.3838  1.0479
 7928TIP3    H245276   1.443   5.974   5.353 -0.0322  0.5709 -1.9085
 7929TIP3   OH245277   2.840   5.589  17.002  0.3468 -0.2304  0.1495
 7929TIP3    H145278   2.860   5.667  17.053 -1.8146  0.9976 -0.7484
 7929TIP3    H245279   2.885   5.518  17.048  0.7486  1.2270  2.1408
 7930TIP3   OH245280   1.526   4.032  16.622  0.6493 -0.4862 -0.0179
 7930TIP3    H145281   1.620   4.019  16.636  1.0052  1.4227 -0.4095
 7930TIP3    H245282   1.521   4.097  16.553 -1.0030 -1.3826 -0.8033
 7931TIP3   OH245283   1.692   4.037  16.887 -0.3684 -0.4744  0.2996
 7931TIP3    H145284   1.610   3.988  16.880 -0.8241  0.3368 -0.2085
 7931TIP3    H245285   1.745   4.005  16.813 -1.4871  1.2646 -1.3477
 7932TIP3   OH245286   5.392   4.228  15.159 -0.0552  0.0082  0.5432
 7932TIP3    H145287   5.405   4.322  15.146  0.7817 -0.2955 -1.0450
 7932TIP3    H245288   5.427   4.211  15.247  4.1504  0.4677 -0.8096
 7933TIP3   OH245289   4.206   4.188  14.560  0.0396 -0.1568  0.3974
 7933TIP3    H145290   4.210   4.098  14.527  0.2312 -0.2744  0.7351
 7933TIP3    H245291   4.268   4.236  14.506  1.9106 -0.7766  1.8803
 7934TIP3   OH245292   0.269   5.900  13.874  0.0680 -0.3416 -0.0470
 7934TIP3    H145293   0.278   5.848  13.795  2.6159 -1.4113  0.8658
 7934TIP3    H245294   0.357   5.931  13.894 -0.9135  2.0683  0.9951
 7935TIP3   OH245295   2.264   4.972  15.432  0.1221  0.3752  0.4855
 7935TIP3    H145296   2.262   4.876  15.422  1.1923  0.4839 -1.1709
 7935TIP3    H245297   2.339   5.000  15.379 -0.6140  2.1992  0.3273
 7936TIP3   OH245298   1.700   1.824  15.729  0.5911  0.2036  0.5932
 7936TIP3    H145299   1.631   1.766  15.762  0.6437 -1.2819 -1.6980
 7936TIP3    H245300   1.657   1.909  15.721 -0.6852 -0.4315  0.3074
 7937TIP3   OH245301   4.883   5.696   1.671  0.0070  0.0624 -0.3688
 7937TIP3    H145302   4.816   5.764   1.665 -1.2572 -1.1512 -0.7904
 7937TIP3    H245303   4.921   5.706   1.758 -0.1176  1.3031 -0.4371
 7938TIP3   OH245304   2.931   3.185  15.332  0.2586 -0.3251 -0.1242
 7938TIP3    H145305   2.954   3.184  15.239  0.8541  2.1823 -0.0851
 7938TIP3    H245306   3.003   3.232  15.374 -0.4074 -0.6699  1.4798
 7939TIP3   OH245307   4.702   1.329   0.808 -0.5292 -0.4739  0.2255
 7939TIP3    H145308   4.618   1.367   0.782 -1.4396 -1.1923  1.9450
 7939TIP3    H245309   4.761   1.351   0.736 -1.5368  2.2538  0.1099
 7940TIP3   OH245310   4.583   2.083   3.328  0.3363 -0.2229  0.6173
 7940TIP3    H145311   4.593   1.998   3.285 -1.4116 -0.1209 -0.0705
 7940TIP3    H245312   4.650   2.139   3.287 -1.6854  0.0754 -2.6662
 7941TIP3   OH245313   4.084   5.820  12.598 -0.0428  0.5969 -0.3493
 7941TIP3    H145314   4.063   5.841  12.507  0.0315  0.5372 -0.3805
 7941TIP3    H245315   4.158   5.877  12.620  0.3111  0.2099 -0.5085
 7942TIP3   OH245316   6.212   0.292   4.949 -0.3651 -1.3029 -0.0677
 7942TIP3    H145317   6.124   0.254   4.943 -0.6826 -0.5593 -0.2957
 7942TIP3    H245318   6.199   0.375   4.995  0.1551 -1.0119 -0.4354
 7943TIP3   OH245319   2.213   2.372   2.842 -0.4299  0.3289 -0.0874
 7943TIP3    H145320   2.251   2.455   2.873  1.7329 -1.1448  1.5221
 7943TIP3    H245321   2.265   2.350   2.765  1.5052 -1.1938  1.5395
 7944TIP3   OH245322   0.309   6.479  13.775 -0.2059  0.5756  0.1116
 7944TIP3    H145323   0.330   6.386  13.772 -0.3630  0.4234  2.3167
 7944TIP3    H245324   0.269   6.497  13.690  0.5406 -1.1668 -0.6687
 7945TIP3   OH245325   6.155   3.680  12.758 -0.3519 -0.0253  0.4448
 7945TIP3    H145326   6.167   3.600  12.708 -2.4910  0.9100 -1.7118
 7945TIP3    H245327   6.071   3.670  12.802 -0.3322  0.7838  0.6946
 7946TIP3   OH245328   5.613   4.567   1.002 -0.5396 -0.4064 -0.3937
 7946TIP3    H145329   5.534   4.568   1.055 -0.1240 -2.5317  0.3782
 7946TIP3    H245330   5.608   4.484   0.954  0.9296 -0.2957 -0.7795
 7947TIP3   OH245331   4.437   6.641   1.079  0.1972  0.5568  0.0458
 7947TIP3    H145332   4.365   6.663   1.021 -0.1512 -1.3956 -0.3285
 7947TIP3    H245333   4.499   6.594   1.023  1.3296  1.3656  0.5786
 7948TIP3   OH245334   5.976   6.800  10.739  0.0377 -0.4597 -0.2653
 7948TIP3    H145335   5.907   6.821  10.675  0.7831  1.4165 -0.5080
 7948TIP3    H245336   6.045   6.759  10.687 -0.2044 -0.8536 -0.2876
 7949TIP3   OH245337   2.026   3.162   1.977 -0.8726 -0.4368  0.6455
 7949TIP3    H145338   2.012   3.077   2.020  1.0328 -1.3608 -0.4025
 7949TIP3    H245339   2.089   3.142   1.907 -0.7333  1.7729  0.0908
 7950TIP3   OH245340   2.810   1.630   4.782  0.2471  0.3819  0.0891
 7950TIP3    H145341   2.886   1.687   4.764  0.0916  0.4311 -0.4304
 7950TIP3    H245342   2.808   1.569   4.708 -1.6428  1.9061 -1.2289
 7951TIP3   OH245343   4.920   4.297   1.276 -0.5341  0.2095  0.2477
 7951TIP3    H145344   4.871   4.352   1.215  1.7431  1.3379 -0.7250
 7951TIP3    H245345   4.978   4.246   1.219  2.3377  1.9696  1.3364
 7952TIP3   OH245346   6.508   2.573  12.970 -0.0053  0.1852  0.6544
 7952TIP3    H145347   6.466   2.506  12.917  1.4847  1.4858 -2.3786
 7952TIP3    H245348   6.598   2.542  12.981  1.3904  2.5481 -2.7739
 7953TIP3   OH245349   0.011   6.089  16.276 -0.0770  0.5803 -0.3090
 7953TIP3    H145350  -0.080   6.060  16.273  0.4060 -1.1328  0.1990
 7953TIP3    H245351   0.007   6.179  16.307 -1.5241  0.1838  0.7560
 7954TIP3   OH245352   4.507   0.974   3.136 -0.5249  0.0838  0.4690
 7954TIP3    H145353   4.561   0.902   3.102 -0.8482  0.5312 -1.0524
 7954TIP3    H245354   4.472   0.940   3.219  0.4171 -0.9893  0.4520
 7955TIP3   OH245355   5.586   3.170  15.564 -0.1145 -0.3812  0.0151
 7955TIP3    H145356   5.675   3.195  15.589 -0.0993 -0.2460 -0.1733
 7955TIP3    H245357   5.538   3.168  15.647  0.0081 -0.2280  0.0902
 7956TIP3   OH245358   1.078   2.494   0.975 -0.6265  0.5591  0.2686
 7956TIP3    H145359   1.065   2.413   0.924  0.2351  0.6097 -0.0429
 7956TIP3    H245360   1.163   2.526   0.947 -0.4150  0.9237  1.3018
 7957TIP3   OH245361   3.948   1.113  16.332  0.2209  0.2337 -0.0475
 7957TIP3    H145362   4.043   1.117  16.322  0.1934  1.9462 -0.0162
 7957TIP3    H245363   3.917   1.197  16.297 -1.0894  0.5507  1.7087
 7958TIP3   OH245364   4.405   4.631   5.408  0.3838 -0.0990  0.9242
 7958TIP3    H145365   4.375   4.663   5.323  2.2926 -0.3369  0.1106
 7958TIP3    H245366   4.395   4.536   5.404  0.1554 -0.0822  1.0940
 7959TIP3   OH245367   0.281   6.453  13.475 -0.1485 -0.1477 -0.1936
 7959TIP3    H145368   0.305   6.474  13.385  1.0584 -1.9111 -0.3350
 7959TIP3    H245369   0.187   6.472  13.480  0.3713  3.1783 -0.8105
 7960TIP3   OH245370   1.104   3.604  12.319 -0.0610 -0.3809 -0.2020
 7960TIP3    H145371   1.130   3.656  12.244 -1.2941  0.8799  0.2041
 7960TIP3    H245372   1.119   3.661  12.395 -0.6978 -0.8915  0.3250
 7961TIP3   OH245373   5.340   6.849  15.175 -0.6335 -0.4889  0.2943
 7961TIP3    H145374   5.306   6.794  15.246 -0.4547 -1.4880 -0.3864
 7961TIP3    H245375   5.271   6.914  15.161 -1.4801 -1.3925  0.1621
 7962TIP3   OH245376   1.776   1.781   4.891 -0.3588 -0.6978 -0.0841
 7962TIP3    H145377   1.859   1.801   4.847 -0.8266 -0.2322 -0.7606
 7962TIP3    H245378   1.748   1.865   4.928 -0.0199 -1.0604  1.0385
 7963TIP3   OH245379   4.349   5.278   2.803  0.4143  0.0373  0.2813
 7963TIP3    H145380   4.379   5.369   2.805 -1.1433  0.5543  1.2100
 7963TIP3    H245381   4.382   5.240   2.885  1.1611 -0.3094 -0.1561
 7964TIP3   OH245382   4.365   6.092  13.788  0.1383 -0.1897 -0.2388
 7964TIP3    H145383   4.407   6.022  13.838 -0.6514 -1.0131 -0.7229
 7964TIP3    H245384   4.421   6.169  13.804  0.5899 -0.7320  0.9011
 7965TIP3   OH245385   0.060   5.258   5.373  0.4442  0.8135  0.0037
 7965TIP3    H145386   0.040   5.350   5.357 -1.4440  0.1816 -1.7011
 7965TIP3    H245387  -0.017   5.224   5.418  1.0162  0.0094  0.3899
 7966TIP3   OH245388   6.323   0.785   3.967 -0.3473  0.1485  0.8379
 7966TIP3    H145389   6.228   0.796   3.979 -1.0014 -1.3447 -1.9563
 7966TIP3    H245390   6.346   0.710   4.022 -1.1972 -0.6359  0.1529
 7967TIP3   OH245391   1.017   5.042   0.329 -0.6582  0.2178  0.2533
 7967TIP3    H145392   1.109   5.028   0.349 -0.3043  0.9724 -0.7900
 7967TIP3    H245393   0.970   4.983   0.388  0.4751  0.0005  0.9583
 7968TIP3   OH245394   0.144   0.188  10.949  0.3046  0.1795  0.0149
 7968TIP3    H145395   0.110   0.135  10.878 -0.0137  1.7543 -1.0701
 7968TIP3    H245396   0.185   0.263  10.905  1.2425  0.5545  1.4544
 7969TIP3   OH245397   3.052   5.472   0.953  0.7633  0.0212  0.4884
 7969TIP3    H145398   3.063   5.466   0.859  1.1494  2.0225  0.3608
 7969TIP3    H245399   3.138   5.500   0.986  1.4395 -3.1405  1.7910
 7970TIP3   OH245400   3.184   4.646   3.739 -0.4751 -0.1122 -0.0961
 7970TIP3    H145401   3.192   4.725   3.792 -0.5974  1.1024 -1.8052
 7970TIP3    H245402   3.101   4.657   3.691 -0.2073 -0.9848 -0.7916
 7971TIP3   OH245403   0.997   5.081  14.726 -0.1908  0.1209 -0.0544
 7971TIP3    H145404   1.066   5.065  14.661 -0.1251  0.2901 -0.0277
 7971TIP3    H245405   1.022   5.164  14.768  0.5055 -0.6668  1.1462
 7972TIP3   OH245406   0.840   2.197   2.856  0.1899 -0.0593  0.0015
 7972TIP3    H145407   0.809   2.194   2.765 -0.6562  0.9770  0.2382
 7972TIP3    H245408   0.818   2.285   2.886  2.0606  0.2351  0.6656
 7973TIP3   OH245409   4.601   1.593   1.541  0.1840  0.3427  0.4806
 7973TIP3    H145410   4.567   1.543   1.467 -0.1067  1.0802  0.1117
 7973TIP3    H245411   4.575   1.541   1.618  0.7434 -0.5775  0.0670
 7974TIP3   OH245412   1.952   1.919  15.788  0.3805  0.0602 -0.3352
 7974TIP3    H145413   2.005   1.848  15.823  0.3219 -0.3510 -1.0757
 7974TIP3    H245414   1.862   1.887  15.794  0.3730 -0.0279 -0.8917
 7975TIP3   OH245415   2.142   2.299   0.616  0.4018  0.2531 -0.0329
 7975TIP3    H145416   2.176   2.304   0.527  2.7898  0.5697  0.8198
 7975TIP3    H245417   2.174   2.379   0.659 -1.1649  0.3888  0.9837
 7976TIP3   OH245418   2.116   6.407  12.483  0.2680 -0.1424 -0.5559
 7976TIP3    H145419   2.092   6.363  12.565  1.9165 -0.6972 -0.3424
 7976TIP3    H245420   2.169   6.482  12.511  1.7427 -0.9295 -1.1229
 7977TIP3   OH245421   5.062   3.776   1.094 -0.5119 -0.2153  0.5243
 7977TIP3    H145422   5.034   3.840   1.028 -2.4083 -0.6687  0.8432
 7977TIP3    H245423   5.032   3.692   1.060 -0.0732 -0.6590  1.2089
 7978TIP3   OH245424   6.804   0.630  14.172 -0.4690  0.4438 -0.3024
 7978TIP3    H145425   6.713   0.614  14.148 -0.4354 -1.5964  0.7604
 7978TIP3    H245426   6.852   0.555  14.138  0.3062 -0.0487  1.7393
 7979TIP3   OH245427   3.146   2.095   5.300 -0.3434 -0.4163 -0.3241
 7979TIP3    H145428   3.091   2.018   5.285 -0.0571 -0.6129 -0.3699
 7979TIP3    H245429   3.085   2.168   5.299 -0.6427 -0.6601 -0.0992
 7980TIP3   OH245430   3.136   1.731  15.738  0.0019 -0.0719 -0.0876
 7980TIP3    H145431   3.218   1.775  15.758  0.3609 -0.6345 -0.2941
 7980TIP3    H245432   3.068   1.792  15.767  0.4720  0.9955 -1.1788
 7981TIP3   OH245433   0.448   4.933   1.100 -0.6486  0.8277 -0.1888
 7981TIP3    H145434   0.459   4.849   1.143 -2.3158  1.2204  1.1436
 7981TIP3    H245435   0.360   4.929   1.061 -0.4174  1.6456 -0.8416
 7982TIP3   OH245436   2.149   0.247   0.525  0.0542 -0.2874 -0.7623
 7982TIP3    H145437   2.179   0.166   0.485 -1.1811 -0.5905 -1.1146
 7982TIP3    H245438   2.057   0.231   0.546  0.3269  0.2938  1.0868
 7983TIP3   OH245439   6.410   4.483  16.513  0.0560  0.9655 -0.5487
 7983TIP3    H145440   6.452   4.439  16.440  1.1120 -0.8302  1.0604
 7983TIP3    H245441   6.482   4.526  16.560 -0.3334  0.5606  0.4459
 7984TIP3   OH245442   6.868   3.490  13.878  0.1508  0.0840  0.2356
 7984TIP3    H145443   6.851   3.486  13.784  0.7948  3.1306 -0.1067
 7984TIP3    H245444   6.963   3.482  13.887  0.0152 -1.1467  0.7383
 7985TIP3   OH245445   0.860   0.422   2.838  0.4489  0.2624 -0.3869
 7985TIP3    H145446   0.829   0.385   2.756  0.5114 -0.8479  0.0694
 7985TIP3    H245447   0.792   0.398   2.902 -0.7673  3.0606 -0.4964
 7986TIP3   OH245448   1.845   0.739   3.223  0.3463  0.1294  0.6507
 7986TIP3    H145449   1.918   0.678   3.223 -0.4293 -0.8364  1.7087
 7986TIP3    H245450   1.768   0.685   3.242 -0.7804  0.9830 -1.1436
 7987TIP3   OH245451   5.427   3.404   3.403 -0.0418 -0.7281  0.0890
 7987TIP3    H145452   5.467   3.462   3.468 -1.4769 -1.0453  1.3155
 7987TIP3    H245453   5.346   3.374   3.444  0.6545 -3.6574 -0.4695
 7988TIP3   OH245454   2.682   2.664  13.899  0.3682  0.0133 -0.3389
 7988TIP3    H145455   2.592   2.654  13.930  0.1891 -0.7590 -1.0602
 7988TIP3    H245456   2.675   2.725  13.825  0.4874  0.1949 -0.2020
 7989TIP3   OH245457   2.542   2.189   3.482  0.0843  0.6696 -0.4960
 7989TIP3    H145458   2.581   2.208   3.397  0.7841  0.9620 -0.1200
 7989TIP3    H245459   2.564   2.265   3.536  1.9186 -0.6317  0.6979
 7990TIP3   OH245460   0.555   0.621  11.326 -0.2557  0.1856 -0.2492
 7990TIP3    H145461   0.633   0.566  11.339 -1.2124 -0.9312  1.1433
 7990TIP3    H245462   0.566   0.658  11.239  1.2635 -0.8844 -0.5607
 7991TIP3   OH245463   5.918   6.266  11.478  0.2881 -0.3916  0.1332
 7991TIP3    H145464   5.941   6.247  11.387  0.6437 -0.8330  0.3122
 7991TIP3    H245465   5.918   6.181  11.521  0.6715 -0.1233  0.6730
 7992TIP3   OH245466   0.143   2.209  16.331  0.5094  0.1021  0.0038
 7992TIP3    H145467   0.162   2.117  16.312  0.5520  0.1676 -0.2700
 7992TIP3    H245468   0.099   2.207  16.416  0.6165 -0.1612  0.0547
 7993TIP3   OH245469   1.988   5.331  12.205  0.3077 -0.5914  0.0546
 7993TIP3    H145470   1.926   5.369  12.267  1.9200  0.1888  1.2702
 7993TIP3    H245471   1.981   5.237  12.218  0.8254 -0.4337  1.6745
 7994TIP3   OH245472   5.393   2.164   3.785  0.2422 -0.0428 -0.1466
 7994TIP3    H145473   5.332   2.112   3.838  2.1817  0.1659  2.5263
 7994TIP3    H245474   5.427   2.103   3.720 -0.7567 -0.8874  0.0948
 7995TIP3   OH245475   2.058   0.303   1.550  0.2346  0.2056 -0.3344
 7995TIP3    H145476   1.983   0.266   1.596 -0.9919  1.3519 -1.3621
 7995TIP3    H245477   2.027   0.320   1.461  2.5197 -1.8532 -1.6532
 7996TIP3   OH245478   0.080   4.680  17.006  0.2454 -0.3106 -0.0321
 7996TIP3    H145479   0.111   4.714  17.090  0.4954 -0.8429  0.0913
 7996TIP3    H245480   0.081   4.757  16.948 -0.1188  0.1055  0.4967
 7997TIP3   OH245481   6.003   2.885   4.893 -0.8506  0.2074  0.3080
 7997TIP3    H145482   5.918   2.879   4.937 -0.4241 -0.8607  1.0116
 7997TIP3    H245483   6.044   2.800   4.908  0.3511  0.7161 -0.0061
 7998TIP3   OH245484   2.156   5.274   4.322 -0.1332  0.2815  0.0234
 7998TIP3    H145485   2.069   5.283   4.359 -0.0677  0.4813  0.1289
 7998TIP3    H245486   2.145   5.213   4.249 -0.4446  0.6516 -0.2451
 7999TIP3   OH245487   2.536   1.290   6.053 -0.4642 -0.3659  0.4479
 7999TIP3    H145488   2.560   1.221   6.115 -1.3433 -0.8651  0.2490
 7999TIP3    H245489   2.563   1.256   5.968 -1.1854 -0.6012  0.3130
 8000TIP3   OH245490   6.008   1.916   2.809 -0.2283  0.3389 -0.1788
 8000TIP3    H145491   5.993   1.837   2.758 -1.5053  0.1337  0.4922
 8000TIP3    H245492   6.000   1.987   2.745  1.5408 -0.0593 -0.9092
 8001TIP3   OH245493   2.399   3.458   1.194  0.4601 -0.1445 -0.0555
 8001TIP3    H145494   2.376   3.370   1.223 -2.8339  0.2368 -1.0689
 8001TIP3    H245495   2.383   3.514   1.271 -0.4231 -0.1222 -0.2353
 8002TIP3   OH245496   4.699   3.468   2.207 -0.2002 -0.3803  0.3179
 8002TIP3    H145497   4.790   3.448   2.186 -0.1986  1.1010 -1.3101
 8002TIP3    H245498   4.648   3.418   2.143 -0.3543  1.1087 -0.8002
 8003TIP3   OH245499   4.553   5.351  15.914  0.3521  0.1685 -0.8886
 8003TIP3    H145500   4.556   5.430  15.861 -0.2549 -0.7210 -2.3012
 8003TIP3    H245501   4.582   5.281  15.856 -1.6450 -1.0534 -0.5116
 8004TIP3   OH245502   5.244   3.002  13.994  0.2520  0.4211  0.2110
 8004TIP3    H145503   5.219   2.939  13.926 -2.0767  0.9847  0.4327
 8004TIP3    H245504   5.180   2.986  14.064  1.2554  1.3022  1.3643
 8005TIP3   OH245505   6.335   0.575  16.226  0.6686 -0.2025 -0.5008
 8005TIP3    H145506   6.270   0.529  16.172 -0.2158  0.8403 -0.3376
 8005TIP3    H245507   6.356   0.513  16.296 -1.9062  0.2844  0.8042
 8006TIP3   OH245508   1.521   1.917   2.648 -0.4757 -0.1366 -0.1447
 8006TIP3    H145509   1.567   1.884   2.571  0.9016 -0.2354  0.6766
 8006TIP3    H245510   1.513   2.011   2.633 -1.7892 -0.3825 -1.1670
 8007TIP3   OH245511   4.638   5.269  12.368 -0.1936 -0.1191 -0.2743
 8007TIP3    H145512   4.656   5.199  12.431 -0.8552 -0.0112  0.0475
 8007TIP3    H245513   4.724   5.303  12.345  0.0203  1.6863  2.6506
 8008TIP3   OH245514   2.020   2.153   2.822 -0.4108  0.3518  0.6344
 8008TIP3    H145515   2.002   2.117   2.736 -0.2619  0.6216  0.4898
 8008TIP3    H245516   2.086   2.221   2.807 -0.9649  0.9454  0.8524
 8009TIP3   OH245517   0.608   6.294   2.123  0.0826 -0.3939 -0.0108
 8009TIP3    H145518   0.635   6.227   2.185 -0.3993 -1.5992 -1.0609
 8009TIP3    H245519   0.539   6.253   2.071 -1.1051  1.3240  0.0962
 8010TIP3   OH245520   2.972   4.334   2.854 -0.2726 -0.5255  0.2190
 8010TIP3    H145521   2.996   4.244   2.871  0.7131 -0.6321 -1.4490
 8010TIP3    H245522   2.949   4.371   2.939  0.3486 -2.0435  1.0606
 8011TIP3   OH245523   2.280   4.969  13.617 -0.3841  0.0358 -0.1026
 8011TIP3    H145524   2.276   4.890  13.670  0.1021 -0.4179 -0.7346
 8011TIP3    H245525   2.373   4.992  13.613 -0.4476  0.2515 -0.4807
 8012TIP3   OH245526   3.317   1.388  10.579  0.4441  0.2299  0.2817
 8012TIP3    H145527   3.357   1.302  10.572 -1.2099 -0.5651 -0.0312
 8012TIP3    H245528   3.289   1.394  10.671  0.1118  0.2110  0.1838
 8013TIP3   OH245529   5.344   5.244   2.770 -0.2179 -0.2772  0.6037
 8013TIP3    H145530   5.400   5.320   2.751 -1.8192  0.6547 -0.6215
 8013TIP3    H245531   5.318   5.212   2.684 -1.7670 -0.5259  1.1440
 8014TIP3   OH245532   1.085   5.519   0.106 -0.0228 -0.3432  0.1661
 8014TIP3    H145533   1.074   5.577   0.182  1.5240  1.0213 -0.5747
 8014TIP3    H245534   1.075   5.577   0.030 -0.0234 -1.3729 -0.6408
 8015TIP3   OH245535   5.934   4.210   1.953  0.2966  0.7716  0.1708
 8015TIP3    H145536   5.910   4.155   1.879  0.4322 -1.1367  1.4676
 8015TIP3    H245537   5.855   4.211   2.008  0.5775  1.1619  0.5734
 8016TIP3   OH245538   1.929   2.711  15.804 -0.6905  0.4257 -0.2413
 8016TIP3    H145539   1.866   2.686  15.737 -0.8076 -0.5204  0.1982
 8016TIP3    H245540   1.884   2.696  15.887 -0.3625  1.0673  0.0644
 8017TIP3   OH245541   2.572   2.393  14.160  0.1341 -0.2253  0.3809
 8017TIP3    H145542   2.649   2.335  14.161  0.9155  0.6013 -2.2830
 8017TIP3    H245543   2.498   2.336  14.181  1.1563 -1.6329  0.2845
 8018TIP3   OH245544   3.681   4.261  13.209  0.1286  0.3765 -0.2985
 8018TIP3    H145545   3.735   4.331  13.245  0.8265 -0.2070 -0.1796
 8018TIP3    H245546   3.721   4.242  13.124 -0.3025  0.3909 -0.5057
 8019TIP3   OH245547   5.595   6.837  15.372  0.3145  0.4993 -0.1940
 8019TIP3    H145548   5.634   6.790  15.299 -0.9965 -0.2021 -0.4706
 8019TIP3    H245549   5.646   6.918  15.379  0.3002  0.7087 -2.0601
 8020TIP3   OH245550   2.608   4.137  11.980 -0.5294 -0.1335 -0.6379
 8020TIP3    H145551   2.578   4.094  12.061 -1.4047  0.3818 -0.6711
 8020TIP3    H245552   2.668   4.074  11.941  0.2043 -0.2371  0.6008
 8021TIP3   OH245553   1.147   4.226  16.547  0.4897 -0.6662  0.0457
 8021TIP3    H145554   1.059   4.214  16.512 -0.2536  2.5504  0.4755
 8021TIP3    H245555   1.133   4.266  16.633  2.3054  1.5390 -0.5972
 8022TIP3   OH245556   5.734   5.536  11.550  0.2430 -0.0981 -0.0117
 8022TIP3    H145557   5.737   5.568  11.460 -0.8280 -0.4808 -0.1913
 8022TIP3    H245558   5.826   5.529  11.576  0.6478  4.4226  0.5412
 8023TIP3   OH245559   1.345   0.636  13.881  0.2165 -0.6817 -0.1418
 8023TIP3    H145560   1.299   0.685  13.949  2.0674 -0.5927  1.1100
 8023TIP3    H245561   1.362   0.700  13.812 -0.4045 -0.4214 -0.0541
 8024TIP3   OH245562   1.056   1.022  13.397  0.2242 -0.2407  0.2215
 8024TIP3    H145563   0.976   1.073  13.400 -1.0684 -2.2093  0.7221
 8024TIP3    H245564   1.116   1.067  13.457 -1.1162  0.2596  1.2159
 8025TIP3   OH245565   5.516   6.301  13.197 -0.3120  0.0405  0.2123
 8025TIP3    H145566   5.599   6.349  13.193  0.8817 -1.9618 -0.3836
 8025TIP3    H245567   5.450   6.365  13.170  1.0830  1.5496  0.2129
 8026TIP3   OH245568   2.552   4.910   1.824 -0.7546  0.9017  0.3674
 8026TIP3    H145569   2.615   4.918   1.895 -1.7091  0.8401  1.2433
 8026TIP3    H245570   2.466   4.915   1.866 -1.4090  3.4082 -1.0288
 8027TIP3   OH245571   3.196   3.913   5.491 -0.3941 -0.0000 -0.1474
 8027TIP3    H145572   3.236   3.956   5.566  0.6509  0.7437 -1.0963
 8027TIP3    H245573   3.243   3.948   5.415 -2.0162 -0.0256 -1.2350
 8028TIP3   OH245574   6.484   0.016  12.252 -0.4952  0.3498  0.0953
 8028TIP3    H145575   6.485   0.080  12.180  1.8600  0.1103 -0.1732
 8028TIP3    H245576   6.395  -0.020  12.250 -1.4283  2.4860 -0.7327
 8029TIP3   OH245577   1.473   5.240   0.043  0.3036 -0.0689  0.3990
 8029TIP3    H145578   1.476   5.302   0.116 -0.6251  0.8140 -0.2793
 8029TIP3    H245579   1.553   5.258  -0.007  0.7437 -0.4068  0.9700
 8030TIP3   OH245580   4.952   3.988   0.894  0.2815  0.0919  0.6354
 8030TIP3    H145581   4.861   3.961   0.898  0.6382 -1.0409  1.9362
 8030TIP3    H245582   4.985   3.951   0.811 -0.6283  1.2758 -0.2925
 8031TIP3   OH245583   1.613   0.456   0.803 -0.2239 -0.2189 -0.1043
 8031TIP3    H145584   1.663   0.479   0.724 -0.1260  0.3705  0.1234
 8031TIP3    H245585   1.659   0.380   0.839  0.7670  0.5627  0.3245
 8032TIP3   OH245586   2.577   2.207   4.889 -0.1140 -0.0178 -0.1272
 8032TIP3    H145587   2.531   2.250   4.816 -0.2781  1.3786  0.7579
 8032TIP3    H245588   2.539   2.247   4.967  0.0827 -1.4705  0.7365
 8033TIP3   OH245589   6.325   1.743  12.392  0.3157 -0.3721  0.6554
 8033TIP3    H145590   6.290   1.655  12.409  0.4527 -0.6017 -0.2345
 8033TIP3    H245591   6.385   1.759  12.465 -0.5687 -0.5442  1.4469
 8034TIP3   OH245592   2.528   2.551   0.605 -0.7285 -1.0275  0.4210
 8034TIP3    H145593   2.471   2.616   0.647 -1.0189 -0.2337 -1.1409
 8034TIP3    H245594   2.598   2.537   0.668 -0.3058  1.3073  0.5453
 8035TIP3   OH245595   3.596   6.649   2.243  0.2100  0.4261 -0.1783
 8035TIP3    H145596   3.576   6.727   2.191 -2.9306 -0.1603 -0.0516
 8035TIP3    H245597   3.581   6.576   2.183  0.0520 -0.1477  0.5470
 8036TIP3   OH245598   6.589   6.880  15.063 -0.1475  0.1142 -0.0587
 8036TIP3    H145599   6.616   6.871  15.154 -0.7155  2.6205  0.4320
 8036TIP3    H245600   6.664   6.849  15.012  0.5135 -0.4858  1.2353
 8037TIP3   OH245601   1.436   2.972   2.255 -0.4722  0.0713  0.3184
 8037TIP3    H145602   1.456   2.892   2.304  1.6153  0.6628  0.5356
 8037TIP3    H245603   1.518   2.993   2.210 -1.4999  1.1337 -1.1451
 8038TIP3   OH245604   3.469   5.242  15.092 -0.1967  0.2168  0.3733
 8038TIP3    H145605   3.385   5.209  15.124 -0.6581 -0.5987 -1.5478
 8038TIP3    H245606   3.490   5.315  15.150 -1.8091 -0.0917  1.4020
 8039TIP3   OH245607   6.399   1.144   3.412  0.0209 -0.8346  0.5892
 8039TIP3    H145608   6.309   1.113   3.402  0.1497 -1.0505  0.0668
 8039TIP3    H245609   6.391   1.229   3.456 -0.3150 -1.7638  2.4526
 8040TIP3   OH245610   2.751   5.022   1.390 -0.4238  0.5979  0.4161
 8040TIP3    H145611   2.789   4.996   1.474 -0.0795 -1.8111 -0.4080
 8040TIP3    H245612   2.818   5.077   1.349  0.0964  0.4356  1.0330
 8041TIP3   OH245613   0.164   5.005   0.683  0.5449  0.2793  0.1320
 8041TIP3    H145614   0.230   5.035   0.622  2.2592 -0.7140  1.3880
 8041TIP3    H245615   0.144   4.916   0.655 -0.4312  0.6486 -0.3652
 8042TIP3   OH245616   5.070   5.614   4.192  0.4851 -0.4094 -0.0307
 8042TIP3    H145617   5.010   5.594   4.265  1.1901  0.7558  0.9074
 8042TIP3    H245618   5.149   5.563   4.212  0.8332  0.2352  0.2539
 8043TIP3   OH245619   1.911   3.840  13.372  0.1122  0.2237 -0.2120
 8043TIP3    H145620   1.909   3.909  13.438  0.1022  0.2763 -0.2667
 8043TIP3    H245621   1.859   3.874  13.300 -0.1508  0.0300 -0.1135
 8044TIP3   OH245622   2.451   5.570  16.037 -0.0026 -0.0218 -0.1418
 8044TIP3    H145623   2.475   5.502  15.974  0.4669 -1.2351  1.2699
 8044TIP3    H245624   2.379   5.617  15.996 -0.3916 -1.4218 -1.1568
 8045TIP3   OH245625   5.009   1.393   5.850  1.2984  0.2661 -0.1512
 8045TIP3    H145626   5.008   1.420   5.758 -0.3331  0.5147 -0.0926
 8045TIP3    H245627   5.095   1.422   5.882  1.3040  1.5466 -1.2126
 8046TIP3   OH245628   4.935   5.350   3.067  0.4382  0.6724 -0.3822
 8046TIP3    H145629   4.978   5.355   2.982  1.5711 -0.8126  0.0712
 8046TIP3    H245630   4.923   5.256   3.083 -1.3973  0.9695  0.3176
 8047TIP3   OH245631   6.269   1.269   3.945  0.4716  0.4150  0.2046
 8047TIP3    H145632   6.356   1.230   3.958  0.3817  0.1143 -0.1043
 8047TIP3    H245633   6.218   1.200   3.903 -0.4695 -0.0907  2.0467
 8048TIP3   OH245634   0.663   6.495   5.560  0.3609  0.1918  0.5189
 8048TIP3    H145635   0.628   6.573   5.604 -1.3202 -0.8130  1.0344
 8048TIP3    H245636   0.654   6.514   5.467  0.0489  0.6534  0.6375
 8049TIP3   OH245637   0.070   1.575  11.183 -0.0441 -0.6837  0.0207
 8049TIP3    H145638   0.149   1.614  11.222 -1.3157  1.0398  0.9988
 8049TIP3    H245639   0.033   1.521  11.253 -0.6624 -0.0855  0.1600
 8050TIP3   OH245640   4.333   6.867   1.703  0.4373  0.5567  0.1360
 8050TIP3    H145641   4.398   6.812   1.744 -0.5654 -0.3094  0.6035
 8050TIP3    H245642   4.379   6.949   1.682  2.3460 -0.9166 -1.8763
 8051TIP3   OH245643   1.573   3.939   3.343  0.1216 -0.4184  0.4209
 8051TIP3    H145644   1.567   3.966   3.252 -0.8575  1.5104  1.0103
 8051TIP3    H245645   1.502   3.875   3.354  0.1436 -0.5392 -0.1126
 8052TIP3   OH245646   3.410   3.693   4.146  0.1118  0.0060 -0.4994
 8052TIP3    H145647   3.382   3.750   4.075  0.3328  0.0740 -0.5301
 8052TIP3    H245648   3.360   3.723   4.222 -1.6298 -1.3168 -1.0472
 8053TIP3   OH245649   2.086   5.747  11.504  0.3438  0.2178 -0.1445
 8053TIP3    H145650   2.100   5.652  11.494 -0.8605  0.1009 -0.9691
 8053TIP3    H245651   1.998   5.761  11.470  0.9918  1.8320 -1.2712
 8054TIP3   OH245652   2.705   0.478  13.035 -0.0746 -0.1422 -0.4310
 8054TIP3    H145653   2.688   0.392  13.073  2.1006  0.3250  1.9410
 8054TIP3    H245654   2.757   0.460  12.957  1.9821 -1.0446  1.0450
 8055TIP3   OH245655   2.660   3.875   5.886 -0.0538  0.3257  0.3225
 8055TIP3    H145656   2.673   3.909   5.974 -1.2702  1.4683  0.0912
 8055TIP3    H245657   2.570   3.843   5.885  0.3886 -0.9634 -0.1158
 8056TIP3   OH245658   4.893   1.252   0.515 -0.1182 -0.5199  0.3595
 8056TIP3    H145659   4.966   1.252   0.454 -1.9094 -1.2464 -1.9439
 8056TIP3    H245660   4.923   1.304   0.590  1.8147  1.3485 -1.5919
 8057TIP3   OH245661   5.172   0.915  13.831  0.4591 -0.1205 -0.3211
 8057TIP3    H145662   5.184   0.960  13.748  2.3176  0.5324  0.2678
 8057TIP3    H245663   5.255   0.869  13.846 -0.2988 -1.2524  0.5726
 8058TIP3   OH245664   1.488   4.979  15.715 -0.0961  0.1922  0.6756
 8058TIP3    H145665   1.457   4.888  15.715  1.4216 -0.3963 -1.5697
 8058TIP3    H245666   1.432   5.023  15.652 -0.7269  0.8280  1.6474
 8059TIP3   OH245667   4.222   2.922   6.223 -0.3783  0.3124 -0.4107
 8059TIP3    H145668   4.171   2.928   6.304 -1.6654  2.5044 -1.2890
 8059TIP3    H245669   4.193   2.997   6.171  0.7891 -0.7214 -2.6970
 8060TIP3   OH245670   4.843   5.957   1.305 -0.1507  0.1726 -0.4713
 8060TIP3    H145671   4.860   6.004   1.386 -1.2209  0.7682 -0.5747
 8060TIP3    H245672   4.914   5.983   1.247  2.5160 -2.7062  1.1880
 8061TIP3   OH245673   5.341   6.720   1.675 -0.6417 -0.5114 -0.1490
 8061TIP3    H145674   5.275   6.786   1.655 -1.2682 -1.0116  0.2252
 8061TIP3    H245675   5.303   6.638   1.641 -0.5298 -0.9168  0.6906
 8062TIP3   OH245676   5.021   4.497  12.205 -0.0326 -0.8181 -0.2096
 8062TIP3    H145677   5.010   4.542  12.121 -0.9946 -0.2152  0.2178
 8062TIP3    H245678   5.098   4.442  12.193  1.3865  1.1522 -0.6815
 8063TIP3   OH245679   5.009   1.700  15.347 -0.1061 -0.5486 -0.4900
 8063TIP3    H145680   5.016   1.606  15.333 -0.9866 -0.6066 -0.5450
 8063TIP3    H245681   4.919   1.714  15.375  0.0097  0.2844 -0.5082
 8064TIP3   OH245682   4.812   1.041   0.715  0.3544 -0.5054  0.9152
 8064TIP3    H145683   4.789   1.115   0.772  0.1728  0.4740 -0.3853
 8064TIP3    H245684   4.901   1.059   0.687  0.7853 -1.4753  1.6037
 8065TIP3   OH245685   2.650   6.595  10.590 -0.1496 -0.0245  0.1233
 8065TIP3    H145686   2.644   6.507  10.553  0.3291  0.8006 -2.0753
 8065TIP3    H245687   2.666   6.652  10.515  0.1142  1.8951  1.5422
 8066TIP3   OH245688   1.662   1.124   3.845 -0.3327  0.1506 -0.1579
 8066TIP3    H145689   1.721   1.176   3.790  1.2319  0.2223  1.5074
 8066TIP3    H245690   1.695   1.034   3.836 -0.1535  0.1442  0.5245
 8067TIP3   OH245691   2.050   0.562   3.215 -0.6141  0.2318 -0.0659
 8067TIP3    H145692   2.064   0.489   3.276 -1.1157 -1.0374 -1.4231
 8067TIP3    H245693   2.138   0.587   3.188 -0.4334  0.1542  0.4350
 8068TIP3   OH245694   2.648   3.502  14.558 -0.1151 -0.0400 -0.7453
 8068TIP3    H145695   2.564   3.467  14.585  0.3275 -0.7138 -0.2018
 8068TIP3    H245696   2.629   3.556  14.481 -1.0518 -0.0777 -0.5408
 8069TIP3   OH245697   1.626   4.563   0.354 -0.7516 -0.1293 -0.0647
 8069TIP3    H145698   1.585   4.647   0.337 -1.4714 -0.3101  0.7052
 8069TIP3    H245699   1.654   4.532   0.268  2.2013  2.1909 -0.0943
 8070TIP3   OH245700   0.524   1.131  12.878 -0.0717 -0.2251 -0.1628
 8070TIP3    H145701   0.607   1.123  12.924  0.3073  0.8136 -0.6344
 8070TIP3    H245702   0.526   1.061  12.812  0.7737  0.2725 -0.6824
 8071TIP3   OH245703   3.406   2.110  12.835 -0.7839 -0.2079 -0.0319
 8071TIP3    H145704   3.452   2.096  12.917  0.2929 -0.5265 -0.6745
 8071TIP3    H245705   3.386   2.022  12.803  1.3120 -0.2231 -1.4732
 8072TIP3   OH245706   4.394   6.494   1.692 -0.5935 -0.7721  0.1247
 8072TIP3    H145707   4.322   6.435   1.669 -0.9562 -0.4860  0.5335
 8072TIP3    H245708   4.470   6.455   1.648 -1.4270  0.3495 -2.5290
 8073TIP3   OH245709   5.043   4.315   3.039 -0.0100 -0.0480 -0.0843
 8073TIP3    H145710   5.079   4.236   3.080 -0.1363  0.5995  1.3117
 8073TIP3    H245711   5.082   4.316   2.951 -0.0402 -1.6778 -0.1564
 8074TIP3   OH245712   6.727   0.960   1.198  0.3847  0.6349  0.3518
 8074TIP3    H145713   6.798   0.996   1.144 -0.6952  2.3324 -0.0123
 8074TIP3    H245714   6.655   0.947   1.137 -0.0981  0.3231  0.9786
 8075TIP3   OH245715   5.178   1.679   1.358  0.2012  0.4933  0.5244
 8075TIP3    H145716   5.086   1.657   1.339  0.0518  0.9919  0.6694
 8075TIP3    H245717   5.223   1.666   1.275 -0.4599  2.7267 -0.2576
 8076TIP3   OH245718   6.272   4.183   5.265  0.1297 -0.2439 -0.5205
 8076TIP3    H145719   6.253   4.119   5.196 -0.6265  0.5176 -1.0272
 8076TIP3    H245720   6.290   4.264   5.218 -0.2667  0.2529  0.1721
 8077TIP3   OH245721   0.202   0.077  11.882 -0.6958  0.3218  0.5947
 8077TIP3    H145722   0.219   0.016  11.953 -0.4188 -0.3100 -0.0013
 8077TIP3    H245723   0.263   0.051  11.813 -0.5527  1.2954  0.3425
 8078TIP3   OH245724   3.120   1.097   5.267 -0.7389  0.1180  0.1903
 8078TIP3    H145725   3.044   1.048   5.296 -1.6779  1.2062 -0.3748
 8078TIP3    H245726   3.114   1.098   5.171  0.5328 -0.6188  0.0726
 8079TIP3   OH245727   4.331   4.844  11.960 -0.5662 -0.2882 -0.3476
 8079TIP3    H145728   4.380   4.869  11.882 -0.2013  0.0089 -0.0314
 8079TIP3    H245729   4.301   4.928  11.997  0.5257 -0.3023  0.6327
 8080TIP3   OH245730   6.736   2.978  14.945  0.1040 -0.3639  0.3122
 8080TIP3    H145731   6.726   2.904  15.004  0.0590 -0.7820 -0.2184
 8080TIP3    H245732   6.830   2.995  14.942  0.0296  0.4070  1.4060
 8081TIP3   OH245733   3.149   4.243  13.294  0.1003  0.0924  0.0262
 8081TIP3    H145734   3.130   4.256  13.201 -0.1338 -2.8047 -0.4001
 8081TIP3    H245735   3.093   4.308  13.339 -1.4695  0.0581 -1.7559
 8082TIP3   OH245736   6.178   0.558   1.451 -0.1841  0.1185  0.1012
 8082TIP3    H145737   6.267   0.553   1.416 -0.0516  1.6335  0.1693
 8082TIP3    H245738   6.139   0.634   1.407 -1.0509  0.1944  0.9604
 8083TIP3   OH245739   6.341   1.835   5.795  0.6126 -0.4463 -1.0691
 8083TIP3    H145740   6.274   1.768   5.814 -1.1058  1.3626 -0.4179
 8083TIP3    H245741   6.424   1.789   5.808 -0.4726 -1.9134  1.6494
 8084TIP3   OH245742   1.399   5.726  13.794  0.0919 -0.4127 -0.3027
 8084TIP3    H145743   1.428   5.651  13.846 -0.3350 -0.5193 -0.2167
 8084TIP3    H245744   1.390   5.797  13.857  1.2725 -0.0660 -0.5079
 8085TIP3   OH245745   2.813   3.502  11.956 -0.6072 -0.3388  0.3548
 8085TIP3    H145746   2.821   3.586  12.002 -0.4373  0.1214 -0.5015
 8085TIP3    H245747   2.901   3.465  11.961 -0.6820 -0.4746  0.7329
 8086TIP3   OH245748   2.776   5.680  13.371 -0.1131 -0.3450 -0.5892
 8086TIP3    H145749   2.801   5.653  13.283  0.0781  0.0798 -0.6645
 8086TIP3    H245750   2.692   5.723  13.361 -0.1622 -0.4312 -0.5440
 8087TIP3   OH245751   4.493   2.830   4.899  0.5537  0.6156  0.0831
 8087TIP3    H145752   4.529   2.743   4.881  0.9185  0.5295  1.1511
 8087TIP3    H245753   4.411   2.833   4.849 -0.4463 -1.0847  1.4958
 8088TIP3   OH245754   3.524   6.563   6.082 -0.5944 -0.1320  0.0416
 8088TIP3    H145755   3.610   6.534   6.114 -0.4169 -0.3649 -0.6273
 8088TIP3    H245756   3.463   6.496   6.113 -0.4066 -0.4148 -0.1825
 8089TIP3   OH245757   0.905   3.309   6.506  0.4360  0.0092  0.2317
 8089TIP3    H145758   0.932   3.357   6.584 -0.9812  0.9013  0.2102
 8089TIP3    H245759   0.845   3.369   6.461  1.5199 -0.3176 -1.7653
 8090TIP3   OH245760   4.821   0.908  15.315 -0.2394 -0.2602 -0.2935
 8090TIP3    H145761   4.873   0.829  15.327  1.0227  0.8509  2.2767
 8090TIP3    H245762   4.804   0.939  15.404 -2.9190  0.9860 -1.1458
 8091TIP3   OH245763   0.620   3.723   4.233  0.5336 -0.0151  0.4676
 8091TIP3    H145764   0.709   3.757   4.230  0.5803 -0.2056 -0.9830
 8091TIP3    H245765   0.629   3.637   4.272  1.0512 -0.2035 -0.0509
 8092TIP3   OH245766   2.207   4.554  12.649 -0.3230  0.5811 -0.3210
 8092TIP3    H145767   2.249   4.589  12.728  1.6497 -1.4148 -0.3688
 8092TIP3    H245768   2.245   4.467  12.639 -3.1066 -0.6045 -1.5677
 8093TIP3   OH245769   4.920   5.504  16.234 -0.1205  0.0402  0.2874
 8093TIP3    H145770   4.842   5.475  16.188 -0.4074  0.1022  0.7385
 8093TIP3    H245771   4.989   5.443  16.206 -0.4238 -0.2690  0.2182
 8094TIP3   OH245772   4.311   2.721  15.645 -0.2496  0.1274  0.3293
 8094TIP3    H145773   4.404   2.743  15.639  0.7161 -3.6004 -1.1530
 8094TIP3    H245774   4.272   2.762  15.567  0.2560  1.0961  0.5622
 8095TIP3   OH245775   3.794   0.895   0.917  0.2382 -0.2696 -0.1063
 8095TIP3    H145776   3.735   0.900   0.992 -0.1760  2.1149 -0.5195
 8095TIP3    H245777   3.773   0.812   0.875  0.0608 -1.3679  2.0376
 8096TIP3   OH245778   4.171   3.325  12.961  0.3973 -0.0769  0.2782
 8096TIP3    H145779   4.159   3.242  12.916 -0.2831  0.0387  0.2372
 8096TIP3    H245780   4.258   3.355  12.934  0.1717 -0.2110 -0.6305
 8097TIP3   OH245781   3.348   3.547  13.875  0.1610 -0.9097  0.4696
 8097TIP3    H145782   3.440   3.565  13.890  0.4317 -1.9387  0.1770
 8097TIP3    H245783   3.337   3.558  13.780  0.5887 -3.1511  0.0983
 8098TIP3   OH245784   0.818   4.253   0.560  0.0080  0.6160 -0.5756
 8098TIP3    H145785   0.878   4.187   0.525  0.5279  0.5094  0.4689
 8098TIP3    H245786   0.777   4.210   0.635 -1.8610  0.4787 -1.6322
 8099TIP3   OH245787   4.575   0.043  14.109 -0.1777 -0.1968  0.1454
 8099TIP3    H145788   4.646   0.019  14.169 -0.8554 -0.7358  0.7591
 8099TIP3    H245789   4.498  -0.001  14.145 -0.3998 -1.5071 -1.7853
 8100TIP3   OH245790   0.627   6.340   4.659  0.7343  0.9951 -0.2168
 8100TIP3    H145791   0.692   6.293   4.606 -2.2989 -2.3215 -1.4025
 8100TIP3    H245792   0.585   6.399   4.596 -1.4341 -1.4079 -1.1833
 8101TIP3   OH245793   0.457   2.252  16.909  0.1356  0.1963 -0.2253
 8101TIP3    H145794   0.529   2.314  16.923  0.5420  0.3067 -2.3418
 8101TIP3    H245795   0.419   2.279  16.825 -1.0498 -1.1241 -0.1445
 8102TIP3   OH245796   4.744   5.817  14.894 -0.3510 -0.0892  0.0875
 8102TIP3    H145797   4.756   5.731  14.936 -1.6446 -0.1155  0.4321
 8102TIP3    H245798   4.769   5.802  14.803  0.0770 -0.6670  0.2901
 8103TIP3   OH245799   4.805   2.052   1.963 -0.2909 -0.4576  0.1631
 8103TIP3    H145800   4.795   2.094   1.878 -0.2829 -0.6503  0.0685
 8103TIP3    H245801   4.886   2.001   1.956  1.9430  2.5629  1.5152
 8104TIP3   OH245802   4.523   4.018   0.029 -0.3878  0.0894 -0.1334
 8104TIP3    H145803   4.476   4.028  -0.054  0.2907  1.2174 -0.4031
 8104TIP3    H245804   4.453   4.012   0.095 -0.9553  2.3684 -0.4547
 8105TIP3   OH245805   1.433   6.627   2.175 -0.2636 -0.1192  0.0032
 8105TIP3    H145806   1.521   6.658   2.150  0.8391 -3.7620 -1.3274
 8105TIP3    H245807   1.438   6.617   2.270  0.7852 -0.2715 -0.0479
 8106TIP3   OH245808   6.016   2.170  11.330  0.3113 -0.0384 -0.0309
 8106TIP3    H145809   5.953   2.162  11.402 -0.0986  1.0392 -0.2579
 8106TIP3    H245810   6.016   2.083  11.289 -1.1225 -0.0280 -0.1006
 8107TIP3   OH245811   1.148   1.897   3.353  0.0007  0.4708  0.0632
 8107TIP3    H145812   1.208   1.842   3.403 -1.6504 -1.3529  0.1653
 8107TIP3    H245813   1.132   1.972   3.411 -0.4302 -0.6972  1.5486
 8108TIP3   OH245814   3.883   2.583  14.997 -0.4564  0.1547 -0.6097
 8108TIP3    H145815   3.859   2.492  14.979 -1.3290  0.4680 -1.0985
 8108TIP3    H245816   3.971   2.592  14.960  0.7463 -1.1754  1.7437
 8109TIP3   OH245817   1.304   5.759  12.349  0.6248 -0.6098  0.0742
 8109TIP3    H145818   1.294   5.750  12.443 -0.9448  0.6288  0.0700
 8109TIP3    H245819   1.219   5.730  12.313  1.0202 -0.5872 -0.9231
 8110TIP3   OH245820   1.161   1.988   5.125 -0.5030  0.5086  0.0368
 8110TIP3    H145821   1.173   2.017   5.216 -0.5669  0.1630  0.1594
 8110TIP3    H245822   1.120   1.902   5.133  0.0415  0.2097 -0.3054
 8111TIP3   OH245823   3.120   6.393   2.067  0.2582 -0.2194  0.9116
 8111TIP3    H145824   3.117   6.441   2.150  1.0773 -1.2832  1.5874
 8111TIP3    H245825   3.206   6.415   2.030  0.4229 -0.7467  0.9764
 8112TIP3   OH245826   4.982   2.521  15.212  0.1585  0.8459  0.2051
 8112TIP3    H145827   5.018   2.608  15.228 -0.0114  1.1186 -0.8295
 8112TIP3    H245828   4.927   2.531  15.134  0.4757 -0.2774 -0.1845
 8113TIP3   OH245829   5.938   5.300  13.747 -0.1579  0.8826  0.1599
 8113TIP3    H145830   5.925   5.326  13.838 -0.5205  1.1122  0.0440
 8113TIP3    H245831   5.970   5.379  13.703 -0.5068  0.9236 -0.0264
 8114TIP3   OH245832   0.238   4.751  14.582 -0.1930 -0.6082 -0.1588
 8114TIP3    H145833   0.208   4.683  14.522  0.5206 -2.6622  1.6796
 8114TIP3    H245834   0.201   4.727  14.667  0.5701  0.9897  0.6831
 8115TIP3   OH245835   0.625   6.787  17.002 -0.1205 -0.0893 -0.0400
 8115TIP3    H145836   0.582   6.849  17.061 -0.7230 -0.5502  0.0182
 8115TIP3    H245837   0.665   6.841  16.934  2.1528  0.6304  1.7181
 8116TIP3   OH245838   0.186   3.900  11.707 -0.3656  0.3349  0.0170
 8116TIP3    H145839   0.222   3.943  11.784  0.4403  1.0534 -0.7352
 8116TIP3    H245840   0.253   3.912  11.639 -1.1760 -0.0167 -0.8742
 8117TIP3   OH245841   1.937   4.489   1.696  0.5199  0.0496 -0.3128
 8117TIP3    H145842   1.917   4.511   1.605  1.1610  0.9843 -0.2389
 8117TIP3    H245843   1.959   4.573   1.737  1.2134 -0.4887  0.4519
 8118TIP3   OH245844   4.771   2.909   1.295  0.1475  0.1900 -0.5918
 8118TIP3    H145845   4.719   2.838   1.256 -0.5490  0.3695 -0.0236
 8118TIP3    H245846   4.761   2.982   1.235 -1.1051  0.5337  0.0004
 8119TIP3   OH245847   4.125   2.659   4.611 -0.0768 -0.2011 -0.0129
 8119TIP3    H145848   4.215   2.686   4.632 -0.1401 -0.9074  1.2159
 8119TIP3    H245849   4.137   2.580   4.558  0.0337  0.4578 -1.0108
 8120TIP3   OH245850   5.173   5.405  11.768  0.5780 -0.3754  0.6649
 8120TIP3    H145851   5.116   5.421  11.692  0.6356  1.1200  0.8991
 8120TIP3    H245852   5.251   5.364  11.731  1.5283  2.2301 -0.4877
 8121TIP3   OH245853   3.982   0.984   2.192 -0.6119  0.7205 -0.8388
 8121TIP3    H145854   3.888   0.969   2.191 -0.6149  0.2890  1.2110
 8121TIP3    H245855   3.996   1.046   2.264  0.9653 -2.1150  1.5251
 8122TIP3   OH245856   5.183   3.662  15.610 -0.1186  0.0956 -0.1577
 8122TIP3    H145857   5.206   3.591  15.670 -0.8842 -0.5949 -0.6660
 8122TIP3    H245858   5.202   3.742  15.659 -1.8475 -0.4235  1.4787
 8123TIP3   OH245859   3.258   0.408   5.239 -0.0913  0.2048  0.1428
 8123TIP3    H145860   3.261   0.456   5.156 -1.9143  0.9018  0.4391
 8123TIP3    H245861   3.284   0.473   5.304  0.9261 -0.2288  0.1916
 8124TIP3   OH245862   0.994   5.156   5.925  0.7835 -0.0353  0.4820
 8124TIP3    H145863   1.019   5.079   5.873 -0.2859 -0.4058  0.4912
 8124TIP3    H245864   0.965   5.119   6.009  1.6226  0.4920  1.0152
 8125TIP3   OH245865   6.040   4.840   4.873 -0.2685  0.6246  0.3669
 8125TIP3    H145866   6.036   4.868   4.781  0.6915 -2.2104 -0.6317
 8125TIP3    H245867   6.057   4.921   4.921 -0.9395  2.2375 -1.8980
 8126TIP3   OH245868   1.746   1.058  16.902 -0.1584 -0.0559 -0.0510
 8126TIP3    H145869   1.812   1.002  16.943 -1.8277 -1.6134  0.6917
 8126TIP3    H245870   1.662   1.023  16.934 -1.3290  2.3850 -0.2360
 8127TIP3   OH245871   5.737   0.046   1.180 -0.3506  0.0764  0.0144
 8127TIP3    H145872   5.778   0.065   1.097 -0.0985  1.3474  0.4195
 8127TIP3    H245873   5.694   0.127   1.206 -0.1481 -0.1955  1.2825
 8128TIP3   OH245874   1.168   6.277   4.388  0.1743  0.0856  0.3888
 8128TIP3    H145875   1.169   6.182   4.382  0.5859  0.1199 -0.1394
 8128TIP3    H245876   1.118   6.305   4.311  0.7685  0.3267  0.0876
 8129TIP3   OH245877   4.285   2.184  15.169  0.2338 -0.0960 -0.5573
 8129TIP3    H145878   4.332   2.253  15.217 -1.3648  1.1439 -0.6816
 8129TIP3    H245879   4.193   2.196  15.194 -0.2070 -1.5755 -1.3552
 8130TIP3   OH245880   5.564   0.489   3.542  0.3884  0.2288  0.0266
 8130TIP3    H145881   5.496   0.427   3.513 -0.2788  1.1402 -0.4209
 8130TIP3    H245882   5.588   0.459   3.629 -1.5487  0.6140  0.7587
 8131TIP3   OH245883   6.098   4.213  15.206  0.1762  0.5138 -0.3871
 8131TIP3    H145884   6.010   4.195  15.239  0.2967 -0.1838 -0.4297
 8131TIP3    H245885   6.154   4.211  15.284  0.4864 -1.3018 -0.6124
 8132TIP3   OH245886   3.851   1.989  14.980  0.4046 -0.3537  0.6260
 8132TIP3    H145887   3.770   2.003  14.931  0.7173 -2.3428 -0.5626
 8132TIP3    H245888   3.826   1.930  15.052  0.4387  0.5782  1.4203
 8133TIP3   OH245889   6.046   5.053   6.172 -0.2416  0.3103  0.1404
 8133TIP3    H145890   6.120   5.063   6.113 -1.1630  2.9262 -0.7067
 8133TIP3    H245891   6.038   5.137   6.217 -0.2708 -1.2133  3.2827
 8134TIP3   OH245892   3.872   2.669  16.916  0.3825 -0.1058  0.3943
 8134TIP3    H145893   3.898   2.698  17.003 -0.8309  0.8605  0.4734
 8134TIP3    H245894   3.857   2.575  16.924 -0.8269  0.1527  1.5460
 8135TIP3   OH245895   6.576   1.750  15.417  0.6728  0.3700  0.2811
 8135TIP3    H145896   6.508   1.718  15.357 -0.3093  0.9660  1.0388
 8135TIP3    H245897   6.585   1.843  15.394  2.4953 -0.0728 -0.9693
 8136TIP3   OH245898   1.281   2.926  10.843 -0.2914 -0.2815 -0.2455
 8136TIP3    H145899   1.245   2.997  10.790  1.1611  0.0256 -0.8975
 8136TIP3    H245900   1.367   2.959  10.870  0.2863 -1.6778 -0.3149
 8137TIP3   OH245901   0.877   0.099   0.082 -0.0802  0.3558 -0.4168
 8137TIP3    H145902   0.804   0.069   0.136  0.7779 -1.0111  0.0333
 8137TIP3    H245903   0.915   0.172   0.130  1.0870 -1.2664  1.2389
 8138TIP3   OH245904   0.383   6.527  16.310 -0.3286  0.2018 -0.4569
 8138TIP3    H145905   0.377   6.613  16.350 -0.5609  1.2717 -2.6280
 8138TIP3    H245906   0.297   6.513  16.270 -0.4849 -1.3109  0.3336
 8139TIP3   OH245907   3.918   3.006  14.625 -0.4707 -0.8039 -1.0254
 8139TIP3    H145908   3.928   2.935  14.688 -0.2168 -0.6286 -0.8654
 8139TIP3    H245909   3.825   3.027  14.626 -0.1532  0.8586  1.1532
 8140TIP3   OH245910   5.649   2.157   2.431  0.3822  0.5598 -0.0089
 8140TIP3    H145911   5.656   2.095   2.358 -1.7350 -0.6039  0.7003
 8140TIP3    H245912   5.600   2.231   2.396  1.0233  0.8627 -0.2715
 8141TIP3   OH245913   6.541   1.031  15.938  0.3386  0.2190  0.3120
 8141TIP3    H145914   6.469   0.971  15.916  0.4627  0.4649 -0.8542
 8141TIP3    H245915   6.531   1.103  15.876  0.7332  0.9677  1.1067
 8142TIP3   OH245916   3.326   0.601  12.294  0.2163 -0.1646  0.5177
 8142TIP3    H145917   3.415   0.567  12.304  0.9323  1.3333 -0.4061
 8142TIP3    H245918   3.315   0.612  12.200 -1.2951 -1.1311  0.5491
 8143TIP3   OH245919   0.583   6.382  15.439 -0.3467  0.2772 -0.1351
 8143TIP3    H145920   0.507   6.417  15.394  0.5856  2.7336  0.0204
 8143TIP3    H245921   0.630   6.332  15.372  0.5418  3.1064 -1.8239
 8144TIP3   OH245922   2.256   0.777   1.921  0.5469 -0.0483 -0.1345
 8144TIP3    H145923   2.220   0.778   1.832 -0.0595  0.5917  0.1059
 8144TIP3    H245924   2.334   0.831   1.915  0.8409 -0.4927 -0.4039
 8145TIP3   OH245925   2.355   5.867   5.921 -0.0877  0.0438 -0.1684
 8145TIP3    H145926   2.304   5.860   5.840  1.1591  0.1914 -1.0072
 8145TIP3    H245927   2.373   5.776   5.946 -0.6444 -0.0065  0.0684
 8146TIP3   OH245928   4.631   5.376   2.595 -0.2983 -0.6429  0.5677
 8146TIP3    H145929   4.620   5.385   2.690  0.0501 -0.3510  0.5809
 8146TIP3    H245930   4.596   5.458   2.559 -0.3527 -0.7175  0.4499
 8147TIP3   OH245931   1.827   3.721  15.044  0.0327  0.7342 -0.2122
 8147TIP3    H145932   1.757   3.733  14.980 -1.5628 -4.0492  0.2463
 8147TIP3    H245933   1.890   3.663  15.000  0.5328 -0.0108  1.4031
 8148TIP3   OH245934   3.007   2.410   0.931  0.4618 -0.2996 -0.4963
 8148TIP3    H145935   2.915   2.422   0.957  0.8368 -3.3855  3.2887
 8148TIP3    H245936   3.046   2.496   0.942 -1.6984  0.8460 -1.1019
 8149TIP3   OH245937   4.286   3.916  14.415  0.0894  0.2535  0.5095
 8149TIP3    H145938   4.253   3.835  14.454 -2.2378  0.8068 -0.1410
 8149TIP3    H245939   4.318   3.889  14.328  0.2206 -0.1148  0.6700
 8150TIP3   OH245940   3.808   5.442  14.489  0.3175  0.1685 -0.1585
 8150TIP3    H145941   3.770   5.405  14.409  1.1936 -1.4408  0.1125
 8150TIP3    H245942   3.748   5.416  14.559 -0.7599  2.0749 -0.3099
 8151TIP3   OH245943   6.699   3.701  11.582 -0.0292  0.0758  0.1508
 8151TIP3    H145944   6.716   3.757  11.658 -2.4515  0.7210  0.2936
 8151TIP3    H245945   6.760   3.731  11.515  1.1792  0.4441  1.3757
 8152TIP3   OH245946   0.793   3.102  15.669 -0.3345 -0.0334  0.4307
 8152TIP3    H145947   0.722   3.130  15.612  1.2059  1.3609 -0.8822
 8152TIP3    H245948   0.818   3.180  15.718 -0.7999 -0.9147  2.1748
 8153TIP3   OH245949   2.807   0.637   1.487 -0.0151  0.6363  0.1240
 8153TIP3    H145950   2.836   0.547   1.497 -1.2851 -0.1112 -2.2253
 8153TIP3    H245951   2.873   0.689   1.533  1.1100 -1.4201  0.9531
 8154TIP3   OH245952   5.994   4.108   1.254 -0.4135  0.1652  0.2912
 8154TIP3    H145953   5.976   4.193   1.213  0.3606  0.7580  1.1502
 8154TIP3    H245954   5.990   4.045   1.181 -0.4007  1.0101 -0.4577
 8155TIP3   OH245955   4.991   1.206   3.218 -0.3818 -0.3445  0.3530
 8155TIP3    H145956   4.918   1.255   3.255  1.6598  2.5643  0.8190
 8155TIP3    H245957   5.008   1.137   3.282 -0.8019  0.8296  1.7839
 8156TIP3   OH245958   5.812   5.006   6.314  0.4905  0.0020  0.6420
 8156TIP3    H145959   5.893   4.979   6.271 -0.4527 -0.5177 -0.9068
 8156TIP3    H245960   5.821   5.100   6.327  1.0869  0.0500 -0.0766
 8157TIP3   OH245961   5.339   3.685  13.899 -0.4026 -0.3608 -0.3049
 8157TIP3    H145962   5.387   3.604  13.917  0.8700  0.8859  2.5455
 8157TIP3    H245963   5.405   3.745  13.865 -0.9040  0.0850 -0.4978
 8158TIP3   OH245964   1.642   6.649   6.204  0.1503 -0.0983 -0.1333
 8158TIP3    H145965   1.707   6.715   6.180 -1.6055  2.0327  0.6245
 8158TIP3    H245966   1.659   6.630   6.296  0.3523 -0.3376 -0.2196
 8159TIP3   OH245967   4.890   0.144  14.877  0.1830 -0.1552 -0.7521
 8159TIP3    H145968   4.865   0.149  14.969 -0.7842  0.2631 -1.0222
 8159TIP3    H245969   4.816   0.182  14.830  0.6250 -0.4425 -1.7109
 8160TIP3   OH245970   1.522   6.654  15.583  0.2402  0.6057 -0.0419
 8160TIP3    H145971   1.547   6.743  15.558 -0.3025  0.6211 -0.5412
 8160TIP3    H245972   1.557   6.599  15.514 -0.6880  0.5830 -0.5048
 8161TIP3   OH245973   6.568   5.608   0.439 -0.5382  0.2000 -0.1394
 8161TIP3    H145974   6.582   5.515   0.452 -0.3366  0.3407  0.7102
 8161TIP3    H245975   6.472   5.619   0.441 -0.5463  0.0662  0.1565
 8162TIP3   OH245976   1.659   5.460   0.530  0.5702  0.1776  0.0859
 8162TIP3    H145977   1.721   5.470   0.459 -0.6527  1.2528 -0.8839
 8162TIP3    H245978   1.640   5.549   0.559  0.8040 -0.2203  1.5697
 8163TIP3   OH245979   1.404   6.695   2.444  0.4054  0.3262 -0.4586
 8163TIP3    H145980   1.360   6.722   2.525  0.5741  2.4704 -1.0155
 8163TIP3    H245981   1.496   6.683   2.469  0.4109  0.7322 -0.2781
 8164TIP3   OH245982   3.029   1.822   3.070 -0.1048 -0.2723  0.3600
 8164TIP3    H145983   2.987   1.755   3.016  1.4397  0.5782 -2.0690
 8164TIP3    H245984   3.099   1.857   3.015 -1.6211  4.2734  0.9500
 8165TIP3   OH245985   6.521   2.752  15.417  0.1835 -0.6130 -0.1537
 8165TIP3    H145986   6.501   2.828  15.363  3.2929  1.0707  0.8112
 8165TIP3    H245987   6.470   2.681  15.378 -1.5142  1.5310 -2.1769
 8166TIP3   OH245988   4.514   4.267  12.495 -0.2332 -0.6326 -0.6160
 8166TIP3    H145989   4.490   4.357  12.518  1.2064 -0.0731 -1.1677
 8166TIP3    H245990   4.495   4.217  12.574  1.5852  0.6890  0.7654
 8167TIP3   OH245991   0.575   6.609  16.115  0.5576  0.2999 -0.1503
 8167TIP3    H145992   0.512   6.553  16.159 -0.0187 -0.1974 -1.5547
 8167TIP3    H245993   0.636   6.636  16.184  0.0503 -0.9380  0.8182
 8168TIP3   OH245994   0.358   2.704  15.443 -0.2614  0.0725  0.1331
 8168TIP3    H145995   0.364   2.748  15.528  1.3613  0.4605 -0.1529
 8168TIP3    H245996   0.315   2.767  15.386  0.1901  0.4789  0.2410
 8169TIP3   OH245997   5.143   3.336  16.215 -0.0940  0.2094 -0.5830
 8169TIP3    H145998   5.217   3.396  16.213  0.0530  0.0223 -1.0246
 8169TIP3    H245999   5.082   3.371  16.149  0.2015 -0.3740 -1.1838
 8170TIP3   OH246000   0.139   1.468   1.208  0.2048 -0.1278 -0.1430
 8170TIP3    H146001   0.170   1.392   1.257 -0.5232  0.0672  0.6353
 8170TIP3    H246002   0.100   1.431   1.128  0.0008 -0.5621  0.1528
 8171TIP3   OH246003   5.409   0.982   1.231  0.4481  0.1630  0.3659
 8171TIP3    H146004   5.331   1.018   1.273  0.8703 -0.6086  1.9175
 8171TIP3    H246005   5.456   1.058   1.198 -1.8831  0.5654 -2.4797
 8172TIP3   OH246006   5.982   5.549   2.481  0.3811 -0.0948 -0.3127
 8172TIP3    H146007   5.979   5.594   2.397 -0.5796  1.0521  0.3061
 8172TIP3    H246008   6.025   5.610   2.541 -2.1136  0.6526  0.8608
 8173TIP3   OH246009   1.761   6.323   5.001 -0.8577  0.3791 -0.2696
 8173TIP3    H146010   1.741   6.295   5.090 -1.8307 -0.0354 -0.6062
 8173TIP3    H246011   1.777   6.418   5.008 -3.3115  0.8269 -0.0066
 8174TIP3   OH246012   4.963   3.391  13.722  0.2373  0.2487 -0.9192
 8174TIP3    H146013   5.011   3.473  13.712 -0.2270  0.6912  0.2783
 8174TIP3    H246014   4.921   3.377  13.637  0.4963  1.1314 -1.2033
 8175TIP3   OH246015   3.984   0.103   4.801 -0.3029 -0.0309 -0.4062
 8175TIP3    H146016   3.944   0.075   4.719 -0.2514  0.2440 -0.5233
 8175TIP3    H246017   3.996   0.021   4.850 -0.0029 -0.2374 -0.8176
 8176TIP3   OH246018   2.932   5.747  10.444  0.1601  0.4363 -0.1497
 8176TIP3    H146019   3.017   5.716  10.412 -0.8191  0.6338 -3.2669
 8176TIP3    H246020   2.943   5.841  10.455  0.7325  0.2567  0.9031
 8177TIP3   OH246021   1.143   0.526   6.545  0.2844 -0.0304  0.7501
 8177TIP3    H146022   1.094   0.447   6.521  1.6278 -0.6794  0.0186
 8177TIP3    H246023   1.077   0.595   6.550 -0.8882 -1.1411  1.1558
 8178TIP3   OH246024   0.685   1.902  13.609 -0.3430  0.0319  0.1610
 8178TIP3    H146025   0.761   1.961  13.600  0.1095 -0.8024 -2.4445
 8178TIP3    H246026   0.723   1.818  13.634 -0.5726 -0.0630  0.1910
 8179TIP3   OH246027   0.837   3.282  13.472 -0.1477 -0.5615 -0.6448
 8179TIP3    H146028   0.798   3.206  13.430  0.4558 -0.2531 -1.8190
 8179TIP3    H246029   0.828   3.352  13.408  1.6360 -0.2986 -0.6637
 8180TIP3   OH246030   2.863   2.408  15.305  0.6906 -0.5621  0.7280
 8180TIP3    H146031   2.937   2.374  15.356  0.5711 -1.0046  0.6136
 8180TIP3    H246032   2.898   2.484  15.259  0.6111  0.3209  2.0600
 8181TIP3   OH246033   5.608   3.826  15.516 -0.3053  0.5614  0.1220
 8181TIP3    H146034   5.546   3.758  15.544  1.2071 -0.6957  0.5532
 8181TIP3    H246035   5.553   3.893  15.475 -2.1085  0.2254  1.8318
 8182TIP3   OH246036   5.609   1.757  13.172  0.4105 -0.4103  0.0562
 8182TIP3    H146037   5.546   1.692  13.142  0.3492  0.4828 -1.8570
 8182TIP3    H246038   5.694   1.715  13.162  0.2675 -0.8791  0.7105
 8183TIP3   OH246039   6.727   2.038  16.260  0.9220 -0.0855 -0.2933
 8183TIP3    H146040   6.809   1.991  16.260 -0.0040 -1.8114  1.0499
 8183TIP3    H246041   6.711   2.060  16.352  0.0030  0.4552 -0.5572
 8184TIP3   OH246042   3.770   3.593   5.198  0.1618 -0.2774  0.1629
 8184TIP3    H146043   3.802   3.571   5.285  2.3106 -1.2485 -0.8021
 8184TIP3    H246044   3.709   3.522   5.176  1.2683 -1.2291  0.0608
 8185TIP3   OH246045   0.185   2.066   4.970 -0.4037 -0.3292 -0.3442
 8185TIP3    H146046   0.261   2.049   5.026  0.3820  1.4707 -0.7949
 8185TIP3    H246047   0.157   2.154   4.994 -2.8011 -1.1913  0.2656
 8186TIP3   OH246048   1.484   2.939  11.121  0.2436  0.1092 -0.0197
 8186TIP3    H146049   1.495   2.974  11.033  1.5767 -0.8125 -0.2564
 8186TIP3    H246050   1.418   2.870  11.111 -1.7878  1.9238  0.3003
 8187TIP3   OH246051   0.707   0.412   5.842 -0.7712 -0.0943 -0.5779
 8187TIP3    H146052   0.789   0.461   5.826 -0.1239 -0.7303  0.6696
 8187TIP3    H246053   0.650   0.476   5.885 -0.8372  0.2642 -1.1766
 8188TIP3   OH246054   5.873   6.834  16.035 -0.0449  0.4877  0.6246
 8188TIP3    H146055   5.793   6.785  16.016  1.3862 -1.5582 -0.5850
 8188TIP3    H246056   5.878   6.835  16.130 -0.7876 -0.6595  0.7028
 8189TIP3   OH246057   4.074   2.971  16.705  0.3832  0.4008 -0.1028
 8189TIP3    H146058   4.089   2.877  16.704 -0.1349  0.3163 -0.2814
 8189TIP3    H246059   4.084   2.999  16.614 -0.0284  0.4201 -0.1459
 8190TIP3   OH246060   0.977   0.769   3.977  0.5665  0.2069  0.0099
 8190TIP3    H146061   0.961   0.862   3.963  1.5223  0.5320  0.9414
 8190TIP3    H246062   1.026   0.742   3.899  3.5053  1.3820  1.3084
 8191TIP3   OH246063   0.542   6.079   1.428 -0.4507  0.3846 -0.3346
 8191TIP3    H146064   0.507   6.163   1.398 -1.9303  0.5364  1.5818
 8191TIP3    H246065   0.636   6.093   1.434 -0.3207  0.9733 -2.7128
 8192TIP3   OH246066   1.753   2.209  16.323  0.9382  0.6116 -0.1919
 8192TIP3    H146067   1.667   2.222  16.361  1.6857 -0.1641  1.9045
 8192TIP3    H246068   1.813   2.211  16.397  2.3331 -2.5218 -1.0573
 8193TIP3   OH246069   4.475   2.456   0.744 -0.4317 -0.6038  0.1090
 8193TIP3    H146070   4.486   2.533   0.689  1.1142  1.7187  3.3211
 8193TIP3    H246071   4.381   2.450   0.760 -0.6388  0.1877 -0.7292
 8194TIP3   OH246072   3.388   5.259  16.130 -0.0815  0.2749  0.0807
 8194TIP3    H146073   3.483   5.266  16.137  0.1032 -0.1218 -1.5602
 8194TIP3    H246074   3.370   5.165  16.124 -0.6081  0.3317  0.6271
 8195TIP3   OH246075   4.858   6.654  10.721  0.8895 -0.5585 -0.2721
 8195TIP3    H146076   4.796   6.723  10.700  1.0216  0.1155  1.3954
 8195TIP3    H246077   4.806   6.574  10.722  0.6509 -0.4417 -1.7942
 8196TIP3   OH246078   1.592   2.679  11.827  0.1819  0.7500  0.8752
 8196TIP3    H146079   1.507   2.712  11.858 -0.0849  0.8395  0.0689
 8196TIP3    H246080   1.571   2.594  11.789  0.2350  1.3010 -0.4358
 8197TIP3   OH246081   2.723   6.784  11.611 -0.2940  0.4428 -0.0032
 8197TIP3    H146082   2.814   6.756  11.604 -0.6148 -0.7274  0.2750
 8197TIP3    H246083   2.681   6.717  11.665 -0.9098  1.9464  1.4878
 8198TIP3   OH246084   0.506   0.054  14.436  0.1163 -0.3802  0.1652
 8198TIP3    H146085   0.600   0.069  14.446  0.1679 -1.6231  1.7915
 8198TIP3    H246086   0.469   0.142  14.424  1.4286  0.1470 -0.1839
 8199TIP3   OH246087   2.820   5.183   4.586  0.2480  0.5529  0.5547
 8199TIP3    H146088   2.905   5.152   4.617  0.1379  0.6336  0.9405
 8199TIP3    H246089   2.839   5.264   4.539  0.3384  0.7740  0.9721
 8200TIP3   OH246090   5.248   5.709  13.175 -0.4614  0.0207  0.2755
 8200TIP3    H146091   5.158   5.731  13.152 -1.2035 -1.8639  1.1750
 8200TIP3    H246092   5.278   5.653  13.103 -0.1784  0.2445  0.2188
 8201TIP3   OH246093   0.882   2.445  12.911  0.7123  0.5984 -0.8499
 8201TIP3    H146094   0.901   2.447  13.005  1.4079  0.4382 -0.9789
 8201TIP3    H246095   0.956   2.398  12.873 -0.0135 -0.1418 -1.3818
 8202TIP3   OH246096   3.745   5.934  11.380  0.0395  0.3337 -0.7482
 8202TIP3    H146097   3.746   5.838  11.386  0.2525  0.2650 -1.7223
 8202TIP3    H246098   3.657   5.954  11.348 -0.9585  0.6665  1.8900
 8203TIP3   OH246099   0.544   5.923  15.080  0.9171 -0.1982 -0.1675
 8203TIP3    H146100   0.513   6.012  15.066 -2.6065 -1.1158  0.7749
 8203TIP3    H246101   0.547   5.913  15.175  0.0114 -1.4403 -0.2482
 8204TIP3   OH246102   5.848   1.831   1.365  0.0154 -0.1271  0.2834
 8204TIP3    H146103   5.788   1.873   1.303  0.6597  0.6245  0.1627
 8204TIP3    H246104   5.843   1.885   1.444  0.2788 -0.2670  0.3959
 8205TIP3   OH246105   0.717   2.784   1.492  0.2196 -0.0299  0.5537
 8205TIP3    H146106   0.787   2.816   1.435 -0.4288 -0.7063 -0.6747
 8205TIP3    H246107   0.731   2.690   1.496  0.7298  0.0933  2.2135
 8206TIP3   OH246108   0.882   2.230   0.371 -0.0938  0.2253  0.3860
 8206TIP3    H146109   0.819   2.232   0.298  0.3257  1.8095  0.0272
 8206TIP3    H246110   0.962   2.195   0.332 -0.5209 -1.1729  0.6885
 8207TIP3   OH246111   1.553   6.363  13.866  0.4274  0.3699  0.5371
 8207TIP3    H146112   1.511   6.391  13.948 -0.2713  0.5793  0.1150
 8207TIP3    H246113   1.628   6.420  13.857  0.0118  0.9366  0.5925
 8208TIP3   OH246114   6.160   3.701  16.622  0.1968 -0.3614 -0.0116
 8208TIP3    H146115   6.196   3.619  16.654  1.0743  0.2049  0.4954
 8208TIP3    H246116   6.121   3.679  16.538  1.5806 -1.0340 -0.5036
 8209TIP3   OH246117   1.504   6.304  15.886 -0.2271  0.1891 -0.4596
 8209TIP3    H146118   1.498   6.299  15.790 -1.4492  1.9927 -0.5309
 8209TIP3    H246119   1.591   6.340  15.903  0.9851 -2.4069 -0.7196
 8210TIP3   OH246120   2.327   1.152   1.028 -0.7032  0.2288 -0.1022
 8210TIP3    H146121   2.352   1.156   0.935  0.9170 -1.2622  0.2169
 8210TIP3    H246122   2.388   1.212   1.072 -1.0006  0.3902  0.0938
 8211TIP3   OH246123   0.582   3.847   0.747  0.1552  0.1075  0.1180
 8211TIP3    H146124   0.569   3.776   0.683  1.0833  1.7275 -2.0099
 8211TIP3    H246125   0.555   3.926   0.700  0.5030  1.3357  1.9171
 8212TIP3   OH246126   5.524   0.416   6.140 -0.3113  0.6171 -0.3220
 8212TIP3    H146127   5.606   0.453   6.173  0.4271  0.0762 -1.4965
 8212TIP3    H246128   5.482   0.487   6.092  1.1059  0.0097 -2.5791
 8213TIP3   OH246129   2.751   3.615  13.478  0.4430  0.2052 -0.1043
 8213TIP3    H146130   2.758   3.520  13.478  1.7545  0.2815  0.2631
 8213TIP3    H246131   2.836   3.645  13.446 -0.0894  1.2526 -0.5730
 8214TIP3   OH246132   5.536   3.786  13.232 -0.3587  0.1209 -0.4598
 8214TIP3    H146133   5.593   3.820  13.301  0.7718 -1.3671 -0.6008
 8214TIP3    H246134   5.486   3.862  13.202 -0.8486  0.8184  1.9459
 8215TIP3   OH246135   2.501   5.481   5.580  0.2317  0.7694 -0.0236
 8215TIP3    H146136   2.516   5.520   5.494 -1.3344 -1.8747 -1.6157
 8215TIP3    H246137   2.559   5.404   5.582 -1.5096 -0.6011  0.1884
 8216TIP3   OH246138   1.020   2.812   3.934  0.2866  0.1233 -0.0177
 8216TIP3    H146139   1.044   2.731   3.979  1.1187  0.2052 -0.3028
 8216TIP3    H246140   1.026   2.880   4.001 -0.4542 -0.0490  0.2323
 8217TIP3   OH246141   6.644   5.023  16.025  0.3902  0.0561  0.0802
 8217TIP3    H146142   6.659   4.929  16.013  0.8933  0.0070  1.0340
 8217TIP3    H246143   6.656   5.038  16.118  0.1216  1.0436 -0.0311
 8218TIP3   OH246144   5.147   6.854   1.914 -1.1647  0.0515 -0.2490
 8218TIP3    H146145   5.098   6.794   1.970  1.2249 -1.4410  0.3499
 8218TIP3    H246146   5.124   6.829   1.825 -0.9507 -1.1290  0.0125
 8219TIP3   OH246147   6.676   4.553  10.175 -0.0453 -0.1047 -0.1366
 8219TIP3    H146148   6.583   4.577  10.174 -0.2621 -0.9274 -0.2558
 8219TIP3    H246149   6.685   4.488  10.106  0.8799  0.8453 -0.9489
 8220TIP3   OH246150   4.930   0.332  11.862 -0.1625  0.1975 -0.4919
 8220TIP3    H146151   4.954   0.270  11.793 -0.8678 -0.0865 -0.4870
 8220TIP3    H246152   4.979   0.303  11.939 -0.5665 -0.4138 -0.4641
 8221TIP3   OH246153   5.844   0.212  16.298  0.5027  0.0159  0.7164
 8221TIP3    H146154   5.820   0.203  16.206 -0.1211 -2.1057  1.0372
 8221TIP3    H246155   5.785   0.153  16.344  1.7819 -0.0896  2.3101
 8222TIP3   OH246156   4.258   1.508   3.459  0.4358 -0.2625  0.0014
 8222TIP3    H146157   4.296   1.499   3.372  1.1528 -0.2613  0.3112
 8222TIP3    H246158   4.167   1.480   3.448  1.3450 -3.6545 -0.0675
 8223TIP3   OH246159   3.165   2.114   4.382 -0.5238  0.0783  0.1356
 8223TIP3    H146160   3.241   2.156   4.422 -0.8513  1.2988 -0.4827
 8223TIP3    H246161   3.189   2.104   4.290 -1.2062  0.7237 -0.1179
 8224TIP3   OH246162   4.146   4.196   4.845  0.4582 -0.0106  0.0377
 8224TIP3    H146163   4.205   4.241   4.905 -0.7890  0.4200  0.9935
 8224TIP3    H246164   4.065   4.187   4.894 -0.1434 -0.9670 -1.0828
 8225TIP3   OH246165   2.922   6.232   4.620 -0.2281  0.2292 -0.1058
 8225TIP3    H146166   2.873   6.215   4.700  0.5575 -0.0787  0.3261
 8225TIP3    H246167   3.009   6.197   4.638 -0.6521 -1.9128 -1.9192
 8226TIP3   OH246168   2.523   5.760   5.670  0.1885  0.1052  0.1275
 8226TIP3    H146169   2.599   5.765   5.728 -0.4308 -0.8432  1.0649
 8226TIP3    H246170   2.519   5.668   5.644 -1.6301 -0.2921  1.5523
 8227TIP3   OH246171   4.381   1.874   4.579  0.3198  0.5555  0.6243
 8227TIP3    H146172   4.337   1.794   4.554  0.0757  0.8351  0.1429
 8227TIP3    H246173   4.474   1.858   4.561  0.1538  0.7346 -0.4379
 8228TIP3   OH246174   6.305   1.337   1.966  0.4604  0.7160  0.3222
 8228TIP3    H146175   6.229   1.395   1.968 -0.2083  0.0650 -2.2306
 8228TIP3    H246176   6.363   1.372   2.033 -2.1401  1.1056  2.5514
 8229TIP3   OH246177   3.563   2.160   0.004  0.4038  0.5094  0.4442
 8229TIP3    H146178   3.546   2.243   0.047 -0.5632  0.4730  0.1412
 8229TIP3    H246179   3.657   2.146   0.016  0.7857  2.1324 -0.3956
 8230TIP3   OH246180   3.348   4.631  11.863 -0.3571  0.8218 -0.0223
 8230TIP3    H146181   3.432   4.586  11.861  0.3276  2.0885 -1.3933
 8230TIP3    H246182   3.324   4.641  11.771 -1.5296  1.3517  0.3251
 8231TIP3   OH246183   6.391   0.197   1.095 -0.1933  0.0865  0.1375
 8231TIP3    H146184   6.393   0.118   1.150 -0.0708 -0.7330 -1.0100
 8231TIP3    H246185   6.483   0.217   1.078 -0.2465 -0.1430 -0.4323
 8232TIP3   OH246186   3.391   0.531  12.828 -0.0707  0.3985 -0.2508
 8232TIP3    H146187   3.358   0.493  12.746  1.0887  1.2561 -1.1478
 8232TIP3    H246188   3.345   0.483  12.897 -0.5594 -0.8200 -1.3853
 8233TIP3   OH246189   1.080   1.586   2.315 -0.3320  0.2284  0.2933
 8233TIP3    H146190   1.039   1.642   2.381 -3.2368 -0.9401 -0.3313
 8233TIP3    H246191   1.093   1.503   2.359  2.4905  0.8299  0.7590
 8234TIP3   OH246192   0.961   3.654   5.280  0.1619  0.6818  0.0088
 8234TIP3    H146193   0.956   3.562   5.305 -0.8136  0.8714  0.5583
 8234TIP3    H246194   1.046   3.684   5.312  1.9337 -0.7749 -2.8844
 8235TIP3   OH246195   1.249   4.928   0.386 -0.2441 -0.3556 -0.4172
 8235TIP3    H146196   1.331   4.882   0.364  0.1468  0.2592 -0.2656
 8235TIP3    H246197   1.277   5.015   0.413 -1.0076  0.1312 -1.1489
 8236TIP3   OH246198   3.269   6.359  13.493  0.2921  0.3005 -0.1139
 8236TIP3    H146199   3.203   6.407  13.543  0.8781 -0.2060  1.1847
 8236TIP3    H246200   3.301   6.292  13.553  1.7190  0.2846 -0.8353
 8237TIP3   OH246201   1.142   0.404   6.192 -0.0905 -0.4825  0.0407
 8237TIP3    H146202   1.056   0.415   6.232 -0.1426  2.5304 -0.6672
 8237TIP3    H246203   1.126   0.410   6.098  0.9268  0.4996 -0.0840
 8238TIP3   OH246204   0.051   3.574   5.330  0.6067  0.0478  0.0279
 8238TIP3    H146205  -0.031   3.613   5.358  0.6388  0.4058 -0.3678
 8238TIP3    H246206   0.091   3.541   5.410  0.7423  1.1323  0.4130
 8239TIP3   OH246207   2.423   3.377  14.650  0.1384  0.2235  0.3592
 8239TIP3    H146208   2.411   3.381  14.745 -0.5019 -1.3363  0.3861
 8239TIP3    H246209   2.334   3.374  14.614  0.2967 -2.4860 -0.0313
 8240TIP3   OH246210   4.942   2.583  11.825  0.0942  0.0731 -0.6525
 8240TIP3    H146211   4.847   2.575  11.838  0.2239  0.1811  0.5542
 8240TIP3    H246212   4.962   2.674  11.847  0.4968 -0.0016 -0.6955
 8241TIP3   OH246213   4.909   0.862  16.993 -0.3622 -0.0110 -0.2278
 8241TIP3    H146214   4.918   0.840  16.900 -0.3272  0.8409 -0.4335
 8241TIP3    H246215   4.983   0.820  17.036 -1.7988 -2.6922 -0.1508
 8242TIP3   OH246216   3.668   0.177  13.671  0.3854 -0.1212 -0.7250
 8242TIP3    H146217   3.599   0.183  13.605  0.0967  0.9589 -0.3590
 8242TIP3    H246218   3.664   0.261  13.717 -0.5927 -1.4469  1.8229
 8243TIP3   OH246219   1.208   5.521   1.583 -0.3144  0.3280 -0.1519
 8243TIP3    H146220   1.159   5.601   1.600 -0.3433  0.2423  0.1847
 8243TIP3    H246221   1.267   5.513   1.658 -0.4004 -0.0280 -0.1189
 8244TIP3   OH246222   1.834   2.618   1.828  0.5332 -0.6100  0.3745
 8244TIP3    H146223   1.913   2.596   1.780  1.0128 -0.4358  1.0657
 8244TIP3    H246224   1.803   2.699   1.787  0.3853 -0.9859 -0.2704
 8245TIP3   OH246225   0.957   1.209   4.899 -0.2032 -0.6759  0.3772
 8245TIP3    H146226   0.931   1.213   4.991 -1.4126  0.3616  0.0223
 8245TIP3    H246227   0.894   1.150   4.859  1.0077 -2.0351  0.3972
 8246TIP3   OH246228   6.774   6.561   2.174 -0.2310  0.1185 -0.2727
 8246TIP3    H146229   6.700   6.606   2.133  0.2511  1.5728  0.3573
 8246TIP3    H246230   6.841   6.556   2.105 -0.6572 -0.6000 -0.6475
 8247TIP3   OH246231   1.811   3.949   2.117  0.6635 -0.5423 -0.3595
 8247TIP3    H146232   1.770   4.021   2.166 -0.1818 -0.3322 -1.3452
 8247TIP3    H246233   1.747   3.926   2.050  2.4006  0.2411 -2.4056
 8248TIP3   OH246234   1.959   6.225  14.993 -0.0596  0.4817 -0.0068
 8248TIP3    H146235   2.011   6.204  15.070  0.8980 -0.0279 -0.7778
 8248TIP3    H246236   1.895   6.154  14.986  0.8478 -0.3091 -0.5405
 8249TIP3   OH246237   3.823   0.820  11.541 -0.3440 -0.0742  0.6792
 8249TIP3    H146238   3.862   0.905  11.563  1.9638 -1.2109  1.2930
 8249TIP3    H246239   3.746   0.813  11.597 -1.7391  2.3764 -0.7537
 8250TIP3   OH246240   3.020   5.897   3.167  1.0146  0.4334 -0.2145
 8250TIP3    H146241   2.965   5.974   3.154  0.5638 -0.1742 -2.2204
 8250TIP3    H246242   3.105   5.931   3.193  0.3676  1.4964  0.6092
 8251TIP3   OH246243   4.629   0.618   2.519  0.1518 -0.4477  0.2098
 8251TIP3    H146244   4.554   0.647   2.572 -2.0222 -2.0605 -1.7519
 8251TIP3    H246245   4.700   0.677   2.544 -2.3546  2.7123  0.6097
 8252TIP3   OH246246   6.572   5.157  12.982 -0.6195 -0.1911  0.0343
 8252TIP3    H146247   6.648   5.214  12.972 -1.2255  0.3589 -1.7777
 8252TIP3    H246248   6.544   5.171  13.073  1.9238 -1.1031  1.0537
 8253TIP3   OH246249   2.845   0.061   4.207 -0.1053  0.1309  0.6503
 8253TIP3    H146250   2.903  -0.012   4.227  0.2123  0.2840  0.2981
 8253TIP3    H246251   2.885   0.104   4.132 -0.8227  0.0722  0.2244
 8254TIP3   OH246252   0.382   3.783   3.805  0.1504 -0.2216 -0.1609
 8254TIP3    H146253   0.384   3.868   3.762  0.1525 -0.4081 -0.5308
 8254TIP3    H246254   0.465   3.741   3.782  0.2146 -0.2634  0.1427
 8255TIP3   OH246255   5.525   5.588   2.916 -0.1839 -0.9566 -0.8292
 8255TIP3    H146256   5.539   5.671   2.870  1.0127 -0.9774 -0.5282
 8255TIP3    H246257   5.466   5.539   2.858  0.0294 -0.3564 -1.5805
 8256TIP3   OH246258   5.406   4.463  14.340 -0.0488 -0.1281 -0.5276
 8256TIP3    H146259   5.369   4.458  14.428  0.6237 -0.5637 -0.2619
 8256TIP3    H246260   5.501   4.463  14.354  0.1113 -1.9656 -1.3252
 8257TIP3   OH246261   1.329   5.957   5.961  0.5115  0.0885 -0.0483
 8257TIP3    H146262   1.268   5.949   6.035 -0.0504  1.1345 -0.3734
 8257TIP3    H246263   1.320   5.875   5.913 -2.0832  0.8818 -1.1258
 8258TIP3   OH246264   4.920   2.828   4.083 -0.1801 -0.0920 -0.4969
 8258TIP3    H146265   4.927   2.806   4.176  0.2070 -1.6783 -0.8636
 8258TIP3    H246266   4.900   2.921   4.081 -0.2244 -0.0444  1.1760
 8259TIP3   OH246267   0.529   2.603  11.936  0.2465  0.2706  0.0768
 8259TIP3    H146268   0.512   2.653  11.856  1.7242  0.0567 -0.4108
 8259TIP3    H246269   0.620   2.573  11.926  0.5336  0.4077  1.9380
 8260TIP3   OH246270   2.805   2.559   4.048  0.0834 -0.8240 -0.4883
 8260TIP3    H146271   2.750   2.628   4.086 -0.6260 -1.9021  0.5354
 8260TIP3    H246272   2.820   2.498   4.121 -0.0201 -2.1707 -1.5504
 8261TIP3   OH246273   0.887   5.883   0.897  0.5058  1.2180  0.2905
 8261TIP3    H146274   0.895   5.793   0.928  0.4030  2.0600  2.9987
 8261TIP3    H246275   0.793   5.900   0.898  0.5240  1.3495 -0.2323
 8262TIP3   OH246276   6.452   3.754  12.249 -0.3008  0.1202  0.5015
 8262TIP3    H146277   6.460   3.803  12.331  1.8970  1.9750 -0.7106
 8262TIP3    H246278   6.528   3.696  12.249  1.0718  1.7806 -1.1445
 8263TIP3   OH246279   2.047   1.582  14.897  0.2521  0.4493 -0.3167
 8263TIP3    H146280   2.023   1.671  14.923 -0.9857  0.4367 -1.2739
 8263TIP3    H246281   2.097   1.548  14.970 -0.2946  1.5162  0.5944
 8264TIP3   OH246282   2.926   1.450   0.884  0.1058  0.5378 -0.2811
 8264TIP3    H146283   2.959   1.504   0.811 -0.4150  1.1175 -0.0954
 8264TIP3    H246284   2.875   1.381   0.841 -0.1981  0.8764 -0.4762
 8265TIP3   OH246285   4.331   1.711   3.611 -0.6126 -0.1199 -0.1346
 8265TIP3    H146286   4.331   1.645   3.542  0.5773 -0.1165 -0.1586
 8265TIP3    H246287   4.276   1.674   3.680 -0.3321 -0.9233 -0.3351
 8266TIP3   OH246288   5.458   1.583  13.427  0.1645 -0.0162 -0.1000
 8266TIP3    H146289   5.524   1.540  13.372  0.8299 -0.9140  1.3574
 8266TIP3    H246290   5.485   1.675  13.428  0.1517  0.0156 -1.2438
 8267TIP3   OH246291   4.151   3.954  15.134 -0.0083 -0.0462 -0.1131
 8267TIP3    H146292   4.093   3.982  15.063 -0.7316  0.2413  0.5672
 8267TIP3    H246293   4.100   3.971  15.213  0.3354 -1.4190  0.4235
 8268TIP3   OH246294   5.854   6.649  10.941  0.2365 -0.1789 -0.1423
 8268TIP3    H146295   5.919   6.704  10.897 -1.2824  0.6421 -1.4482
 8268TIP3    H246296   5.782   6.642  10.879 -0.8531 -1.2405  1.1762
 8269TIP3   OH246297   0.930   1.786   3.109  0.2760 -0.1804  0.1349
 8269TIP3    H146298   0.973   1.845   3.046  0.7537  0.2477  0.8432
 8269TIP3    H246299   0.871   1.733   3.055 -1.3025  1.9269 -0.3917
 8270TIP3   OH246300   5.360   1.355  15.275  0.1847 -0.0444 -0.0582
 8270TIP3    H146301   5.309   1.365  15.194  0.7883 -1.3605 -0.6362
 8270TIP3    H246302   5.432   1.418  15.266  0.3333 -0.2839 -0.6361
 8271TIP3   OH246303   5.815   6.277   5.869  0.1256 -0.3681  0.0382
 8271TIP3    H146304   5.848   6.291   5.780  0.9910 -1.3920  0.1741
 8271TIP3    H246305   5.742   6.215   5.857 -0.2580  0.0944 -0.0312
 8272TIP3   OH246306   4.486   4.900   3.226  0.7022 -0.1676  0.1529
 8272TIP3    H146307   4.450   4.949   3.300  0.2651 -0.4269  0.1158
 8272TIP3    H246308   4.579   4.921   3.226  1.0910 -1.6810  1.9746
 8273TIP3   OH246309   5.844   4.192  15.283 -0.2042  0.1703 -0.3240
 8273TIP3    H146310   5.801   4.109  15.268  1.2644 -0.8364  0.7534
 8273TIP3    H246311   5.819   4.217  15.372  0.2969  0.2721 -0.2041
 8274TIP3   OH246312   3.804   3.824  15.616  0.1006  0.4482  0.0105
 8274TIP3    H146313   3.743   3.759  15.651 -0.5034  0.8171 -0.3360
 8274TIP3    H246314   3.748   3.898  15.591  0.8815  1.6411  1.5971
 8275TIP3   OH246315   0.517   2.621   5.844  0.1413 -0.5389  0.1511
 8275TIP3    H146316   0.534   2.579   5.928 -1.9896  0.6360  1.2818
 8275TIP3    H246317   0.463   2.558   5.796  3.0657 -2.1122 -1.3298
 8276TIP3   OH246318   6.316   2.985  10.737 -0.2965  0.0248  0.1973
 8276TIP3    H146319   6.405   2.968  10.768 -0.5228 -0.3656  0.6417
 8276TIP3    H246320   6.275   3.034  10.809  0.0135  1.5577 -0.6184
 8277TIP3   OH246321   1.671   5.283   6.461  0.3978 -0.0084  0.3521
 8277TIP3    H146322   1.645   5.209   6.515  0.7984 -0.8354 -0.5545
 8277TIP3    H246323   1.640   5.261   6.373 -2.1617  2.2790  0.5458
 8278TIP3   OH246324   5.485   5.459   2.611  0.1385  0.7011  0.1286
 8278TIP3    H146325   5.541   5.518   2.561 -0.6018  2.4914  1.2887
 8278TIP3    H246326   5.397   5.498   2.604  0.0585  1.2773  3.0337
 8279TIP3   OH246327   4.848   4.825   1.842  0.1102  0.4295  0.5915
 8279TIP3    H146328   4.777   4.879   1.879 -0.8217 -0.3271 -0.0278
 8279TIP3    H246329   4.820   4.810   1.752  1.2937  0.4677  0.2101
 8280TIP3   OH246330   2.424   3.412   2.181 -0.1448  0.4056 -0.0659
 8280TIP3    H146331   2.403   3.491   2.130 -0.7610  0.8452  0.8412
 8280TIP3    H246332   2.352   3.352   2.163 -0.5053  0.6675  0.5050
 8281TIP3   OH246333   4.365   3.829   1.632  0.1236 -0.1987  0.8567
 8281TIP3    H146334   4.392   3.798   1.545  0.5584  1.6031  0.2832
 8281TIP3    H246335   4.429   3.791   1.692  1.2117  0.3218  0.0696
 8282TIP3   OH246336   2.798   3.458   6.482 -0.2680 -0.0350 -0.4661
 8282TIP3    H146337   2.885   3.429   6.512 -0.6042 -0.4074  0.1852
 8282TIP3    H246338   2.808   3.552   6.467  0.2344 -0.0619 -0.3221
 8283TIP3   OH246339   0.867   5.039  16.447  0.2144  0.0004  0.3605
 8283TIP3    H146340   0.953   5.025  16.487 -0.7045 -1.1934  2.0643
 8283TIP3    H246341   0.822   4.955  16.459 -1.1455  0.5601 -0.6316
 8284TIP3   OH246342   4.248   0.856   6.397  0.4882  0.3561 -0.4638
 8284TIP3    H146343   4.299   0.882   6.320 -0.4178 -0.3352 -1.3172
 8284TIP3    H246344   4.308   0.802   6.448  1.1407  0.9278 -0.6071
 8285TIP3   OH246345   4.684   3.298   5.645  0.4203 -0.1913 -0.0685
 8285TIP3    H146346   4.711   3.390   5.637 -0.9879  0.2343 -0.3153
 8285TIP3    H246347   4.726   3.267   5.725 -0.1372  1.0806  0.7549
 8286TIP3   OH246348   4.407   6.728  11.558 -0.6203  0.0587  0.1481
 8286TIP3    H146349   4.322   6.684  11.552 -2.1259  2.7085  0.3231
 8286TIP3    H246350   4.403   6.775  11.641  1.0212  0.2842  0.1230
 8287TIP3   OH246351   5.480   4.821  14.049  0.3495  0.0135  0.3135
 8287TIP3    H146352   5.519   4.751  13.997  1.4142  0.8821 -0.0954
 8287TIP3    H246353   5.396   4.839  14.007 -0.1550 -1.3217  0.7130
 8288TIP3   OH246354   6.013   4.313  12.873  0.4664  0.1278  0.2397
 8288TIP3    H146355   5.951   4.256  12.919  0.7164  0.8345  1.4737
 8288TIP3    H246356   5.958   4.369  12.818  0.1266 -0.2625  0.1740
 8289TIP3   OH246357   3.698   0.788   4.015 -0.5574  0.4025  0.4942
 8289TIP3    H146358   3.731   0.784   3.925 -1.0269 -0.1919  0.3444
 8289TIP3    H246359   3.776   0.798   4.069 -0.3190  1.6261 -0.0291
 8290TIP3   OH246360   6.275   4.134   0.419 -0.1571 -0.0009  0.6306
 8290TIP3    H146361   6.220   4.206   0.450  0.3932  0.7447 -0.0668
 8290TIP3    H246362   6.216   4.078   0.369  0.2167  2.5843 -3.1052
 8291TIP3   OH246363   1.389   1.102   0.456  0.6095  0.1095  0.3610
 8291TIP3    H146364   1.472   1.061   0.481 -0.4491 -1.4965  1.4159
 8291TIP3    H246365   1.324   1.032   0.463 -0.6419  0.9109 -1.8994
 8292TIP3   OH246366   6.799   0.709   1.755  0.2796  0.2123  0.0512
 8292TIP3    H146367   6.704   0.707   1.761  0.2638 -1.4987 -0.1861
 8292TIP3    H246368   6.820   0.800   1.736 -1.3425  0.5254 -0.3838
 8293TIP3   OH246369   6.615   5.786  14.049  0.9075 -0.4767  0.0328
 8293TIP3    H146370   6.523   5.761  14.058  0.9872 -1.5154 -1.5666
 8293TIP3    H246371   6.649   5.786  14.138 -0.5777 -0.3193  0.6258
 8294TIP3   OH246372   4.294   6.673   1.486 -0.4473  0.3265  0.0874
 8294TIP3    H146373   4.203   6.664   1.512 -0.5765  3.3076  0.9983
 8294TIP3    H246374   4.343   6.627   1.555 -1.1624  1.2077  1.2233
 8295TIP3   OH246375   5.666   2.854  15.777 -0.2179 -0.3044  0.5362
 8295TIP3    H146376   5.747   2.902  15.793  0.4013 -1.4728  1.0744
 8295TIP3    H246377   5.695   2.765  15.758 -1.4121 -1.0868  2.1771
 8296TIP3   OH246378   5.260   3.268   2.939 -0.6405 -0.2707  0.0585
 8296TIP3    H146379   5.288   3.324   3.012 -0.5125 -0.7727  0.3957
 8296TIP3    H246380   5.212   3.327   2.881  2.0553  0.9321 -1.1439
 8297TIP3   OH246381   5.273   2.137  13.746  0.2692 -0.0313 -0.4951
 8297TIP3    H146382   5.309   2.060  13.701  2.4891  0.1205  0.8475
 8297TIP3    H246383   5.270   2.204  13.678 -0.9509 -1.0509 -1.5004
 8298TIP3   OH246384   0.295   6.211  13.782  0.4267  0.1357  0.2538
 8298TIP3    H146385   0.375   6.171  13.815  1.2287  0.6917 -0.9447
 8298TIP3    H246386   0.276   6.165  13.701  0.6767  1.3305 -0.5065
 8299TIP3   OH246387   1.792   2.765  10.384  0.0508  0.2612  0.5401
 8299TIP3    H146388   1.701   2.735  10.393 -0.2346  0.0541 -2.2953
 8299TIP3    H246389   1.821   2.777  10.474 -2.0648 -1.8006  1.6161
 8300TIP3   OH246390   0.887   6.138  12.698  0.4033  0.0270  0.2231
 8300TIP3    H146391   0.939   6.110  12.623  1.3450  0.1753  0.8000
 8300TIP3    H246392   0.901   6.232  12.703  0.2521  0.0350  0.5070
 8301TIP3   OH246393   0.302   4.485   2.234 -0.0929 -0.0969  0.0263
 8301TIP3    H146394   0.215   4.523   2.246 -0.4984 -1.4774  1.7823
 8301TIP3    H246395   0.313   4.425   2.308  1.8625 -0.8847 -0.8345
 8302TIP3   OH246396   4.028   5.054  10.488 -0.3726 -0.3979 -1.2619
 8302TIP3    H146397   3.957   5.088  10.433  0.0837 -0.2176 -1.7418
 8302TIP3    H246398   4.107   5.065  10.435  0.1756  0.4217 -0.3019
 8303TIP3   OH246399   1.458   2.281   5.763  0.1671  0.0991 -0.1525
 8303TIP3    H146400   1.366   2.271   5.740  0.4545 -0.2090 -1.2209
 8303TIP3    H246401   1.465   2.370   5.798 -1.0876 -0.8195  2.8150
 8304TIP3   OH246402   4.487   1.462   1.758  0.6700  0.2699  0.5557
 8304TIP3    H146403   4.464   1.372   1.782 -0.3820  0.6000  0.8645
 8304TIP3    H246404   4.403   1.504   1.741  0.9685  1.7545  2.4109
 8305TIP3   OH246405   1.769   2.047  15.553  0.0567 -0.2130  0.6354
 8305TIP3    H146406   1.692   2.097  15.528  0.1002 -0.4962 -0.0907
 8305TIP3    H246407   1.741   1.955  15.549  0.2847 -0.2954  0.8732
 8306TIP3   OH246408   3.496   1.448  12.770 -0.4428  0.2902 -0.1052
 8306TIP3    H146409   3.551   1.379  12.732 -2.3576 -1.1019 -0.5069
 8306TIP3    H246410   3.492   1.426  12.864  1.1517  1.4901  0.2810
 8307TIP3   OH246411   4.998   3.800  13.949  0.0184 -0.4036 -0.0940
 8307TIP3    H146412   5.029   3.785  13.860  1.0439 -0.6357  0.2967
 8307TIP3    H246413   4.988   3.713  13.987 -1.4980 -0.3625 -0.3208
 8308TIP3   OH246414   5.780   2.144   3.008  0.1484 -0.0459  0.0116
 8308TIP3    H146415   5.703   2.180   2.966 -0.2924 -0.6250  0.3068
 8308TIP3    H246416   5.756   2.054   3.029  0.8126 -0.1555  0.3408
 8309TIP3   OH246417   4.183   4.156  10.984 -0.2371 -0.4654 -0.0477
 8309TIP3    H146418   4.135   4.092  10.931 -1.7660  0.2034  0.4695
 8309TIP3    H246419   4.162   4.132  11.074 -0.4169  0.4375  0.1588
 8310TIP3   OH246420   0.926   4.420   4.591  0.0022  0.7033  0.0210
 8310TIP3    H146421   0.918   4.359   4.664 -1.3078  0.1020 -0.5989
 8310TIP3    H246422   0.907   4.368   4.513  1.6578  1.2581 -0.8097
 8311TIP3   OH246423   4.791   1.392   5.650 -0.1650  0.6077 -0.2783
 8311TIP3    H146424   4.843   1.340   5.589 -2.0522 -0.0536 -1.4076
 8311TIP3    H246425   4.771   1.473   5.603 -2.1385 -0.1563 -0.8697
 8312TIP3   OH246426   1.536   6.414  16.560  0.1917  0.0566  0.6639
 8312TIP3    H146427   1.497   6.330  16.582  1.0025 -0.8679 -1.1826
 8312TIP3    H246428   1.574   6.446  16.642  0.3225 -1.6348  1.3003
 8313TIP3   OH246429   6.069   6.306  14.581  0.2569 -0.1380  0.1695
 8313TIP3    H146430   6.070   6.320  14.486 -0.6280  0.1689  0.1920
 8313TIP3    H246431   6.091   6.213  14.592 -2.1273 -0.8686 -0.5241
 8314TIP3   OH246432   2.025   5.483   5.716  0.4200 -0.0950  0.2606
 8314TIP3    H146433   1.984   5.403   5.682 -0.4793  0.0359  0.9993
 8314TIP3    H246434   2.117   5.459   5.728  0.2416 -0.9042  0.1089
 8315TIP3   OH246435   6.181   0.102   6.598 -0.1542 -0.6265  0.4528
 8315TIP3    H146436   6.250   0.073   6.657  2.8102  1.6378 -1.5915
 8315TIP3    H246437   6.168   0.194   6.618  1.8232  0.5737 -2.9258
 8316TIP3   OH246438   4.780   2.922   3.024 -0.3169 -0.1424  0.0906
 8316TIP3    H146439   4.767   3.011   3.057 -0.6145 -0.3856  0.6357
 8316TIP3    H246440   4.834   2.879   3.090 -1.5549 -0.8664  0.6850
 8317TIP3   OH246441   0.372   1.319   1.098 -0.3618  0.1548 -0.1008
 8317TIP3    H146442   0.411   1.232   1.101  0.5851  0.3938 -2.8857
 8317TIP3    H246443   0.397   1.359   1.182 -0.1053 -1.9242  0.8739
 8318TIP3   OH246444   4.850   4.365   2.063  0.0710 -0.4419 -0.3136
 8318TIP3    H146445   4.890   4.441   2.105 -0.4499  0.0781 -0.7279
 8318TIP3    H246446   4.759   4.367   2.092 -0.6625  0.7047 -2.4112
 8319TIP3   OH246447   4.088   5.210   2.816 -0.2907  0.2419  0.8969
 8319TIP3    H146448   4.059   5.284   2.764  0.1274  0.5441  1.0846
 8319TIP3    H246449   4.180   5.229   2.835  0.2519 -1.0235 -0.2796
 8320TIP3   OH246450   1.603   3.776   1.765  0.6899  0.0049 -0.4454
 8320TIP3    H146451   1.603   3.868   1.791  0.3394  0.2423 -1.2512
 8320TIP3    H246452   1.560   3.775   1.680 -2.7328 -1.3633  1.1029
 8321TIP3   OH246453   3.155   3.611  14.565  1.0537 -0.4266  0.3008
 8321TIP3    H146454   3.129   3.526  14.529 -0.2630 -0.3657  1.0264
 8321TIP3    H246455   3.093   3.673  14.526 -1.0987 -0.4869  3.2294
 8322TIP3   OH246456   3.711   1.704  11.287 -0.1944  0.2998  0.7474
 8322TIP3    H146457   3.781   1.692  11.350  2.1558  0.5266 -1.6557
 8322TIP3    H246458   3.656   1.772  11.325  0.5446 -0.2461  2.9484
 8323TIP3   OH246459   2.884   3.994   0.288  0.5944  0.0693  0.7071
 8323TIP3    H146460   2.911   3.931   0.222  0.5313  0.5259  0.2406
 8323TIP3    H246461   2.867   3.941   0.366 -1.5706 -0.8032 -0.2647
 8324TIP3   OH246462   4.334   5.366   5.568 -0.8601 -0.9456  1.3716
 8324TIP3    H146463   4.261   5.411   5.525  1.2865  3.6642  1.8720
 8324TIP3    H246464   4.368   5.306   5.502 -1.5569  1.1915 -1.1176
 8325TIP3   OH246465   0.894   6.073  16.435  0.4895 -0.9456  0.1782
 8325TIP3    H146466   0.804   6.047  16.456  0.6630 -2.4036 -0.7674
 8325TIP3    H246467   0.948   6.002  16.469  1.1203 -1.0218 -0.9417
 8326TIP3   OH246468   0.481   3.171   3.621 -0.0117  0.2616  0.4462
 8326TIP3    H146469   0.389   3.146   3.621  0.0723 -0.8848 -4.1128
 8326TIP3    H246470   0.524   3.107   3.564  2.8704  2.8683 -0.6294
 8327TIP3   OH246471   4.552   3.718  16.342  0.3313  0.0999  0.4540
 8327TIP3    H146472   4.627   3.756  16.295 -1.0875  1.6679 -0.6906
 8327TIP3    H246473   4.481   3.720  16.278 -0.1060 -3.8457  0.6060
 8328TIP3   OH246474   6.003   5.739  10.344 -0.5174 -0.0673 -0.3490
 8328TIP3    H146475   6.002   5.643  10.336 -3.8079 -0.1949  0.4645
 8328TIP3    H246476   6.046   5.754  10.429  0.9693 -0.6927 -0.9412
 8329TIP3   OH246477   5.470   6.586  15.411  0.5637 -0.0463 -0.6163
 8329TIP3    H146478   5.490   6.676  15.385  0.2088  0.0168 -0.6877
 8329TIP3    H246479   5.404   6.557  15.348  0.4840 -0.2638 -0.4348
 8330TIP3   OH246480   1.314   1.626   5.404 -0.0243  0.0662 -0.5238
 8330TIP3    H146481   1.226   1.650   5.432  0.3128  1.2324 -0.3929
 8330TIP3    H246482   1.300   1.559   5.337 -1.1449  1.6876 -2.0038
 8331TIP3   OH246483   0.875   4.801  14.496 -0.3033  0.0781 -0.7077
 8331TIP3    H146484   0.872   4.845  14.581 -0.3517  1.0436 -1.1953
 8331TIP3    H246485   0.968   4.791  14.477 -0.2916 -0.5182 -0.3560
 8332TIP3   OH246486   3.493   5.085   3.485 -0.4869 -0.2378  0.2331
 8332TIP3    H146487   3.450   5.169   3.468  0.2108  0.1164  0.1652
 8332TIP3    H246488   3.428   5.034   3.532 -0.6324  0.6611  1.0493
 8333TIP3   OH246489   4.553   4.419  16.277 -0.6402  1.0025 -0.5596
 8333TIP3    H146490   4.484   4.484  16.295 -0.4761  0.5051  2.2694
 8333TIP3    H246491   4.560   4.369  16.358  1.1010 -0.8428 -1.7730
 8334TIP3   OH246492   4.972   4.174   5.519 -0.1796 -0.2653 -0.4858
 8334TIP3    H146493   4.938   4.101   5.467  1.6178 -2.0409  0.6960
 8334TIP3    H246494   5.009   4.234   5.454 -1.8284 -0.2573 -1.4919
 8335TIP3   OH246495   6.553   2.314  15.266 -0.2830 -0.3367  0.0769
 8335TIP3    H146496   6.643   2.310  15.235 -0.3514 -1.5154 -0.0037
 8335TIP3    H246497   6.512   2.381  15.210  0.8188  1.0888  0.9115
 8336TIP3   OH246498   4.206   6.621  13.466  0.2855 -0.4076 -0.0066
 8336TIP3    H146499   4.179   6.570  13.390 -0.0341  1.0075 -0.8901
 8336TIP3    H246500   4.185   6.566  13.542 -1.7073 -0.8608 -0.8303
 8337TIP3   OH246501   4.189   1.672  13.960 -1.0138 -0.3131 -0.3353
 8337TIP3    H146502   4.152   1.585  13.947 -0.4369 -0.6336  0.0975
 8337TIP3    H246503   4.282   1.662  13.940 -0.9798  0.2528 -0.4831
 8338TIP3   OH246504   2.199   3.772   1.175 -0.2547  0.0085  0.6228
 8338TIP3    H146505   2.134   3.797   1.109  0.0924  0.7123  0.5399
 8338TIP3    H246506   2.269   3.837   1.166  0.3068 -0.5459  0.9375
 8339TIP3   OH246507   1.961   0.359  15.699 -0.4192 -0.3127  0.2652
 8339TIP3    H146508   1.967   0.402  15.784 -1.5751  0.2068  0.1019
 8339TIP3    H246509   1.962   0.431  15.636  0.7120 -0.7071 -0.1968
 8340TIP3   OH246510   5.576   1.796  12.356 -0.3960 -0.1326  0.8047
 8340TIP3    H146511   5.574   1.707  12.392 -1.7646 -1.1413 -1.4783
 8340TIP3    H246512   5.484   1.821  12.349 -0.2132  0.1575 -1.3965
 8341TIP3   OH246513   1.646   6.685   3.352 -0.0122  0.3703 -0.6749
 8341TIP3    H146514   1.588   6.613   3.329 -0.0005  0.4039 -0.8120
 8341TIP3    H246515   1.599   6.735   3.418 -0.5560  0.9463 -1.4712
 8342TIP3   OH246516   3.609   6.589   3.384  0.1516  0.4176 -0.1785
 8342TIP3    H146517   3.651   6.580   3.299 -0.3066  1.0802 -0.4890
 8342TIP3    H246518   3.676   6.563   3.448 -0.0417 -1.7891 -0.7954
 8343TIP3   OH246519   3.495   1.287  15.119  0.4689 -0.0566  0.0861
 8343TIP3    H146520   3.523   1.198  15.138  0.8309 -0.0048 -0.1942
 8343TIP3    H246521   3.402   1.279  15.096  0.0695 -0.1505  1.5944
 8344TIP3   OH246522   0.183   3.324  12.011  0.0058  0.4323 -0.1221
 8344TIP3    H146523   0.141   3.407  12.032  0.8762  1.0164 -0.6420
 8344TIP3    H246524   0.272   3.333  12.045  0.3923  0.0800 -1.0285
 8345TIP3   OH246525   1.817   0.432   2.160 -0.1138 -0.9800  0.3220
 8345TIP3    H146526   1.840   0.432   2.067  0.7300  3.0419  0.3359
 8345TIP3    H246527   1.882   0.376   2.202  0.8219 -1.1361 -1.2623
 8346TIP3   OH246528   4.594   5.068   0.223 -0.0589 -0.0179  0.2763
 8346TIP3    H146529   4.641   5.133   0.276 -1.1637 -0.0729  1.3698
 8346TIP3    H246530   4.577   4.996   0.284 -1.2811 -0.1221 -0.1667
 8347TIP3   OH246531   4.598   2.634  11.385 -0.1911 -0.4324 -0.0198
 8347TIP3    H146532   4.672   2.663  11.439  0.6989  1.8992 -2.2721
 8347TIP3    H246533   4.523   2.683  11.419 -0.1581 -0.7976  0.5930
 8348TIP3   OH246534   4.731   1.357  11.818  0.3322  0.0812  0.3555
 8348TIP3    H146535   4.784   1.403  11.752  0.2537  0.1335  0.3288
 8348TIP3    H246536   4.716   1.271  11.780 -2.2165  1.0439 -1.0659
 8349TIP3   OH246537   4.136   0.343  10.558  0.5338 -0.1142  0.7604
 8349TIP3    H146538   4.095   0.261  10.584 -1.1568  0.5488  0.3089
 8349TIP3    H246539   4.164   0.329  10.468 -0.7755  0.1382  0.2914
 8350TIP3   OH246540   1.056   2.161  11.323  0.6380  0.3978 -0.6712
 8350TIP3    H146541   1.074   2.072  11.292 -0.2752 -0.0376  0.0028
 8350TIP3    H246542   1.115   2.217  11.271 -1.4864 -0.1597 -3.9628
 8351TIP3   OH246543   1.887   4.425   0.945  0.0602 -0.1392  0.0163
 8351TIP3    H146544   1.829   4.494   0.911  0.1325  0.2319  0.6185
 8351TIP3    H246545   1.963   4.426   0.887  1.0245  1.7432  1.2248
 8352TIP3   OH246546   2.342   6.211   0.541 -0.7945  0.0596 -0.0111
 8352TIP3    H146547   2.355   6.236   0.450 -3.2520  3.2287  0.3227
 8352TIP3    H246548   2.249   6.191   0.547 -0.3754 -1.6368  1.5376
 8353TIP3   OH246549   0.476   0.999   2.648  0.3575 -0.5683  0.3272
 8353TIP3    H146550   0.517   0.914   2.662  0.8647 -0.5581 -0.9472
 8353TIP3    H246551   0.429   0.989   2.565  3.1213  1.3212 -1.6158
 8354TIP3   OH246552   5.517   4.587   2.676  0.0547 -0.6334  0.2072
 8354TIP3    H146553   5.480   4.633   2.751 -0.6323 -1.2921  0.2759
 8354TIP3    H246554   5.572   4.519   2.713 -0.7599 -1.3504  0.1390
 8355TIP3   OH246555   4.693   1.506   4.227 -0.6557 -0.1716 -0.2074
 8355TIP3    H146556   4.620   1.479   4.171 -0.2884  0.4281 -0.9939
 8355TIP3    H246557   4.750   1.557   4.170 -1.6420  2.8836  1.3301
 8356TIP3   OH246558   6.797   2.099   4.092 -0.4657 -0.1831 -0.4357
 8356TIP3    H146559   6.832   2.177   4.049  0.6787  0.5538  1.6476
 8356TIP3    H246560   6.709   2.125   4.120 -0.0493  0.4660  0.3488
 8357TIP3   OH246561   1.639   1.449   0.591  0.1642  0.2506 -0.2857
 8357TIP3    H146562   1.590   1.473   0.669 -1.0130  1.3451 -1.3034
 8357TIP3    H246563   1.593   1.494   0.519  0.3401 -1.8401 -1.7917
 8358TIP3   OH246564   5.295   4.877  10.147  0.1151 -0.1894  0.2333
 8358TIP3    H146565   5.269   4.796  10.103  0.7397  0.0268 -0.5610
 8358TIP3    H246566   5.385   4.862  10.174  1.4520  1.3821 -2.9026
 8359TIP3   OH246567   4.791   3.691  12.587 -0.2117 -0.3025  0.4121
 8359TIP3    H146568   4.711   3.639  12.591 -1.7847  2.0226  0.9158
 8359TIP3    H246569   4.799   3.729  12.675  1.5694 -0.5888  0.4165
 8360TIP3   OH246570   5.706   1.950  10.503  0.5620 -0.4811 -0.7174
 8360TIP3    H146571   5.795   1.927  10.528 -0.1205 -0.7364  1.6918
 8360TIP3    H246572   5.650   1.900  10.562 -1.1437  1.2621 -0.7282
 8361TIP3   OH246573   1.194   6.148   5.782 -0.3488  0.5148  0.6147
 8361TIP3    H146574   1.246   6.088   5.835  0.8323  3.1908  2.6729
 8361TIP3    H246575   1.110   6.155   5.828  0.0977  1.6279  1.2789
 8362TIP3   OH246576   3.415   0.127  12.009 -0.0196  0.6800  0.7764
 8362TIP3    H146577   3.329   0.107  11.973  0.5762 -3.5371  1.0906
 8362TIP3    H246578   3.398   0.166  12.094 -1.5706  1.4417  0.1512
 8363TIP3   OH246579   4.103   3.095  12.796  0.2541  0.2965 -0.2854
 8363TIP3    H146580   4.071   3.143  12.720  0.3983  0.5190 -0.2070
 8363TIP3    H246581   4.191   3.068  12.773  0.3624  0.5131 -0.1330
 8364TIP3   OH246582   1.735   2.856   0.318  0.2798 -0.1272 -0.5313
 8364TIP3    H146583   1.679   2.779   0.328 -1.4431  1.0972 -0.3702
 8364TIP3    H246584   1.735   2.874   0.224 -0.6460  0.5911 -0.4087
 8365TIP3   OH246585   4.856   3.028   3.362 -0.2520  0.8399  0.6029
 8365TIP3    H146586   4.863   2.960   3.430 -1.9471  0.4823  0.4536
 8365TIP3    H246587   4.928   3.087   3.381 -0.0837  0.2047  2.1187
 8366TIP3   OH246588   5.910   5.646   3.146 -0.3285 -0.3513  0.0982
 8366TIP3    H146589   5.828   5.599   3.160  0.3635 -1.6614 -0.1351
 8366TIP3    H246590   5.978   5.579   3.153  0.9906  1.0873  3.0003
 8367TIP3   OH246591   2.777   5.870  14.999 -0.9709  0.3043 -1.0576
 8367TIP3    H146592   2.789   5.865  14.904 -0.7340  4.2752 -1.4404
 8367TIP3    H246593   2.864   5.890  15.033 -1.5066  1.7308 -0.4233
 8368TIP3   OH246594   6.087   6.300   4.638  0.1994 -0.1876  0.4904
 8368TIP3    H146595   6.086   6.237   4.710 -0.2787 -3.1083 -1.8911
 8368TIP3    H246596   6.179   6.309   4.614  0.2518 -0.1070  0.7207
 8369TIP3   OH246597   2.356   4.039  14.807 -0.4145 -0.5774  0.1102
 8369TIP3    H146598   2.288   4.090  14.851  0.9428  0.7777  0.7039
 8369TIP3    H246599   2.393   4.099  14.743  1.2579 -0.7588  0.8639
 8370TIP3   OH246600   6.714   3.726   5.393  0.2979 -0.3209 -0.3780
 8370TIP3    H146601   6.751   3.803   5.436 -0.0592 -0.8082  0.8321
 8370TIP3    H246602   6.691   3.757   5.305  0.8254  0.7606 -0.1545
 8371TIP3   OH246603   1.572   4.725   4.340 -0.2757  0.0062  0.1483
 8371TIP3    H146604   1.652   4.706   4.389  1.6042 -1.0648 -3.0121
 8371TIP3    H246605   1.584   4.814   4.308 -0.2588 -0.2128 -0.4658
 8372TIP3   OH246606   2.529   6.525   0.411 -0.3536  0.5126 -0.1417
 8372TIP3    H146607   2.599   6.589   0.424  1.1669 -1.4246  2.0258
 8372TIP3    H246608   2.451   6.568   0.446 -0.4290  2.7434 -2.6727
 8373TIP3   OH246609   5.424   3.622  15.498  0.4379  0.5468  0.1212
 8373TIP3    H146610   5.456   3.539  15.464  0.6695 -0.0662  1.7510
 8373TIP3    H246611   5.333   3.605  15.521  0.9730  0.1894  2.1104
 8374TIP3   OH246612   4.143   0.240  14.425 -0.1843  0.0802  0.9412
 8374TIP3    H146613   4.132   0.328  14.461  2.8862 -0.3253  3.2625
 8374TIP3    H246614   4.055   0.203  14.425 -2.0188  3.7722 -2.2666
 8375TIP3   OH246615   2.420   5.327  14.426  0.3201  0.4704  0.0081
 8375TIP3    H146616   2.381   5.265  14.364 -1.3472 -0.0725  1.5132
 8375TIP3    H246617   2.505   5.289  14.448  0.3121 -0.0610 -0.8361
 8376TIP3   OH246618   0.628   2.834   4.662 -0.2671 -0.2880  0.1139
 8376TIP3    H146619   0.668   2.757   4.703  0.8206  0.2277  0.0750
 8376TIP3    H246620   0.568   2.868   4.728  1.5965  0.6372  1.4527
 8377TIP3   OH246621   5.812   6.751   5.993 -0.2654  0.0994  0.4399
 8377TIP3    H146622   5.812   6.656   5.981  1.5072  0.0498  0.6186
 8377TIP3    H246623   5.748   6.782   5.929 -0.0041 -1.1364 -0.4795
 8378TIP3   OH246624   5.044   5.868   0.360  0.3645 -0.1745 -0.7394
 8378TIP3    H146625   5.010   5.911   0.439  0.3764 -0.7924 -0.3874
 8378TIP3    H246626   4.969   5.820   0.325  0.4257 -0.1045 -0.9675
 8379TIP3   OH246627   6.080   5.832  14.139 -0.0793 -0.4605  0.2281
 8379TIP3    H146628   6.121   5.854  14.222  0.8284  2.7511 -0.9459
 8379TIP3    H246629   5.987   5.854  14.151  0.3902  1.8874 -0.1478
 8380TIP3   OH246630   2.684   5.122  15.175  0.2670  0.4479  0.1386
 8380TIP3    H146631   2.756   5.063  15.152  0.9835  0.7430  1.4746
 8380TIP3    H246632   2.674   5.180  15.100  0.1904 -0.7482 -0.8033
 8381TIP3   OH246633   0.223   3.746   5.203  0.2444 -0.2024 -0.0764
 8381TIP3    H146634   0.144   3.709   5.242 -2.0402  1.6753 -2.5319
 8381TIP3    H246635   0.280   3.766   5.277 -1.8709 -0.9999  1.8585
 8382TIP3   OH246636   1.680   3.407   1.226 -0.3059 -0.1128  0.1353
 8382TIP3    H146637   1.681   3.329   1.281 -0.0410  0.4868  1.0145
 8382TIP3    H246638   1.595   3.405   1.182 -0.4662 -0.6767  0.4577
 8383TIP3   OH246639   2.528   0.703   5.668  0.3609  0.4516 -0.1283
 8383TIP3    H146640   2.439   0.673   5.688  0.7086 -0.2705  0.4091
 8383TIP3    H246641   2.547   0.769   5.735  0.7284 -0.4062  0.6395
 8384TIP3   OH246642   3.109   5.833  11.807 -0.0894  0.2915 -0.2463
 8384TIP3    H146643   3.196   5.827  11.767  0.2667 -0.6354  0.6353
 8384TIP3    H246644   3.052   5.784  11.747  0.6551 -2.0940  0.8956
 8385TIP3   OH246645   0.641   4.908   5.287  0.2111 -0.5099  0.2153
 8385TIP3    H146646   0.650   4.830   5.342 -0.6637 -0.6875  0.1252
 8385TIP3    H246647   0.570   4.959   5.328  0.1855 -0.1930 -0.2138
 8386TIP3   OH246648   5.062   0.634  16.546  0.6423 -0.5300 -0.2318
 8386TIP3    H146649   5.129   0.666  16.485 -0.3754  0.2826 -0.9675
 8386TIP3    H246650   5.099   0.554  16.582  2.4652  0.4306  0.1744
 8387TIP3   OH246651   6.099   0.370  16.325 -0.4069  0.4911  0.4561
 8387TIP3    H146652   6.029   0.305  16.323  0.0267  0.0111  0.4530
 8387TIP3    H246653   6.116   0.390  16.234 -0.6670  0.7465  0.4640
 8388TIP3   OH246654   0.780   2.392  14.366  0.2847  0.0841  0.0163
 8388TIP3    H146655   0.732   2.469  14.396 -1.3128 -0.6781 -0.4969
 8388TIP3    H246656   0.854   2.428  14.316 -0.5647  1.2815 -0.4206
 8389TIP3   OH246657   4.549   4.573  16.789  0.5687  0.1610 -0.1220
 8389TIP3    H146658   4.564   4.636  16.860  0.3479 -0.7555  0.7554
 8389TIP3    H246659   4.521   4.493  16.833 -1.1374  0.0275 -1.3502
 8390TIP3   OH246660   1.278   3.186  16.393  0.4198  0.2148 -0.0701
 8390TIP3    H146661   1.319   3.100  16.392  0.6825  0.3414 -0.0735
 8390TIP3    H246662   1.198   3.175  16.340  1.2968  0.3873 -1.4754
 8391TIP3   OH246663   0.380   2.089   5.670  0.5578  0.4318 -0.0290
 8391TIP3    H146664   0.391   2.037   5.590 -0.1289 -0.6163  0.5305
 8391TIP3    H246665   0.456   2.146   5.672  1.9838 -1.3887 -0.0705
 8392TIP3   OH246666   3.100   5.862   0.978 -0.0793 -1.0003  0.0904
 8392TIP3    H146667   3.031   5.796   0.972 -0.3708 -0.7576  0.7112
 8392TIP3    H246668   3.137   5.850   1.065  1.2663 -1.7099 -0.5556
 8393TIP3   OH246669   3.265   3.398  15.745  0.3809  0.0110  0.5116
 8393TIP3    H146670   3.258   3.494  15.748 -1.4102  0.0230 -1.4694
 8393TIP3    H246671   3.221   3.368  15.824 -1.8101  0.8157 -0.3240
 8394TIP3   OH246672   6.015   0.915   2.748 -0.1655  0.4294 -0.5866
 8394TIP3    H146673   6.078   0.969   2.795 -0.3580 -0.2009  0.4397
 8394TIP3    H246674   5.964   0.873   2.818  0.6002 -1.8170 -1.3055
 8395TIP3   OH246675   2.957   6.561  12.946  0.1377 -0.4889  0.3158
 8395TIP3    H146676   2.990   6.644  12.982 -0.1791 -0.4329  0.4825
 8395TIP3    H246677   2.889   6.534  13.008 -1.8093  0.6065 -1.2133
 8396TIP3   OH246678   5.542   6.293  16.423 -0.1676  0.4700  0.2183
 8396TIP3    H146679   5.468   6.353  16.413 -1.4198 -1.0858 -0.3363
 8396TIP3    H246680   5.515   6.214  16.376  1.8082 -0.2004  0.1212
 8397TIP3   OH246681   5.184   3.435   4.698  0.3062  0.1956  0.1623
 8397TIP3    H146682   5.197   3.434   4.793  0.2130 -1.2847  0.1835
 8397TIP3    H246683   5.222   3.352   4.668 -0.5120  0.2106 -0.9606
 8398TIP3   OH246684   2.497   3.556  11.425  0.0419 -0.1310 -0.3470
 8398TIP3    H146685   2.491   3.521  11.336  2.5632 -0.0855 -0.6014
 8398TIP3    H246686   2.528   3.646  11.414  1.8711 -0.5968  0.5701
 8399TIP3   OH246687   6.559   1.860  15.784  0.0215  0.3111 -0.1667
 8399TIP3    H146688   6.495   1.817  15.841  0.1539  1.0675  0.5695
 8399TIP3    H246689   6.506   1.903  15.717 -0.1421 -0.4793 -0.5561
 8400TIP3   OH246690   0.220   6.769   3.571  0.1779  0.5434  0.0527
 8400TIP3    H146691   0.245   6.808   3.487  0.3024 -0.8929 -0.6184
 8400TIP3    H246692   0.129   6.742   3.558 -0.3230  1.7390  0.9476
 8401TIP3   OH246693   0.841   5.888   1.282 -0.3648  0.6004  0.1802
 8401TIP3    H146694   0.822   5.956   1.218  0.2568  0.6746  0.0761
 8401TIP3    H246695   0.802   5.809   1.245  0.8239  0.4323 -0.7648
 8402TIP3   OH246696   2.587   1.172  16.598  0.6334 -0.4413 -0.2511
 8402TIP3    H146697   2.561   1.264  16.600 -0.4480 -0.7005 -1.2179
 8402TIP3    H246698   2.668   1.170  16.547  0.8469  0.0021  0.0645
 8403TIP3   OH246699   1.601   5.704   1.739  0.4783  0.5287  0.3002
 8403TIP3    H146700   1.651   5.762   1.683  1.9732 -0.1483  0.8819
 8403TIP3    H246701   1.554   5.646   1.679  1.9486 -0.0995 -0.2873
 8404TIP3   OH246702   1.900   1.903   2.591  0.2502 -0.2276 -0.7108
 8404TIP3    H146703   1.866   1.966   2.528 -1.4209  0.5095  0.8590
 8404TIP3    H246704   1.829   1.891   2.654  1.2390 -2.2289  0.1145
 8405TIP3   OH246705   5.301   3.251  13.352  0.0857 -0.0893  0.3286
 8405TIP3    H146706   5.389   3.218  13.369  0.8270  0.9407 -1.2278
 8405TIP3    H246707   5.275   3.207  13.271  0.6033  2.0981 -1.1094
 8406TIP3   OH246708   3.234   0.855  12.233  0.0478  0.4838  0.0857
 8406TIP3    H146709   3.242   0.781  12.293  1.6094  1.3483  1.0151
 8406TIP3    H246710   3.145   0.889  12.248 -1.0881 -1.7277 -1.0838
 8407TIP3   OH246711   0.794   3.642  14.674 -0.4640  0.2785 -0.1165
 8407TIP3    H146712   0.713   3.634  14.725 -0.4151 -0.8016 -0.1719
 8407TIP3    H246713   0.828   3.552  14.671  1.1102  0.8203  0.5080
 8408TIP3   OH246714   0.914   6.295  11.090 -0.5695  0.6771 -0.5763
 8408TIP3    H146715   0.956   6.215  11.057  2.8765  2.4612 -0.9124
 8408TIP3    H246716   0.844   6.263  11.147  0.3659 -2.5726 -1.0416
 8409TIP3   OH246717   6.535   2.400  12.422 -0.2092 -0.5403  0.4355
 8409TIP3    H146718   6.553   2.458  12.496 -2.7570  0.9470 -0.0017
 8409TIP3    H246719   6.591   2.432  12.352 -0.2479  0.2261  0.7500
 8410TIP3   OH246720   4.980   4.275  10.999 -0.6950 -0.1117 -0.8010
 8410TIP3    H146721   4.908   4.218  11.024 -0.1021 -1.0781 -1.2402
 8410TIP3    H246722   5.026   4.227  10.930 -0.4901  1.1233 -1.5682
 8411TIP3   OH246723   5.298   1.532   5.859  0.3592 -0.1464 -0.5057
 8411TIP3    H146724   5.386   1.568   5.873  0.9681 -1.5485 -0.4694
 8411TIP3    H246725   5.303   1.444   5.896 -1.0029 -0.3277 -0.7250
 8412TIP3   OH246726   1.533   6.244   0.047 -0.1394 -0.3417 -0.3440
 8412TIP3    H146727   1.570   6.332   0.037  0.1799 -0.2716  1.1363
 8412TIP3    H246728   1.594   6.188  -0.001  0.0662  0.1555 -0.6832
 8413TIP3   OH246729   4.379   0.406   4.222 -0.4699 -0.8154  0.3603
 8413TIP3    H146730   4.463   0.384   4.180  0.5147 -0.3351  1.9677
 8413TIP3    H246731   4.338   0.321   4.238  0.3721 -1.1584  0.7995
 8414TIP3   OH246732   1.750   6.571  16.415  0.2763  0.2127 -0.1956
 8414TIP3    H146733   1.821   6.597  16.473  0.0072  0.9164 -0.1753
 8414TIP3    H246734   1.683   6.537  16.474  0.2104  0.4491 -0.1309
 8415TIP3   OH246735   6.865   4.258  12.185 -0.5508  0.5588  0.5745
 8415TIP3    H146736   6.865   4.352  12.166  0.2232  0.4629  0.0567
 8415TIP3    H246737   6.951   4.228  12.157 -1.2270 -0.5357 -0.4132
 8416TIP3   OH246738   4.298   3.397  16.714 -0.2870 -0.0047  0.3151
 8416TIP3    H146739   4.282   3.481  16.671 -1.0073 -0.3154 -0.0493
 8416TIP3    H246740   4.212   3.354  16.714 -0.0574 -0.4816  1.0589
 8417TIP3   OH246741   5.668   3.704  12.320  0.5034 -0.1501  0.0407
 8417TIP3    H146742   5.695   3.640  12.255  1.7032  1.4027 -1.0727
 8417TIP3    H246743   5.743   3.711  12.379  0.9474  1.1782 -0.6436
 8418TIP3   OH246744   4.684   4.712   5.706 -0.3711 -0.2318  0.2961
 8418TIP3    H146745   4.775   4.739   5.692 -0.2735 -0.7860 -0.2003
 8418TIP3    H246746   4.686   4.668   5.791  0.2267 -1.8636 -0.5097
 8419TIP3   OH246747   1.858   3.727  11.996 -0.6522 -0.8899 -0.3168
 8419TIP3    H146748   1.831   3.758  12.082  0.0775 -0.3915 -0.2642
 8419TIP3    H246749   1.925   3.661  12.014  0.2994  0.0018 -0.5224
 8420TIP3   OH246750   1.368   5.878   3.045 -0.1321  0.6752 -0.0172
 8420TIP3    H146751   1.420   5.947   3.085 -2.4899  1.6926  1.5565
 8420TIP3    H246752   1.371   5.806   3.108  1.2024 -0.1923 -1.0190
 8421TIP3   OH246753   0.622   4.022   4.348  0.3545  0.3972 -0.7094
 8421TIP3    H146754   0.623   3.956   4.417  0.1938  2.4899  1.4629
 8421TIP3    H246755   0.665   3.981   4.273  0.1294 -2.1491  0.4753
 8422TIP3   OH246756   0.301   1.069   4.524 -0.0988 -0.0649  0.1797
 8422TIP3    H146757   0.276   0.978   4.507  1.1205 -0.5288  0.7723
 8422TIP3    H246758   0.275   1.115   4.444  2.2729 -1.5365 -1.5780
 8423TIP3   OH246759   0.488   3.070   5.940  0.3729  0.0793  0.0182
 8423TIP3    H146760   0.417   3.121   5.902  1.0710  1.0086 -0.0646
 8423TIP3    H246761   0.476   3.078   6.035  0.5810  0.5601  0.0084
 8424TIP3   OH246762   1.563   0.226  16.497 -0.3434 -0.7453  0.5097
 8424TIP3    H146763   1.621   0.266  16.562 -1.5498  1.0830  0.4972
 8424TIP3    H246764   1.599   0.254  16.413  0.0224 -1.4514  0.4181
 8425TIP3   OH246765   4.660   3.947   1.796  0.5621 -0.6568  0.1853
 8425TIP3    H146766   4.677   4.041   1.796 -1.5395 -0.1751 -2.1175
 8425TIP3    H246767   4.584   3.936   1.854 -1.4336 -0.2916 -2.1587
 8426TIP3   OH246768   3.432   0.179   5.161 -0.8256  0.0947 -0.1672
 8426TIP3    H146769   3.389   0.157   5.244 -0.8477  1.3962  0.1927
 8426TIP3    H246770   3.394   0.264   5.136  0.9745  0.9417 -0.2049
 8427TIP3   OH246771   2.513   2.890  14.894 -0.1481  0.3135  0.0843
 8427TIP3    H146772   2.584   2.943  14.930  0.8705 -0.9844  0.0407
 8427TIP3    H246773   2.441   2.952  14.882  0.9820  1.6765  0.0702
 8428TIP3   OH246774   5.020   5.045  17.009 -0.1240 -0.4681 -0.1421
 8428TIP3    H146775   5.055   4.959  16.986 -0.7977 -0.5655 -0.8548
 8428TIP3    H246776   4.963   5.068  16.935  1.1503  1.2184 -0.6697
 8429TIP3   OH246777   0.961   0.304   0.239  0.1848 -1.0643 -0.0345
 8429TIP3    H146778   1.054   0.295   0.256  0.3221 -2.9104 -1.3890
 8429TIP3    H246779   0.920   0.305   0.325  1.4377 -0.3662  0.5699
 8430TIP3   OH246780   5.113   1.641   2.206  0.6250  0.8418  0.3977
 8430TIP3    H146781   5.041   1.701   2.187 -0.1877 -0.2957 -0.2619
 8430TIP3    H246782   5.085   1.594   2.285  0.1665 -0.3073 -0.4320
 8431TIP3   OH246783   6.187   4.009   5.033 -0.2016 -0.2023  0.5388
 8431TIP3    H146784   6.101   3.994   4.994 -0.2167 -1.1403  0.9135
 8431TIP3    H246785   6.248   4.000   4.960 -0.2831 -1.3332  0.5912
 8432TIP3   OH246786   0.837   4.381   4.945  0.4257 -0.2814 -0.0344
 8432TIP3    H146787   0.924   4.378   4.907  0.3144 -1.1434 -0.2422
 8432TIP3    H246788   0.842   4.450   5.012  1.7032 -1.3385  1.0166
 8433TIP3   OH246789   1.454   1.553   2.355 -0.2517 -0.5417  0.4128
 8433TIP3    H146790   1.489   1.625   2.407  0.7378 -0.6465 -0.0936
 8433TIP3    H246791   1.446   1.480   2.416  0.6393 -0.5811  0.4834
 8434TIP3   OH246792   6.167   2.270   3.112 -0.0989  0.1733 -0.0679
 8434TIP3    H146793   6.117   2.340   3.154  1.5493  1.7466 -0.5944
 8434TIP3    H246794   6.102   2.202   3.093 -1.5667  1.0831  1.4430
 8435TIP3   OH246795   5.566   3.660   3.238  0.0160 -0.1918 -0.2811
 8435TIP3    H146796   5.605   3.623   3.317 -0.7098 -1.8061 -0.6457
 8435TIP3    H246797   5.635   3.651   3.172  0.0544 -0.3381 -0.2226
 8436TIP3   OH246798   1.730   0.230  16.717  0.0965  0.0823  0.6573
 8436TIP3    H146799   1.792   0.158  16.726  0.4819  0.4119  0.7026
 8436TIP3    H246800   1.758   0.294  16.783  0.7815  0.9877 -0.4705
 8437TIP3   OH246801   3.414   2.989   4.470 -0.0792 -0.3553  0.0378
 8437TIP3    H146802   3.405   3.008   4.564  0.1241  0.6058 -0.1233
 8437TIP3    H246803   3.500   3.023   4.447 -0.5177  0.3007 -0.6963
 8438TIP3   OH246804   4.901   4.303   4.876 -0.0472  0.1578  0.6456
 8438TIP3    H146805   4.829   4.256   4.835 -0.2035  0.5183  0.4954
 8438TIP3    H246806   4.948   4.237   4.927 -1.7767  0.2986  2.5789
 8439TIP3   OH246807   0.378   3.390  16.804  0.1280 -0.3081 -0.7776
 8439TIP3    H146808   0.291   3.408  16.770  0.6588 -1.0415 -2.6926
 8439TIP3    H246809   0.370   3.398  16.899 -1.9924 -0.3047 -0.9192
 8440TIP3   OH246810   5.393   3.768  12.205 -0.6125  0.2665  0.2303
 8440TIP3    H146811   5.422   3.764  12.296  0.1203  0.4617  0.0136
 8440TIP3    H246812   5.456   3.714  12.157 -0.7992  0.4284 -0.2039
 8441TIP3   OH246813   1.413   2.603   1.481 -0.6006 -0.1468  0.4560
 8441TIP3    H146814   1.403   2.656   1.402 -0.5453 -0.3525  0.3102
 8441TIP3    H246815   1.336   2.624   1.534  0.2459  1.3902  1.1809
 8442TIP3   OH246816   6.847   0.801   0.629  0.3521  0.1259  0.5254
 8442TIP3    H146817   6.897   0.873   0.667  0.5670  0.5515 -0.5077
 8442TIP3    H246818   6.781   0.844   0.575  1.1982 -0.4170 -1.0138
 8443TIP3   OH246819   3.548   6.359  11.582  0.1619  0.1307 -0.2968
 8443TIP3    H146820   3.468   6.403  11.612  0.4360  1.2342 -1.1228
 8443TIP3    H246821   3.521   6.270  11.562 -0.7422  0.3410 -0.0383
 8444TIP3   OH246822   5.475   1.218  16.365  0.2246 -0.5805 -0.4685
 8444TIP3    H146823   5.528   1.262  16.298  0.5780 -0.1449  0.0883
 8444TIP3    H246824   5.440   1.289  16.418  1.5816 -0.9644  1.0384
 8445TIP3   OH246825   0.280   0.933  13.623 -0.3009 -0.0225  0.5514
 8445TIP3    H146826   0.324   0.938  13.538 -0.8243 -0.5228  0.2434
 8445TIP3    H246827   0.322   1.001  13.676  0.0788  0.2446 -0.0811
 8446TIP3   OH246828   6.766   0.679  16.903 -0.2100 -0.0073  0.1183
 8446TIP3    H146829   6.838   0.690  16.965 -2.6543  0.7484  3.0476
 8446TIP3    H246830   6.801   0.622  16.835  3.6355  1.6496  0.4641
 8447TIP3   OH246831   5.986   5.307   2.599  0.1554 -0.1302 -0.8447
 8447TIP3    H146832   5.994   5.398   2.572  1.8892  0.3476  0.9941
 8447TIP3    H246833   6.040   5.259   2.536  0.3336  0.2970 -1.0208
 8448TIP3   OH246834   2.853   0.181   4.721  0.2729  0.7731  0.2483
 8448TIP3    H146835   2.773   0.186   4.667 -0.6371  0.3956  1.5126
 8448TIP3    H246836   2.842   0.102   4.773  1.7641  0.4016  0.0372
 8449TIP3   OH246837   1.858   5.573  13.489 -0.5137  0.0270  0.3217
 8449TIP3    H146838   1.790   5.543  13.549 -2.2715 -0.2457 -1.7276
 8449TIP3    H246839   1.899   5.493  13.456 -1.1610  0.0788 -0.6249
 8450TIP3   OH246840   5.998   2.468  14.602 -0.4695 -0.0302 -0.6492
 8450TIP3    H146841   5.923   2.448  14.659  0.7741  0.3515  1.2131
 8450TIP3    H246842   6.075   2.449  14.656  0.7860  2.2124 -1.5266
 8451TIP3   OH246843   4.152   1.152  12.802  0.6724 -0.0919 -0.1590
 8451TIP3    H146844   4.236   1.114  12.828 -0.6392 -2.9536  0.3365
 8451TIP3    H246845   4.168   1.189  12.716  2.2555 -1.4865 -0.5242
 8452TIP3   OH246846   1.535   5.520  13.963 -0.0263  0.1185 -0.2524
 8452TIP3    H146847   1.576   5.437  13.989  1.7931  1.0662  0.0300
 8452TIP3    H246848   1.501   5.556  14.045 -0.0178  0.0793 -0.2313
 8453TIP3   OH246849   3.419   6.160   3.790  0.1783 -0.4367  0.0956
 8453TIP3    H146850   3.368   6.107   3.852 -1.2755 -0.5530 -1.1349
 8453TIP3    H246851   3.380   6.247   3.795  1.3251  0.0496  0.7337
 8454TIP3   OH246852   5.736   6.599  15.211  0.3857 -0.0031 -0.1815
 8454TIP3    H146853   5.733   6.554  15.295  1.2702 -1.4642 -0.8995
 8454TIP3    H246854   5.664   6.561  15.161 -0.0639  0.7800 -0.1599
 8455TIP3   OH246855   5.056   5.004   6.217 -0.5198  0.1345 -0.2439
 8455TIP3    H146856   5.142   4.992   6.176 -1.2573  0.2921 -1.9278
 8455TIP3    H246857   5.075   5.025   6.308  1.2797  1.6382 -0.9226
 8456TIP3   OH246858   3.180   5.756  11.083  0.1050 -0.5886 -0.3506
 8456TIP3    H146859   3.212   5.704  11.157 -0.7139  1.1372  1.3088
 8456TIP3    H246860   3.238   5.833  11.083  0.3014 -0.7196 -1.7510
 8457TIP3   OH246861   4.429   2.355  12.538  0.4675  0.0869 -0.2064
 8457TIP3    H146862   4.400   2.388  12.623  1.5984  0.3770  0.0912
 8457TIP3    H246863   4.525   2.354  12.544  0.5383 -1.9493 -0.6949
 8458TIP3   OH246864   3.450   5.920   0.512  0.1373  0.1954 -0.7555
 8458TIP3    H146865   3.407   5.964   0.586  0.8226 -0.1106 -0.1637
 8458TIP3    H246866   3.382   5.862   0.477  0.2372 -0.7936  0.5982
 8459TIP3   OH246867   2.376   1.036   2.340 -0.6534  1.2721 -0.1955
 8459TIP3    H146868   2.303   0.987   2.301 -0.3342  0.6643 -0.0344
 8459TIP3    H246869   2.436   1.052   2.267 -0.8949  1.6932 -0.3090
 8460TIP3   OH246870   5.342   3.183  15.096  0.5339  0.3897  0.2236
 8460TIP3    H146871   5.308   3.186  15.185 -1.8161  1.2025 -0.6203
 8460TIP3    H246872   5.437   3.185  15.106  0.3309  2.0743  2.6590
 8461TIP3   OH246873   1.013   6.860  15.318  0.7869  0.4929  0.2884
 8461TIP3    H146874   1.101   6.892  15.339  1.6794 -0.6756 -1.4281
 8461TIP3    H246875   0.982   6.920  15.250  0.9789 -0.0771 -0.3192
 8462TIP3   OH246876   2.700   6.167  15.617 -0.2763  0.1184 -0.7047
 8462TIP3    H146877   2.671   6.190  15.529 -1.6654  0.1174 -0.2747
 8462TIP3    H246878   2.734   6.078  15.608 -2.3968 -0.7233 -0.8710
 8463TIP3   OH246879   6.221   3.367   0.711  0.3190 -0.1894 -0.7264
 8463TIP3    H146880   6.233   3.403   0.623  0.3728  0.5581 -0.4191
 8463TIP3    H246881   6.309   3.361   0.747  0.2878 -0.3934 -0.6843
 8464TIP3   OH246882   0.975   5.590  11.714  0.5563  0.2688 -0.0394
 8464TIP3    H146883   0.977   5.501  11.679  1.9659  0.3336 -0.1716
 8464TIP3    H246884   1.052   5.596  11.770 -0.4192  0.8918  1.3140
 8465TIP3   OH246885   1.349   0.803   5.828  0.3045  0.0770  0.3198
 8465TIP3    H146886   1.273   0.788   5.884 -1.0433 -0.5329 -1.5441
 8465TIP3    H246887   1.328   0.884   5.781  1.8308  1.0864  1.3052
 8466TIP3   OH246888   2.326   0.883  11.387  0.1523 -0.3273  0.2512
 8466TIP3    H146889   2.250   0.825  11.384 -1.2612  1.4770 -0.2931
 8466TIP3    H246890   2.384   0.850  11.318 -0.6963 -0.9691 -0.1722
 8467TIP3   OH246891   0.919   4.916   4.170 -0.3131  0.4194 -0.1761
 8467TIP3    H146892   0.907   4.839   4.225 -1.1678  2.0740  2.0924
 8467TIP3    H246893   1.013   4.915   4.148 -0.0751 -0.6173  0.7902
 8468TIP3   OH246894   4.870   5.805   5.109 -0.5171 -0.0793 -0.2758
 8468TIP3    H146895   4.806   5.875   5.123 -0.2579 -0.1516  1.6137
 8468TIP3    H246896   4.929   5.812   5.185  1.2335 -0.5312 -1.5353
 8469TIP3   OH246897   3.180   1.811   3.321  0.6141  0.3286 -0.1647
 8469TIP3    H146898   3.225   1.893   3.344  0.5230 -0.0046  1.3243
 8469TIP3    H246899   3.107   1.839   3.266 -1.6270  1.7860  3.2258
 8470TIP3   OH246900   5.957   6.228   1.286  0.3955  0.2926  0.5109
 8470TIP3    H146901   6.000   6.229   1.371  0.2980 -0.8132  0.5874
 8470TIP3    H246902   6.002   6.295   1.235  2.4953 -1.0783  0.4564
 8471TIP3   OH246903   2.720   6.770   0.928 -0.0909  0.0252 -0.3837
 8471TIP3    H146904   2.696   6.843   0.870 -0.0322 -0.0864 -0.5505
 8471TIP3    H246905   2.752   6.813   1.007 -2.3040  0.1830  0.4961
 8472TIP3   OH246906   0.841   5.083   1.209  0.0980  0.1809 -0.4119
 8472TIP3    H146907   0.933   5.102   1.223  0.2032 -0.8874  0.4546
 8472TIP3    H246908   0.823   5.117   1.121  1.4138  0.0332 -0.7600
 8473TIP3   OH246909   6.250   0.414   4.326 -0.1351  0.6454  0.1470
 8473TIP3    H146910   6.314   0.344   4.312 -1.0980 -0.0648 -0.7637
 8473TIP3    H246911   6.218   0.399   4.415 -1.3801 -0.9731 -0.5339
 8474TIP3   OH246912   2.708   0.434  12.464 -0.1007  0.0890 -0.2800
 8474TIP3    H146913   2.640   0.434  12.396 -1.4777  0.4470  1.0405
 8474TIP3    H246914   2.767   0.362  12.439  0.4184  1.2545 -2.7464
 8475TIP3   OH246915   1.303   0.961  16.835  0.4511  0.3367 -0.0477
 8475TIP3    H146916   1.281   0.871  16.859 -0.5842  0.3859 -0.7278
 8475TIP3    H246917   1.358   0.993  16.906 -2.6760  0.6029  2.4358
 8476TIP3   OH246918   2.761   4.775  15.571  0.2110  0.1713 -0.1278
 8476TIP3    H146919   2.808   4.841  15.622  0.5036 -0.1234 -0.0174
 8476TIP3    H246920   2.731   4.712  15.635 -0.1505  0.2435 -0.2249
 8477TIP3   OH246921   1.765   2.574  12.026 -0.0876  0.3064 -0.0142
 8477TIP3    H146922   1.763   2.478  12.024  1.7993  0.1897  0.9951
 8477TIP3    H246923   1.720   2.600  11.946 -1.2572 -1.3934  0.0266
 8478TIP3   OH246924   5.565   5.669  15.545 -0.0940 -0.3274  0.4401
 8478TIP3    H146925   5.611   5.622  15.476  2.2961 -0.6211  2.1193
 8478TIP3    H246926   5.525   5.600  15.599 -0.7952 -0.1589  0.1512
 8479TIP3   OH246927   0.340   3.062  16.291  0.1679  0.1373  0.1715
 8479TIP3    H146928   0.399   3.107  16.352  0.3064  0.3023 -0.0827
 8479TIP3    H246929   0.321   3.127  16.224  2.4418 -0.8965 -1.6258
 8480TIP3   OH246930   0.843   3.745   3.040  0.1655  0.3094  0.0019
 8480TIP3    H146931   0.855   3.784   3.127  2.4238 -0.8991  0.3053
 8480TIP3    H246932   0.843   3.819   2.980  0.2144  1.0539  0.8939
 8481TIP3   OH246933   6.423   4.229   0.898  0.6369 -0.0863 -0.3158
 8481TIP3    H146934   6.418   4.324   0.893  1.9669 -0.0193 -0.8865
 8481TIP3    H246935   6.406   4.199   0.808  0.8042 -0.3440 -0.2641
 8482TIP3   OH246936   3.475   3.009   2.096 -0.2259  0.0974  0.0599
 8482TIP3    H146937   3.491   2.920   2.065 -0.2555 -0.5592  1.7765
 8482TIP3    H246938   3.508   3.065   2.027  0.7128 -1.2491 -0.6373
 8483TIP3   OH246939   6.729   4.714  13.558 -0.3735  0.2768 -0.1212
 8483TIP3    H146940   6.821   4.692  13.572 -0.5222 -0.5935 -0.4404
 8483TIP3    H246941   6.702   4.759  13.638  0.6929  1.8196 -0.5862
 8484TIP3   OH246942   6.666   2.561   1.048 -0.1841 -0.6085  0.1789
 8484TIP3    H146943   6.580   2.562   1.007  0.4992 -0.7900 -1.3486
 8484TIP3    H246944   6.726   2.541   0.976  1.0025 -1.9018  1.4566
 8485TIP3   OH246945   1.226   0.270   4.885  0.4186  0.4288  0.6549
 8485TIP3    H146946   1.287   0.279   4.958  1.0190 -1.8936  0.5064
 8485TIP3    H246947   1.140   0.260   4.927  0.6296  0.0712  1.0034
 8486TIP3   OH246948   6.407   6.863  16.873  0.1440  0.5708 -0.1028
 8486TIP3    H146949   6.464   6.789  16.890  1.1832  0.8497 -2.0313
 8486TIP3    H246950   6.428   6.926  16.942 -0.2770 -0.6234  1.1596
 8487TIP3   OH246951   0.324   3.290   5.632  0.0227 -0.0942  0.4573
 8487TIP3    H146952   0.314   3.322   5.721 -1.3772  0.4317  0.1327
 8487TIP3    H246953   0.394   3.225   5.638  1.7079  1.7037  1.4605
 8488TIP3   OH246954   4.302   2.574  13.619 -0.3771 -0.1418  0.1871
 8488TIP3    H146955   4.396   2.564  13.608 -0.5202 -1.1889 -0.1958
 8488TIP3    H246956   4.292   2.618  13.703  0.4028 -2.5346  1.6375
 8489TIP3   OH246957   6.290   6.600   3.935  0.7074 -0.0600  0.3724
 8489TIP3    H146958   6.208   6.632   3.899 -0.4548 -3.4565 -0.3780
 8489TIP3    H246959   6.340   6.570   3.859  1.6950 -0.0544  0.9884
 8490TIP3   OH246960   6.098   6.832   0.453  0.1905  0.2189  0.1309
 8490TIP3    H146961   6.140   6.900   0.400 -0.0486  0.3062  0.0533
 8490TIP3    H246962   6.133   6.846   0.541 -0.9351  1.3471  0.4119
 8491TIP3   OH246963   2.262   6.635  13.476 -0.0909 -0.2458 -0.5077
 8491TIP3    H146964   2.274   6.706  13.413 -1.0934 -0.1310 -0.5979
 8491TIP3    H246965   2.336   6.642  13.535 -0.0480  0.7357 -0.6608
 8492TIP3   OH246966   4.243   5.832   5.205  0.0914  0.0604 -0.2799
 8492TIP3    H146967   4.306   5.836   5.277  0.6071  0.8195 -0.7574
 8492TIP3    H246968   4.285   5.776   5.139  0.0024  0.0838 -0.3571
 8493TIP3   OH246969   5.962   0.018  13.144 -0.9400 -0.0485 -0.3244
 8493TIP3    H146970   5.970   0.055  13.056  0.5792 -0.3691 -0.3592
 8493TIP3    H246971   6.007  -0.067  13.138 -1.7516 -0.5510  0.5054
 8494TIP3   OH246972   3.680   2.540  12.149  0.1253 -0.4503  0.2483
 8494TIP3    H146973   3.707   2.621  12.106  0.7311 -0.4944  0.5409
 8494TIP3    H246974   3.682   2.560  12.243 -0.9341 -0.4327  0.2807
 8495TIP3   OH246975   2.930   6.024  11.881  1.0099 -0.2625  0.0741
 8495TIP3    H146976   2.974   6.070  11.952 -0.2654 -1.6694  1.8794
 8495TIP3    H246977   2.991   5.956  11.854  0.3607 -1.7106  2.0283
 8496TIP3   OH246978   0.249   5.755  16.954 -0.6612  0.4926  0.2764
 8496TIP3    H146979   0.182   5.728  17.017  0.5382 -3.4104  0.1308
 8496TIP3    H246980   0.332   5.746  17.001  0.0054  1.6862 -0.6217
 8497TIP3   OH246981   1.395   4.802   6.071  0.2762 -0.4953 -0.3669
 8497TIP3    H146982   1.431   4.889   6.050 -0.7733  0.3028  0.9618
 8497TIP3    H246983   1.458   4.765   6.133 -0.0481 -0.0044  0.2756
 8498TIP3   OH246984   1.921   5.327  12.833 -0.1307 -0.1065 -0.3485
 8498TIP3    H146985   1.951   5.327  12.924 -0.7071  0.5038 -0.1565
 8498TIP3    H246986   2.000   5.305  12.783  0.1120 -0.8027  0.3122
 8499TIP3   OH246987   6.104   5.136  13.073  0.3909 -0.1786  0.2998
 8499TIP3    H146988   6.065   5.151  13.159  1.8136  0.8140  0.8133
 8499TIP3    H246989   6.085   5.215  13.024  1.4747  0.2154  0.4763
 8500TIP3   OH246990   5.058   5.279   2.788 -0.3991 -0.8823 -0.3967
 8500TIP3    H146991   5.123   5.208   2.796 -0.0926 -0.4716  1.0144
 8500TIP3    H246992   5.023   5.269   2.699  1.8009 -0.9320 -1.3176
 8501TIP3   OH246993   6.106   4.086   0.701  0.0767 -0.2852  0.0063
 8501TIP3    H146994   6.069   4.062   0.616 -1.1341  3.7141 -0.7740
 8501TIP3    H246995   6.071   4.020   0.762 -2.6119 -0.7638 -1.8852
 8502TIP3   OH246996   2.127   1.633  11.131  0.5722  0.2870  0.5161
 8502TIP3    H146997   2.168   1.637  11.045 -0.0953  0.9580  0.2144
 8502TIP3    H246998   2.181   1.571  11.181  2.4325  1.7239  0.3991
 8503TIP3   OH246999   1.017   6.423   1.732 -0.2611 -0.2052  0.3155
 8503TIP3    H147000   0.931   6.445   1.767 -0.5284 -0.4211 -0.1929
 8503TIP3    H247001   1.027   6.479   1.654 -0.2154 -0.6314  0.0081
 8504TIP3   OH247002   5.643   6.077   3.257 -0.4449  0.0475  0.8777
 8504TIP3    H147003   5.569   6.021   3.280 -0.6352  0.8265  2.2667
 8504TIP3    H247004   5.695   6.082   3.337  0.1665  0.9510  0.4457
 8505TIP3   OH247005   0.060   3.878   1.294 -0.2176 -0.3048 -0.1408
 8505TIP3    H147006   0.019   3.965   1.294  2.1755  0.9106 -0.0944
 8505TIP3    H247007   0.100   3.871   1.207  0.4337 -0.9204  0.2015
 8506TIP3   OH247008   5.245   0.534  11.798 -0.6609  0.2077 -0.1224
 8506TIP3    H147009   5.193   0.570  11.726 -1.1955 -0.6308 -0.1579
 8506TIP3    H247010   5.197   0.457  11.827  0.4685 -0.4790 -0.0280
 8507TIP3   OH247011   0.259   2.729   4.120  0.1924 -0.0690 -0.2029
 8507TIP3    H147012   0.292   2.815   4.146 -0.4414  0.2002 -0.2821
 8507TIP3    H247013   0.244   2.683   4.203 -0.7758  0.3925 -0.1183
 8508TIP3   OH247014   0.680   5.825  13.035 -0.2072 -0.2321 -0.3870
 8508TIP3    H147015   0.597   5.794  13.000  1.3824 -0.5189 -4.3973
 8508TIP3    H247016   0.697   5.907  12.989  2.0734 -0.5948 -0.3398
 8509TIP3   OH247017   5.893   1.956  16.291  0.1955 -0.5281  0.2234
 8509TIP3    H147018   5.814   1.991  16.333  0.8018 -1.2088  2.0523
 8509TIP3    H247019   5.957   2.027  16.299  0.4352 -0.8080  0.8788
 8510TIP3   OH247020   1.478   3.706   4.972 -0.3883 -0.4845  0.1790
 8510TIP3    H147021   1.400   3.658   4.945 -1.5637  1.5816 -0.2263
 8510TIP3    H247022   1.551   3.651   4.942 -1.6580 -1.7198 -0.7642
 8511TIP3   OH247023   2.447   0.796  12.477  0.2375 -0.1043  0.2195
 8511TIP3    H147024   2.362   0.797  12.521  0.1664  1.0509  0.0874
 8511TIP3    H247025   2.506   0.750  12.538  0.3160  2.0654  1.8713
 8512TIP3   OH247026   0.533   6.190  13.314 -0.0705  0.2977  0.7000
 8512TIP3    H147027   0.543   6.271  13.263 -1.5247  0.9583  1.4160
 8512TIP3    H247028   0.470   6.138  13.264 -0.2800  0.2498  1.0150
 8513TIP3   OH247029   3.979   1.794   2.182  0.1845  0.1099  0.2346
 8513TIP3    H147030   3.992   1.784   2.276 -1.8692  1.7736  0.7888
 8513TIP3    H247031   3.930   1.716   2.156  0.2684 -0.0860  0.6621
 8514TIP3   OH247032   5.792   4.916   1.260  0.5050 -0.6195 -0.1621
 8514TIP3    H147033   5.708   4.942   1.297  1.0008  0.1808  0.4229
 8514TIP3    H247034   5.856   4.932   1.329  0.8390 -3.8417  0.4227
 8515TIP3   OH247035   4.714   3.773  13.934 -0.6984 -0.2819  0.0632
 8515TIP3    H147036   4.808   3.763  13.949 -1.0750 -0.6681  2.6673
 8515TIP3    H247037   4.696   3.722  13.855  1.3917  0.6046 -1.0613
 8516TIP3   OH247038   3.920   5.133   5.454  0.4306  0.0448  0.2972
 8516TIP3    H147039   3.989   5.106   5.514  0.6127  0.9727  0.5216
 8516TIP3    H247040   3.857   5.179   5.509  0.7054  1.0976 -0.2453
 8517TIP3   OH247041   4.174   2.910  14.787 -0.3257 -0.4532  0.0400
 8517TIP3    H147042   4.227   2.944  14.859  3.4656  4.2797 -4.2002
 8517TIP3    H247043   4.210   2.824  14.769  3.5881  1.0216 -0.1933
 8518TIP3   OH247044   2.802   1.315  12.222 -0.3321 -0.3818 -1.2039
 8518TIP3    H147045   2.753   1.299  12.303  1.2361  1.7472  0.2852
 8518TIP3    H247046   2.786   1.237  12.168 -0.2241 -2.6172  1.7480
 8519TIP3   OH247047   5.998   1.643  13.950  0.4716  0.0388  0.3352
 8519TIP3    H147048   5.921   1.600  13.986  0.3501 -0.7992 -0.8328
 8519TIP3    H247049   5.978   1.736  13.954 -1.1224 -0.1968 -0.9973
 8520TIP3   OH247050   6.100   5.959   1.402  0.0907 -0.1857  0.1984
 8520TIP3    H147051   6.096   5.917   1.488 -0.9182 -0.6510 -0.0605
 8520TIP3    H247052   6.193   5.964   1.382  0.3463  0.0152  1.3514
 8521TIP3   OH247053   4.421   2.810  11.195 -0.2823  0.6281  0.2197
 8521TIP3    H147054   4.460   2.723  11.186 -0.9230  0.3204  0.3776
 8521TIP3    H247055   4.371   2.822  11.114 -1.1041  0.3815  0.6863
 8522TIP3   OH247056   4.382   2.266   3.189 -0.0513 -0.4312 -0.0934
 8522TIP3    H147057   4.446   2.199   3.215 -1.4177 -1.8731 -0.2783
 8522TIP3    H247058   4.297   2.229   3.215 -0.7255  2.4368  2.3770
 8523TIP3   OH247059   1.592   3.519  11.507  0.3386 -0.3952  0.0988
 8523TIP3    H147060   1.580   3.608  11.540 -2.2001 -0.8100  0.4689
 8523TIP3    H247061   1.601   3.530  11.412 -3.0460  0.1511 -0.2754
 8524TIP3   OH247062   0.495   6.152   3.374 -0.1725 -0.0113 -1.0072
 8524TIP3    H147063   0.478   6.240   3.408  1.7417 -0.1019  0.3099
 8524TIP3    H247064   0.416   6.103   3.395 -1.0367  1.2224 -1.2495
 8525TIP3   OH247065   5.710   2.407   0.319 -0.0384  0.1475  0.5486
 8525TIP3    H147066   5.726   2.320   0.356 -0.5011 -0.0375  0.3248
 8525TIP3    H247067   5.764   2.466   0.371  2.5384 -0.6105 -1.0667
 8526TIP3   OH247068   5.853   5.481   0.102 -0.3369 -0.1205  0.5584
 8526TIP3    H147069   5.887   5.400   0.138  0.8592  0.5281  0.9452
 8526TIP3    H247070   5.804   5.521   0.174 -2.6192 -1.3729 -0.1915
 8527TIP3   OH247071   2.226   0.764   6.078  0.6596  0.2067 -0.1916
 8527TIP3    H147072   2.240   0.671   6.099  2.0833  0.1348 -1.3037
 8527TIP3    H247073   2.131   0.774   6.077  0.4020 -1.6873 -1.7466
 8528TIP3   OH247074   1.330   0.531   0.895 -0.4816 -0.0655 -0.3290
 8528TIP3    H147075   1.354   0.623   0.893  0.9330 -0.4046 -0.0625
 8528TIP3    H247076   1.411   0.484   0.876 -0.2676 -1.3554  3.0335
 8529TIP3   OH247077   1.844   0.364   2.746  0.2218 -0.4869  0.1136
 8529TIP3    H147078   1.833   0.274   2.718  1.5999 -1.1090  1.4235
 8529TIP3    H247079   1.886   0.358   2.831  2.1553  1.3809 -0.6009
 8530TIP3   OH247080   1.803   3.257   1.497  0.9647  0.2621  0.7908
 8530TIP3    H147081   1.811   3.279   1.590  0.1801  0.0533  0.9129
 8530TIP3    H247082   1.738   3.187   1.494  0.4274  0.7782  0.0112
 8531TIP3   OH247083   0.341   2.537  13.705  0.2768 -0.2417 -0.5061
 8531TIP3    H147084   0.260   2.576  13.671 -0.4334 -0.6504  0.6516
 8531TIP3    H247085   0.408   2.560  13.641 -1.2221 -2.1060 -2.9053
 8532TIP3   OH247086   2.815   5.291  14.722 -0.0024 -0.3093 -0.0956
 8532TIP3    H147087   2.720   5.280  14.723 -0.0504  0.1276  0.6534
 8532TIP3    H247088   2.845   5.234  14.651 -0.7196 -1.2029  0.3090
 8533TIP3   OH247089   2.206   0.688  13.241  0.5724  0.0678 -0.7124
 8533TIP3    H147090   2.235   0.648  13.159  2.2504 -1.4567  0.5418
 8533TIP3    H247091   2.186   0.614  13.298 -0.7526  1.0913  0.2175
 8534TIP3   OH247092   2.795   2.933   2.679 -0.4574 -0.2404  0.1077
 8534TIP3    H147093   2.858   2.898   2.616 -0.1625  0.1147  0.2054
 8534TIP3    H247094   2.809   3.027   2.677 -1.3976 -0.0925 -0.3143
 8535TIP3   OH247095   0.230   2.507   3.095  0.1870  0.3915  0.3440
 8535TIP3    H147096   0.203   2.502   3.187 -1.4784 -0.0150 -0.1365
 8535TIP3    H247097   0.227   2.601   3.075 -0.7444  0.3737  0.3564
 8536TIP3   OH247098   1.307   6.141  11.548 -0.0147  0.2676  0.2511
 8536TIP3    H147099   1.280   6.115  11.636 -1.2485  1.6407  0.3240
 8536TIP3    H247100   1.349   6.226  11.560 -0.4853  0.6169 -0.5231
 8537TIP3   OH247101   6.878   2.434  12.626 -0.0467 -0.8458 -0.1083
 8537TIP3    H147102   6.882   2.517  12.673 -1.2134 -1.1523  0.5732
 8537TIP3    H247103   6.914   2.453  12.540  1.7529 -0.1783  0.7441
 8538TIP3   OH247104   1.851   5.329   0.862  0.2784 -0.4006 -0.2208
 8538TIP3    H147105   1.926   5.374   0.824 -1.6429  2.1294 -1.3506
 8538TIP3    H247106   1.870   5.236   0.851  3.3464  0.1251 -0.0956
 8539TIP3   OH247107   2.301   4.603   3.776  0.5727 -0.8959  0.0420
 8539TIP3    H147108   2.269   4.580   3.689 -0.2747 -0.8107  0.3220
 8539TIP3    H247109   2.250   4.680   3.801  0.2444 -1.3830  0.9394
 8540TIP3   OH247110   1.633   5.632   3.390  0.1038 -0.8375 -0.1443
 8540TIP3    H147111   1.611   5.544   3.420 -0.4905 -0.5995  0.1373
 8540TIP3    H247112   1.549   5.669   3.362  0.4207 -0.5263 -0.7071
 8541TIP3   OH247113   5.482   1.792   4.134  0.2160 -0.1206 -0.6125
 8541TIP3    H147114   5.572   1.801   4.101  0.1346 -1.2061 -1.1950
 8541TIP3    H247115   5.487   1.816   4.226  0.9687  0.4757 -0.7998
 8542TIP3   OH247116   5.705   2.025   2.160 -0.2336  0.7842  0.1740
 8542TIP3    H147117   5.636   2.089   2.143 -1.0287 -0.4214 -1.4996
 8542TIP3    H247118   5.671   1.944   2.122  0.9337 -0.5356  1.7921
 8543TIP3   OH247119   5.628   4.844  11.118 -0.3756 -0.6181  0.0528
 8543TIP3    H147120   5.610   4.870  11.028 -0.0893 -4.2571 -1.2164
 8543TIP3    H247121   5.550   4.868  11.167 -1.1991 -0.0250 -1.5053
 8544TIP3   OH247122   6.251   6.394  11.665 -0.0729 -0.3479  1.0202
 8544TIP3    H147123   6.214   6.438  11.589  0.0205  0.5540  1.4868
 8544TIP3    H247124   6.179   6.388  11.727  0.0760 -0.2924  1.1987
 8545TIP3   OH247125   2.918   0.385  13.969 -0.1015 -0.4904 -0.0595
 8545TIP3    H147126   2.931   0.291  13.956 -0.2683 -0.6843  1.0398
 8545TIP3    H247127   2.831   0.402  13.933 -0.4271 -0.9362  0.5028
 8546TIP3   OH247128   1.544   3.693   1.102 -0.1096 -0.4170  0.0705
 8546TIP3    H147129   1.635   3.725   1.106  0.0980 -1.0349  0.4073
 8546TIP3    H247130   1.516   3.715   1.013  0.7151 -1.1089 -0.3809
 8547TIP3   OH247131   6.065   4.957  16.444  0.4352 -0.4584 -0.1668
 8547TIP3    H147132   6.135   4.996  16.496  0.6913  0.8193 -1.4006
 8547TIP3    H247133   6.109   4.918  16.369 -0.2127  2.9402 -2.5695
 8548TIP3   OH247134   1.189   1.695   3.072  0.1169  0.3229  0.1453
 8548TIP3    H147135   1.163   1.632   3.004 -0.6574  0.7537  0.0294
 8548TIP3    H247136   1.111   1.749   3.085  0.3178  0.3627  1.2492
 8549TIP3   OH247137   5.484   1.315  16.935 -0.3033 -0.1979 -0.4970
 8549TIP3    H147138   5.568   1.357  16.952 -0.4663 -0.7171  1.8306
 8549TIP3    H247139   5.507   1.229  16.899  0.1544 -0.2585 -0.0683
 8550TIP3   OH247140   3.199   1.092  13.397 -0.0281 -0.3480  0.0266
 8550TIP3    H147141   3.257   1.084  13.473  0.5090 -3.3180 -0.5864
 8550TIP3    H247142   3.246   1.150  13.337  0.2174  0.8182  1.2786
 8551TIP3   OH247143   1.804   3.397  16.633  0.3858 -0.2776 -0.5781
 8551TIP3    H147144   1.868   3.421  16.701 -0.1556  0.4974 -0.3279
 8551TIP3    H247145   1.850   3.333  16.579  1.2290 -0.0534 -0.1505
 8552TIP3   OH247146   6.618   1.321   5.938 -0.1971  0.0302  0.3764
 8552TIP3    H147147   6.702   1.360   5.914 -0.7665  0.5966 -0.7758
 8552TIP3    H247148   6.612   1.333   6.032  0.0982  1.8428  0.1947
 8553TIP3   OH247149   5.253   6.318  16.797 -0.1843  0.5414  0.0833
 8553TIP3    H147150   5.279   6.231  16.827 -0.6541  0.6835  0.9435
 8553TIP3    H247151   5.225   6.305  16.707 -0.2946 -0.2108  0.2203
 8554TIP3   OH247152   6.878   6.532   1.348  0.2591  0.1282  0.3021
 8554TIP3    H147153   6.870   6.447   1.390  3.4970 -0.7165 -0.5741
 8554TIP3    H247154   6.893   6.593   1.421  2.8166 -0.8546  0.6796
 8555TIP3   OH247155   0.393   2.583   0.959  0.2767 -1.1870  0.3077
 8555TIP3    H147156   0.482   2.578   0.924  0.5211 -0.2462  0.7484
 8555TIP3    H247157   0.393   2.663   1.012 -1.5677  0.3075 -1.7737
 8556TIP3   OH247158   6.467   5.560   4.772 -0.4367  0.5541  0.3984
 8556TIP3    H147159   6.450   5.480   4.722 -0.4439  1.0355 -0.3855
 8556TIP3    H247160   6.403   5.559   4.842  1.7371 -1.9022  2.5671
 8557TIP3   OH247161   1.067   2.122  13.320  1.0241 -0.6340  0.0429
 8557TIP3    H147162   1.023   2.038  13.314 -0.0210 -0.1951  1.1173
 8557TIP3    H247163   1.106   2.123  13.407 -0.3717  0.6145  0.7010
 8558TIP3   OH247164   3.795   3.687  11.366  0.2418 -0.3438 -0.1746
 8558TIP3    H147165   3.724   3.746  11.388  1.1214  0.2171  1.3746
 8558TIP3    H247166   3.805   3.631  11.443  1.0707 -0.8200 -0.6017
 8559TIP3   OH247167   0.159   5.800   1.826 -0.0653 -0.3139  1.0138
 8559TIP3    H147168   0.243   5.759   1.844  0.0810  0.2238  1.5834
 8559TIP3    H247169   0.123   5.751   1.752  1.4109  0.3769 -0.2150
 8560TIP3   OH247170   2.228   5.103   0.705  0.4140 -0.5611  0.2002
 8560TIP3    H147171   2.163   5.158   0.661  1.2759 -1.9663 -3.0949
 8560TIP3    H247172   2.303   5.161   0.719 -0.2110  0.1443  0.7425
 8561TIP3   OH247173   6.867   4.773   0.262  0.4159 -0.0847 -0.0997
 8561TIP3    H147174   6.880   4.691   0.310 -1.2999 -0.2467  0.1515
 8561TIP3    H247175   6.809   4.750   0.190  1.4637  0.5451 -1.1847
 8562TIP3   OH247176   6.573   4.872  13.333 -0.4360 -0.4233 -0.2708
 8562TIP3    H147177   6.615   4.808  13.276  1.7128  0.5184  0.1372
 8562TIP3    H247178   6.585   4.838  13.421 -0.0451  0.1231 -0.1108
 8563TIP3   OH247179   1.961   4.912  13.105 -0.2722 -0.0181  0.0982
 8563TIP3    H147180   1.908   4.991  13.093 -1.0457 -0.6382 -0.6470
 8563TIP3    H247181   2.050   4.945  13.121  0.1204  1.0211 -3.3910
 8564TIP3   OH247182   2.524   2.578   5.562 -0.2607 -0.1252  0.2530
 8564TIP3    H147183   2.585   2.511   5.593  0.3706 -0.1067 -0.8521
 8564TIP3    H247184   2.581   2.646   5.526 -0.9331 -0.0625 -0.7284
 8565TIP3   OH247185   6.211   3.808   6.337  0.4119 -0.2064  0.5013
 8565TIP3    H147186   6.243   3.745   6.401 -1.7427  1.3964  3.3636
 8565TIP3    H247187   6.268   3.884   6.347 -0.1955  0.2098  0.8691
 8566TIP3   OH247188   5.707   1.345  13.923 -0.0563  0.2837 -0.0340
 8566TIP3    H147189   5.644   1.414  13.903 -0.0227  0.6788  1.1655
 8566TIP3    H247190   5.654   1.276  13.964  0.1920  0.3564  0.4113
 8567TIP3   OH247191   2.426   2.992   5.451  0.3034  0.0991 -0.8630
 8567TIP3    H147192   2.399   3.016   5.539  3.5559 -0.1969  0.3222
 8567TIP3    H247193   2.461   3.072   5.413  1.3524 -0.3511 -0.8702
 8568TIP3   OH247194   6.324   6.757  14.938 -0.1201 -0.2638  0.3450
 8568TIP3    H147195   6.316   6.673  14.983 -1.0148 -0.1510  0.4354
 8568TIP3    H247196   6.247   6.760  14.881  2.7654 -2.0309 -4.1179
 8569TIP3   OH247197   4.023   4.034  10.209 -0.2210  0.3568 -0.7533
 8569TIP3    H147198   4.118   4.034  10.220 -0.2989 -0.1346  0.0095
 8569TIP3    H247199   3.990   4.003  10.293 -1.0168 -0.3187 -1.3007
 8570TIP3   OH247200   2.833   2.150   0.737  0.5479 -0.0938  0.0700
 8570TIP3    H147201   2.771   2.141   0.664  0.8503 -1.0132 -0.0912
 8570TIP3    H247202   2.796   2.218   0.792 -0.6268 -0.6494 -0.0103
 8571TIP3   OH247203   2.855   4.031  16.004 -0.4624  0.1445  0.3529
 8571TIP3    H147204   2.819   4.088  15.936 -0.4606  0.7218  0.8231
 8571TIP3    H247205   2.780   4.011  16.061 -0.7730 -1.4365 -0.5311
 8572TIP3   OH247206   5.685   2.031   1.517 -0.0206 -0.0401 -0.6748
 8572TIP3    H147207   5.595   2.064   1.507  0.3658  1.1860 -0.2369
 8572TIP3    H247208   5.690   2.006   1.609  0.1253  0.0076 -0.6706
 8573TIP3   OH247209   1.553   0.386   3.168 -0.0190  0.3155  0.6317
 8573TIP3    H147210   1.459   0.377   3.153  0.1172  0.1819 -0.1957
 8573TIP3    H247211   1.580   0.459   3.111  0.4346  0.1274  0.5977
 8574TIP3   OH247212   3.624   3.861   5.842  0.0927  0.0097  0.0090
 8574TIP3    H147213   3.574   3.798   5.893 -1.2388  1.3028  0.3716
 8574TIP3    H247214   3.702   3.879   5.895  0.0902 -0.7207  0.2647
 8575TIP3   OH247215   0.625   0.309   3.905 -0.5620  0.0106  0.4616
 8575TIP3    H147216   0.650   0.302   3.813  0.1795  1.2680  0.5427
 8575TIP3    H247217   0.537   0.271   3.910  0.5068 -2.7796 -0.2050
 8576TIP3   OH247218   2.289   2.726  12.983  0.3202  0.2888  0.3391
 8576TIP3    H147219   2.350   2.681  13.041 -1.7205 -1.6557  1.1492
 8576TIP3    H247220   2.292   2.675  12.902 -1.4035 -0.9425  0.9808
 8577TIP3   OH247221   0.305   6.649   4.287  0.3400  0.3017  0.7955
 8577TIP3    H147222   0.260   6.724   4.327  1.3354  0.5333  1.5119
 8577TIP3    H247223   0.386   6.686   4.252  0.2668 -0.2216  0.0702
 8578TIP3   OH247224   3.011   4.119  16.602  0.2374 -0.1636 -0.2591
 8578TIP3    H147225   3.022   4.213  16.618 -0.6235 -0.0647 -0.2118
 8578TIP3    H247226   3.100   4.084  16.604  0.8948  1.0782 -2.9201
 8579TIP3   OH247227   0.108   1.285   0.443 -0.2726 -0.1939  0.0232
 8579TIP3    H147228   0.192   1.286   0.398  0.1939  0.9526  0.8537
 8579TIP3    H247229   0.052   1.229   0.389  1.4626 -2.3575  0.3154
 8580TIP3   OH247230   5.355   3.160  12.150  0.1138  0.2041  0.3458
 8580TIP3    H147231   5.404   3.090  12.193 -0.2763 -0.5881 -0.4478
 8580TIP3    H247232   5.418   3.202  12.092  0.2067  0.1184  0.3840
 8581TIP3   OH247233   1.661   3.335  12.290 -0.3550  0.0089 -0.1507
 8581TIP3    H147234   1.572   3.368  12.297 -0.0888  0.9050 -0.7969
 8581TIP3    H247235   1.687   3.357  12.200  0.3135 -0.7577 -0.1548
 8582TIP3   OH247236   1.629   1.533   1.669 -0.3917 -0.2465 -0.5527
 8582TIP3    H147237   1.615   1.583   1.589  1.6440  0.5903 -0.4445
 8582TIP3    H247238   1.558   1.559   1.727  0.1484  1.9206 -0.7994
 8583TIP3   OH247239   2.190   4.186  14.963 -0.3831  0.2339  0.2476
 8583TIP3    H147240   2.233   4.241  15.029  0.2142  0.1575 -0.0621
 8583TIP3    H247241   2.109   4.232  14.942 -1.2253 -0.3855  1.9566
 8584TIP3   OH247242   4.218   0.489  14.996 -0.3839 -0.2715 -0.2459
 8584TIP3    H147243   4.149   0.491  15.062 -0.6509  0.5396 -0.5298
 8584TIP3    H247244   4.249   0.580  14.991 -1.1638 -0.0558 -2.0390
 8585TIP3   OH247245   6.552   6.633  14.793 -0.7501 -0.0012  0.0710
 8585TIP3    H147246   6.520   6.714  14.833  1.2844  1.3039 -0.7699
 8585TIP3    H247247   6.643   6.627  14.821 -0.7603 -1.8184 -0.1972
 8586TIP3   OH247248   0.079   1.066   5.322 -0.1507 -0.0388 -0.2050
 8586TIP3    H147249   0.111   1.122   5.252  0.3303  0.5636  0.4728
 8586TIP3    H247250   0.117   0.980   5.305  0.1396  0.1589 -0.5513
 8587TIP3   OH247251   3.290   6.045   5.718  0.6504 -0.1908  0.0417
 8587TIP3    H147252   3.242   6.111   5.768 -1.5392 -0.9409 -0.9324
 8587TIP3    H247253   3.370   6.089   5.691 -0.8828  2.2453 -0.8898
 8588TIP3   OH247254   6.130   2.704  11.568  0.0162  0.3443  0.8856
 8588TIP3    H147255   6.140   2.614  11.535 -0.6000  0.2192  1.0187
 8588TIP3    H247256   6.053   2.699  11.625  0.1263  0.9078  1.0842
 8589TIP3   OH247257   4.493   2.969   5.599  0.3722 -1.0108  0.1350
 8589TIP3    H147258   4.495   3.013   5.514  1.4853 -1.0545  0.1202
 8589TIP3    H247259   4.455   3.034   5.659  1.0473 -0.4005 -0.0880
 8590TIP3   OH247260   1.066   3.965  15.005  0.3752 -0.4718 -0.4387
 8590TIP3    H147261   1.057   3.917  14.923  0.0667 -3.7232  1.3220
 8590TIP3    H247262   0.978   3.999  15.023  0.0018 -1.3174 -0.6103
 8591TIP3   OH247263   3.662   0.310   4.451 -0.0868 -0.1852 -0.4278
 8591TIP3    H147264   3.747   0.348   4.471 -0.4989  1.1225 -1.0567
 8591TIP3    H247265   3.615   0.379   4.402 -1.7209 -0.6433  0.4117
 8592TIP3   OH247266   6.166   5.769  12.197  0.0826 -0.2017 -0.3645
 8592TIP3    H147267   6.148   5.862  12.181 -1.1533 -0.5814 -1.3643
 8592TIP3    H247268   6.235   5.747  12.134 -0.5137 -0.2465 -1.0120
 8593TIP3   OH247269   1.652   0.586   3.360  0.3730 -0.7409 -0.0764
 8593TIP3    H147270   1.679   0.549   3.444 -0.9655  0.3187  0.8691
 8593TIP3    H247271   1.599   0.516   3.320 -0.3871 -0.6493  0.7389
 8594TIP3   OH247272   1.659   3.502  11.231 -0.1348  0.3078 -0.4337
 8594TIP3    H147273   1.726   3.437  11.209 -1.0212 -0.6244 -0.4775
 8594TIP3    H247274   1.705   3.586  11.230  1.4885 -0.4723  1.4355
 8595TIP3   OH247275   1.463   3.481   6.305 -0.1874  0.2902  0.5432
 8595TIP3    H147276   1.424   3.411   6.253  0.7165 -0.6437  1.0739
 8595TIP3    H247277   1.392   3.510   6.363 -0.4351 -0.5666  0.6889
 8596TIP3   OH247278   0.934   6.088  13.115 -0.5920 -0.1766 -0.1650
 8596TIP3    H147279   1.019   6.105  13.075 -0.6911  0.4568 -0.1046
 8596TIP3    H247280   0.877   6.068  13.040 -0.8720  1.3968 -0.4087
 8597TIP3   OH247281   2.539   5.159   3.326 -0.4307  0.6271 -0.2945
 8597TIP3    H147282   2.488   5.111   3.260 -0.6154 -0.9903  0.9611
 8597TIP3    H247283   2.620   5.183   3.280 -0.2958 -0.9846 -0.9934
 8598TIP3   OH247284   5.450   5.974  15.691 -0.6544 -0.3718  0.4432
 8598TIP3    H147285   5.371   5.965  15.744 -0.9691  2.1326  0.5120
 8598TIP3    H247286   5.496   6.049  15.729  1.4817 -1.3657  0.0129
 8599TIP3   OH247287   0.928   3.952  11.871  0.1669  0.8494  0.3773
 8599TIP3    H147288   0.897   3.922  11.785  0.9902  2.9504 -0.7185
 8599TIP3    H247289   1.003   4.007  11.852 -1.3374  3.7872  2.1595
 8600TIP3   OH247290   5.371   2.759   1.626 -0.4660  0.0810 -0.2059
 8600TIP3    H147291   5.369   2.736   1.719 -1.0693 -0.5174 -0.3674
 8600TIP3    H247292   5.464   2.773   1.607 -0.2485 -0.6942  0.2671
 8601TIP3   OH247293   4.346   1.266  14.924 -0.3593  0.0294 -0.1318
 8601TIP3    H147294   4.258   1.255  14.959 -0.0581 -0.6914  0.4077
 8601TIP3    H247295   4.402   1.274  15.001 -0.2438  3.2745 -0.3965
 8602TIP3   OH247296   2.629   3.805   0.227  0.2801  0.2106 -0.2196
 8602TIP3    H147297   2.630   3.727   0.171  0.3677  0.1026 -0.0698
 8602TIP3    H247298   2.630   3.879   0.166 -2.3467  0.1264 -0.4523
 8603TIP3   OH247299   3.464   6.263   0.147  0.5737  0.3381  0.3800
 8603TIP3    H147300   3.539   6.304   0.190 -0.2930  1.4613  0.8562
 8603TIP3    H247301   3.429   6.330   0.089 -0.2128 -0.0909  0.3423
 8604TIP3   OH247302   3.828   4.889  11.706  0.4555  0.7437  0.1358
 8604TIP3    H147303   3.912   4.899  11.662  0.6312 -0.6672  0.1089
 8604TIP3    H247304   3.850   4.871  11.797  0.1751  0.5197  0.1600
 8605TIP3   OH247305   5.764   1.385  16.911 -0.2243  0.3190 -0.2913
 8605TIP3    H147306   5.835   1.347  16.859 -1.1068 -2.4373  0.3308
 8605TIP3    H247307   5.807   1.448  16.968  1.1344  1.4953 -2.4968
 8606TIP3   OH247308   6.050   0.615   4.821 -0.0012 -0.1145 -0.3791
 8606TIP3    H147309   6.031   0.615   4.728 -0.7576 -0.7309 -0.2371
 8606TIP3    H247310   6.002   0.539   4.855  2.3048 -1.4486  0.0949
 8607TIP3   OH247311   6.302   3.149  11.110  0.4139 -0.1293  0.0069
 8607TIP3    H147312   6.232   3.178  11.052  1.8633  2.0435 -0.7790
 8607TIP3    H247313   6.376   3.132  11.052  1.1174 -0.4984  0.9779
 8608TIP3   OH247314   6.536   4.291   3.250 -0.5258  0.3430  0.6961
 8608TIP3    H147315   6.596   4.249   3.188 -1.9618 -0.4722 -0.1885
 8608TIP3    H247316   6.556   4.384   3.243  1.2154  0.0369  1.0671
 8609TIP3   OH247317   1.243   3.509   6.468 -0.2592 -0.2992  0.9265
 8609TIP3    H147318   1.228   3.456   6.547  0.6445 -1.5764  0.2862
 8609TIP3    H247319   1.155   3.536   6.441 -0.8660 -2.1232  0.8863
 8610TIP3   OH247320   4.496   1.027  15.454  0.6356  0.1365 -0.0961
 8610TIP3    H147321   4.562   0.972  15.496  0.7517  0.0421 -0.4026
 8610TIP3    H247322   4.538   1.060  15.375  0.4564  0.4069 -0.0810
 8611TIP3   OH247323   6.709   5.628  16.236  0.9315 -0.4171  0.2790
 8611TIP3    H147324   6.645   5.655  16.171  0.5787 -0.5672  0.5589
 8611TIP3    H247325   6.793   5.654  16.200  0.6105  1.0495  0.5486
 8612TIP3   OH247326   4.778   3.076  15.035 -0.0412 -0.1763  0.1987
 8612TIP3    H147327   4.833   3.092  15.112  0.9595  1.3823 -0.7888
 8612TIP3    H247328   4.697   3.040  15.071  1.5297 -2.4612  1.7286
 8613TIP3   OH247329   1.402   0.305  15.866  0.2054  0.2723  0.2781
 8613TIP3    H147330   1.421   0.219  15.903 -0.3085 -0.1823 -0.4777
 8613TIP3    H247331   1.457   0.366  15.916  0.2289 -0.4320  1.1293
 8614TIP3   OH247332   6.459   0.676  14.826 -0.3994  0.1917 -0.5686
 8614TIP3    H147333   6.533   0.624  14.795  0.3089 -0.0765  1.4439
 8614TIP3    H247334   6.389   0.612  14.840 -1.4977  0.5645 -3.5017
 8615TIP3   OH247335   5.141   4.113   5.242  0.0279 -0.0175 -0.2200
 8615TIP3    H147336   5.138   4.064   5.159  1.2146  1.6163 -1.2816
 8615TIP3    H247337   5.063   4.169   5.238  0.5029  0.6286 -0.6256
 8616TIP3   OH247338   6.707   6.313  10.531 -0.2050 -0.4378  1.0981
 8616TIP3    H147339   6.675   6.261  10.604 -0.1204  1.2441  2.3715
 8616TIP3    H247340   6.764   6.253  10.483  0.0181 -1.4815  2.5978
 8617TIP3   OH247341   6.822   3.514   0.089 -0.1425  0.1481  0.2660
 8617TIP3    H147342   6.888   3.564   0.041  0.9057 -1.0569  0.3770
 8617TIP3    H247343   6.803   3.439   0.033 -1.0297  0.2029  0.4809
 8618TIP3   OH247344   6.458   3.866  12.481 -0.0173  0.0535 -0.1821
 8618TIP3    H147345   6.487   3.936  12.539 -1.0551 -0.9089  1.5976
 8618TIP3    H247346   6.493   3.786  12.521 -2.3606 -0.8273  0.2780
 8619TIP3   OH247347   3.863   0.449   5.745  0.2084 -0.4407 -0.0432
 8619TIP3    H147348   3.783   0.436   5.693 -0.6607 -2.0370  1.5639
 8619TIP3    H247349   3.912   0.517   5.697 -1.9905  0.4508 -1.2027
 8620TIP3   OH247350   4.644   1.403  16.987 -0.3109  0.4730  0.0687
 8620TIP3    H147351   4.552   1.413  16.965 -0.0343  1.4692 -0.7258
 8620TIP3    H247352   4.660   1.309  16.983 -1.5747  0.1657  1.4791
 8621TIP3   OH247353   1.947   6.546   5.258  0.4226 -0.0620 -0.1385
 8621TIP3    H147354   1.875   6.489   5.284  0.4962 -0.3570 -0.5694
 8621TIP3    H247355   2.026   6.495   5.274  0.5957  0.5406  1.0643
 8622TIP3   OH247356   4.230   5.266   3.531 -0.7281  0.6384  0.2941
 8622TIP3    H147357   4.256   5.231   3.616 -0.5490 -0.1022 -0.0609
 8622TIP3    H247358   4.195   5.354   3.550 -0.3189  0.6311  1.0753
 8623TIP3   OH247359   6.059   1.514   1.988  0.5583 -0.0133  0.0033
 8623TIP3    H147360   6.012   1.563   2.056  0.6143 -0.3840  0.3177
 8623TIP3    H247361   6.075   1.577   1.919 -2.6180 -0.3867 -1.2519
 8624TIP3   OH247362   2.443   5.275   0.769 -0.2456 -0.1160  0.1556
 8624TIP3    H147363   2.494   5.199   0.797 -1.3116 -0.7749  0.3535
 8624TIP3    H247364   2.496   5.350   0.795  0.0030 -0.7529  1.5612
 8625TIP3   OH247365   1.863   6.059   3.768 -0.5754  0.2740  0.2642
 8625TIP3    H147366   1.904   6.004   3.702 -0.2596  1.2404 -0.3771
 8625TIP3    H247367   1.844   6.141   3.722  2.6296  2.2587  2.0500
 8626TIP3   OH247368   0.287   2.758   2.737 -0.2398  0.0536  0.1632
 8626TIP3    H147369   0.265   2.817   2.810  0.7165  0.8932 -0.2158
 8626TIP3    H247370   0.374   2.785   2.709  0.5764 -2.0508  0.4833
 8627TIP3   OH247371   5.206   3.320   3.557  0.5313 -0.0780 -0.2568
 8627TIP3    H147372   5.147   3.246   3.573  0.6608  0.0045  0.6383
 8627TIP3    H247373   5.253   3.332   3.640 -0.0532  1.5132 -0.1280
 8628TIP3   OH247374   3.122   6.851  14.924  0.3558 -0.3754 -0.0874
 8628TIP3    H147375   3.135   6.882  15.013  0.9740 -2.2708  0.5284
 8628TIP3    H247376   3.200   6.800  14.904 -0.1969 -0.7678 -1.3763
 8629TIP3   OH247377   4.050   5.976   1.090 -0.4177 -1.2212  0.6165
 8629TIP3    H147378   4.046   6.066   1.057  1.2674 -1.6981 -1.0343
 8629TIP3    H247379   4.077   5.985   1.181  0.6943 -0.0768  0.1999
 8630TIP3   OH247380   3.927   2.307   1.843  0.4540  0.5016  0.1640
 8630TIP3    H147381   3.882   2.228   1.812  0.0509  0.3572  1.0757
 8630TIP3    H247382   3.911   2.373   1.776  1.4472 -0.3896 -1.0093
 8631TIP3   OH247383   5.029   3.238   5.608  0.3129 -0.0545 -0.5957
 8631TIP3    H147384   4.982   3.205   5.685  1.4561 -0.4241 -0.0406
 8631TIP3    H247385   5.027   3.333   5.617  0.8730 -0.1118  0.1558
 8632TIP3   OH247386   0.928   6.652   3.011  0.1907 -0.4114  0.4102
 8632TIP3    H147387   0.993   6.581   3.004  0.6483  0.0766 -0.4920
 8632TIP3    H247388   0.968   6.715   3.071  0.2656 -0.4142  0.3634
 8633TIP3   OH247389   6.087   2.970   5.782  0.7268 -0.3574  0.3135
 8633TIP3    H147390   6.156   2.949   5.718 -0.0556 -0.5111 -0.4917
 8633TIP3    H247391   6.009   2.925   5.749 -0.4089  1.8140 -0.1646
 8634TIP3   OH247392   0.646   2.652  14.312  0.0957 -0.0377 -0.0000
 8634TIP3    H147393   0.602   2.718  14.258 -0.7770  0.1733  0.9375
 8634TIP3    H247394   0.692   2.702  14.379  1.3949 -0.2868 -0.6722
 8635TIP3   OH247395   1.404   5.498   3.086  0.0399  0.7853 -0.4660
 8635TIP3    H147396   1.492   5.466   3.063 -0.1634  0.4996 -0.8576
 8635TIP3    H247397   1.384   5.454   3.168 -0.1843 -0.0059 -0.9383
 8636TIP3   OH247398   1.205   0.358   3.980 -0.3393  0.0113 -0.7846
 8636TIP3    H147399   1.153   0.412   3.920 -0.5197 -0.6792 -1.2514
 8636TIP3    H247400   1.191   0.399   4.066  0.0106  1.0652 -1.2152
 8637TIP3   OH247401   2.847   1.534   2.180 -0.2353 -0.4631 -0.2667
 8637TIP3    H147402   2.779   1.582   2.132 -0.7733 -0.2190  0.7140
 8637TIP3    H247403   2.801   1.457   2.215 -0.2988  0.2922  1.3721
 8638TIP3   OH247404   4.633   3.412  14.107  0.1201 -0.5388  0.0561
 8638TIP3    H147405   4.668   3.440  14.191 -2.0293 -0.0891  0.8642
 8638TIP3    H247406   4.628   3.317  14.113 -1.5703 -0.4112  1.1301
 8639TIP3   OH247407   4.714   2.891  15.879  0.7796 -0.7725  0.1863
 8639TIP3    H147408   4.790   2.884  15.821  0.7756  1.9994 -0.3253
 8639TIP3    H247409   4.749   2.874  15.966  1.9882  0.2096 -0.0713
 8640TIP3   OH247410   1.890   5.217  10.904  0.7160 -0.5197  0.0394
 8640TIP3    H147411   1.966   5.259  10.864 -0.3947 -0.2134 -1.8530
 8640TIP3    H247412   1.815   5.263  10.866 -0.4483 -1.2542  1.3552
 8641TIP3   OH247413   6.176   4.871  12.599  0.4491  0.0417 -0.3592
 8641TIP3    H147414   6.213   4.832  12.520 -0.0164 -0.1513 -0.4822
 8641TIP3    H247415   6.145   4.957  12.572 -0.2283 -0.2514 -0.5184
 8642TIP3   OH247416   2.940   0.487   4.745  0.4992  0.3220  0.4709
 8642TIP3    H147417   2.904   0.398   4.743 -0.4755  0.7125 -1.0450
 8642TIP3    H247418   2.930   0.515   4.836 -1.9763 -0.0539  0.3737
 8643TIP3   OH247419   0.387   2.897   3.173 -0.4379 -0.8746  0.4759
 8643TIP3    H147420   0.412   2.840   3.101  1.0613 -0.1336  0.3738
 8643TIP3    H247421   0.308   2.942   3.142 -0.2408 -1.1148 -0.3974
 8644TIP3   OH247422   2.667   1.605  12.439  0.2703 -0.1372 -0.1765
 8644TIP3    H147423   2.619   1.644  12.365  0.1438 -1.0166 -0.5635
 8644TIP3    H247424   2.758   1.604  12.410  0.4557  0.9621  0.3150
 8645TIP3   OH247425   6.708   0.411   1.929  0.0338  0.0680 -0.1880
 8645TIP3    H147426   6.718   0.340   1.993 -0.5451 -0.3558 -0.5502
 8645TIP3    H247427   6.792   0.457   1.931  0.2490 -0.3271  0.4088
 8646TIP3   OH247428   2.694   2.092   4.291 -0.2322  0.0677 -0.2847
 8646TIP3    H147429   2.721   2.122   4.204 -0.5189 -0.7558 -0.6687
 8646TIP3    H247430   2.749   2.141   4.352  0.0271  0.5947 -0.9320
 8647TIP3   OH247431   0.204   5.873  12.775 -0.1086 -0.2386  0.1906
 8647TIP3    H147432   0.121   5.903  12.811  1.0056  1.0141  1.8493
 8647TIP3    H247433   0.211   5.917  12.690 -0.5324  0.7224  0.6396
 8648TIP3   OH247434   6.861   2.922  12.238  0.1697  0.2583 -0.0561
 8648TIP3    H147435   6.913   2.853  12.196  2.1898  1.4060  0.4029
 8648TIP3    H247436   6.893   3.003  12.199 -0.7209  1.0767  0.8680
 8649TIP3   OH247437   0.427   0.348  11.845 -0.1527  0.6858  0.7051
 8649TIP3    H147438   0.493   0.285  11.875  0.3523  0.4465 -0.8268
 8649TIP3    H247439   0.381   0.303  11.774 -0.6964  1.5634  0.4793
 8650TIP3   OH247440   2.714   2.692  14.978 -0.6088  0.1710 -0.0922
 8650TIP3    H147441   2.633   2.691  14.927 -0.3504 -0.2866 -0.4995
 8650TIP3    H247442   2.748   2.603  14.970  1.1440  0.9346 -1.8677
 8651TIP3   OH247443   5.602   1.651  16.900 -0.2151  0.1365  0.1002
 8651TIP3    H147444   5.655   1.606  16.966 -0.0208  1.5273  0.9303
 8651TIP3    H247445   5.664   1.675  16.831  0.1731  1.3097  0.8294
 8652TIP3   OH247446   4.010   5.284   2.329  0.2101 -0.1561 -0.1353
 8652TIP3    H147447   3.962   5.341   2.269 -0.5889 -1.8311 -1.1570
 8652TIP3    H247448   4.102   5.296   2.304 -0.0904 -0.6898 -1.6512
 8653TIP3   OH247449   4.545   2.516  14.392  0.2666 -0.1894 -0.2049
 8653TIP3    H147450   4.631   2.535  14.353  0.9051 -3.0680 -0.4168
 8653TIP3    H247451   4.493   2.482  14.319 -0.6110  0.2127  0.2201
 8654TIP3   OH247452   6.535   5.588   3.350  0.2578 -0.6004  0.4573
 8654TIP3    H147453   6.463   5.609   3.291 -0.9187  0.4847  2.1662
 8654TIP3    H247454   6.514   5.635   3.431  2.0362 -1.6160  1.5845
 8655TIP3   OH247455   5.731   5.051   0.982 -0.1553 -0.6544 -0.6618
 8655TIP3    H147456   5.743   5.060   1.077 -0.8376  1.9674 -0.7611
 8655TIP3    H247457   5.637   5.036   0.971 -0.4412  1.1350 -0.9720
 8656TIP3   OH247458   3.708   4.872   1.398 -0.2795  0.0358  0.1653
 8656TIP3    H147459   3.738   4.945   1.453 -2.7718  2.3910 -1.3722
 8656TIP3    H247460   3.753   4.886   1.314 -0.4628 -0.4662 -0.0167
 8657TIP3   OH247461   6.258   5.037   2.278 -0.4461  0.0224  0.0648
 8657TIP3    H147462   6.305   4.956   2.297  1.0211  0.9000  0.3575
 8657TIP3    H247463   6.327   5.100   2.255 -1.3881  1.6106  1.3894
 8658TIP3   OH247464   2.930   6.850  14.200  0.7695 -0.2020 -0.4412
 8658TIP3    H147465   2.919   6.757  14.177 -2.3301  0.3899 -1.8589
 8658TIP3    H247466   2.900   6.856  14.290 -1.2362 -0.2766 -1.0701
 8659TIP3   OH247467   4.196   3.640   3.673 -0.6028  0.1250 -0.2943
 8659TIP3    H147468   4.240   3.629   3.589  0.4129 -1.3162  0.3760
 8659TIP3    H247469   4.110   3.599   3.661 -0.9057  0.9406 -0.9538
 8660TIP3   OH247470   2.829   2.647   0.441  0.0260 -0.2791  0.3387
 8660TIP3    H147471   2.813   2.631   0.534  0.4413 -0.6461  0.3490
 8660TIP3    H247472   2.889   2.577   0.414 -0.5007 -0.4831 -0.3277
 8661TIP3   OH247473   5.687   2.641   1.684 -0.9181 -0.2836 -0.0049
 8661TIP3    H147474   5.706   2.591   1.605 -1.1317 -0.8424  0.2995
 8661TIP3    H247475   5.773   2.655   1.724 -0.9013 -0.7642  0.1283
 8662TIP3   OH247476   4.663   0.885  16.711  0.2267 -0.4251 -0.0645
 8662TIP3    H147477   4.636   0.893  16.619  0.4193  1.1414 -0.0014
 8662TIP3    H247478   4.759   0.881  16.707  0.2231 -0.6517  0.0563
 8663TIP3   OH247479   4.796   2.601  14.351  0.0253 -0.2284 -0.4662
 8663TIP3    H147480   4.847   2.575  14.427  2.6568 -2.2744 -2.6874
 8663TIP3    H247481   4.777   2.694  14.364  0.1052 -0.5764  2.7201
 8664TIP3   OH247482   4.700   5.244  16.389 -0.3535 -0.3619  0.4722
 8664TIP3    H147483   4.616   5.230  16.346 -0.4810  0.9955  0.2436
 8664TIP3    H247484   4.715   5.339  16.384  0.3663 -0.3545  2.0427
 8665TIP3   OH247485   1.957   1.821  15.051  0.0427  0.7172 -0.5412
 8665TIP3    H147486   1.907   1.840  15.130 -1.7902  1.4422 -1.8084
 8665TIP3    H247487   2.037   1.873  15.060  0.2787  0.1198  1.1878
 8666TIP3   OH247488   6.778   0.468  14.399 -0.0771 -0.3269 -0.2147
 8666TIP3    H147489   6.785   0.520  14.319 -0.0969 -0.9106 -0.6048
 8666TIP3    H247490   6.686   0.476  14.424  0.4505  2.0821  1.3056
 8667TIP3   OH247491   3.552   4.165  12.784 -0.4416  0.6087 -0.7996
 8667TIP3    H147492   3.518   4.172  12.873 -0.9987  1.4387 -1.0695
 8667TIP3    H247493   3.593   4.250  12.767  0.1286  0.2741 -1.1556
 8668TIP3   OH247494   3.364   5.780  12.292 -0.2424  0.1080  0.0850
 8668TIP3    H147495   3.319   5.795  12.376  0.2837 -0.8471  0.5515
 8668TIP3    H247496   3.385   5.868  12.261 -1.9917  0.5787  0.0771
 8669TIP3   OH247497   1.530   2.115  15.486  0.2235 -0.1255  0.3258
 8669TIP3    H147498   1.483   2.132  15.405  0.3119  1.4632  0.5925
 8669TIP3    H247499   1.462   2.091  15.549 -0.0441  0.4992  0.2740
 8670TIP3   OH247500   1.847   2.132  15.269 -0.4280  0.1064  0.7654
 8670TIP3    H147501   1.838   2.038  15.281 -0.9158  0.3005  2.1659
 8670TIP3    H247502   1.770   2.157  15.217  0.0664 -0.3490 -0.2066
 8671TIP3   OH247503   2.157   3.831  15.839 -0.2256 -0.0020  0.3230
 8671TIP3    H147504   2.151   3.839  15.744 -0.0004  1.0114  0.3798
 8671TIP3    H247505   2.151   3.921  15.871 -0.0056 -0.3055  1.2510
 8672TIP3   OH247506   3.403   5.944  15.039  0.2099 -0.2653 -0.3112
 8672TIP3    H147507   3.338   6.006  15.006 -0.3625 -1.3271 -1.2164
 8672TIP3    H247508   3.456   5.922  14.962  0.7095 -0.5594  0.1087
 8673TIP3   OH247509   0.225   1.336   2.819  0.4543  0.5001 -0.5511
 8673TIP3    H147510   0.224   1.323   2.724  2.3747  0.2254 -0.5755
 8673TIP3    H247511   0.204   1.428   2.831  0.9876  0.7304 -1.3071
 8674TIP3   OH247512   5.957   4.625  11.473 -0.2041  0.1384  0.4950
 8674TIP3    H147513   5.986   4.558  11.535 -0.3845 -0.7999 -0.3948
 8674TIP3    H247514   5.976   4.587  11.387 -1.8782  0.4905 -0.0621
 8675TIP3   OH247515   1.762   4.449  13.190 -0.2040  0.6691 -0.0574
 8675TIP3    H147516   1.769   4.403  13.107 -0.0263  2.7163 -1.2386
 8675TIP3    H247517   1.827   4.518  13.185 -1.2748  1.8251  1.1176
 8676TIP3   OH247518   0.975   0.156  13.079 -0.1656 -0.3704  0.0892
 8676TIP3    H147519   1.064   0.153  13.044 -0.0395 -1.9297  0.4541
 8676TIP3    H247520   0.929   0.217  13.021  1.0203  0.1336 -0.3671
 8677TIP3   OH247521   6.866   1.845  15.193  0.0914  0.0002 -0.2324
 8677TIP3    H147522   6.923   1.775  15.225 -1.4395 -0.9386  0.5573
 8677TIP3    H247523   6.876   1.842  15.098  0.3116 -1.0600 -0.1834
 8678TIP3   OH247524   2.720   1.516  15.769  0.7835  0.0079 -0.2522
 8678TIP3    H147525   2.656   1.556  15.827  0.8990  3.9609 -2.4812
 8678TIP3    H247526   2.668   1.477  15.699  0.7028  0.4528 -0.4480
 8679TIP3   OH247527   6.814   5.095   2.155 -0.3510 -0.3586  0.1244
 8679TIP3    H147528   6.772   5.019   2.198 -0.2974 -0.5456 -0.1514
 8679TIP3    H247529   6.812   5.073   2.062  0.3987 -0.3863  0.1129
 8680TIP3   OH247530   2.226   5.816   3.676  0.3737 -0.0607  0.6066
 8680TIP3    H147531   2.161   5.857   3.618 -0.3639 -2.0992 -0.1169
 8680TIP3    H247532   2.203   5.848   3.764 -1.0435 -0.0277  0.2486
 8681TIP3   OH247533   2.305   6.815  14.996 -0.2129 -0.2811  0.0879
 8681TIP3    H147534   2.383   6.834  15.048 -0.0682  0.6105 -0.4313
 8681TIP3    H247535   2.234   6.859  15.041 -0.4438 -1.1472  0.5966
 8682TIP3   OH247536   4.095   0.590   5.618 -0.0126  0.0812  0.2033
 8682TIP3    H147537   4.157   0.550   5.679 -0.0407  0.2593  0.3483
 8682TIP3    H247538   4.102   0.684   5.635  1.0301  0.2586 -1.0358
 8683TIP3   OH247539   3.641   1.624   3.252  0.3009  0.0089 -0.4484
 8683TIP3    H147540   3.663   1.531   3.250 -0.6270 -0.2318 -0.1080
 8683TIP3    H247541   3.724   1.668   3.271  1.4478 -0.4736 -3.5752
 8684TIP3   OH247542   2.003   2.398  13.660 -0.5471  0.5655  0.2191
 8684TIP3    H147543   2.001   2.391  13.565  1.7224  1.0733  0.0746
 8684TIP3    H247544   1.916   2.369  13.689 -1.1783  0.1460 -1.9695
 8685TIP3   OH247545   6.273   0.245  10.908  0.1144  0.1006 -0.0307
 8685TIP3    H147546   6.237   0.275  10.825 -0.6447  1.5235  0.7821
 8685TIP3    H247547   6.212   0.178  10.939  0.6152 -0.7220 -0.7927
 8686TIP3   OH247548   2.251   1.771   4.272  0.1851  0.4795  0.0183
 8686TIP3    H147549   2.220   1.751   4.361 -0.3657  2.5315  0.3171
 8686TIP3    H247550   2.204   1.849   4.246  1.4703  0.8079 -1.5015
 8687TIP3   OH247551   3.257   2.073   0.879 -0.8043  0.2775  0.1339
 8687TIP3    H147552   3.341   2.043   0.844 -0.2415  0.3767  1.3593
 8687TIP3    H247553   3.205   1.993   0.887 -0.8067  0.2023 -0.5217
 8688TIP3   OH247554   6.558   0.550  13.735 -1.0591  0.2574 -0.0342
 8688TIP3    H147555   6.594   0.521  13.820  0.3037  2.7081  0.3178
 8688TIP3    H247556   6.516   0.633  13.754 -0.4770  0.9986 -1.8105
 8689TIP3   OH247557   3.683   4.351   5.120  0.3016 -0.3387 -0.1775
 8689TIP3    H147558   3.630   4.272   5.105 -0.7626  0.6721 -2.0911
 8689TIP3    H247559   3.646   4.416   5.062  0.5241  1.9235  2.0579
 8690TIP3   OH247560   1.298   2.591   4.662 -0.5008 -0.1024 -0.0948
 8690TIP3    H147561   1.374   2.642   4.633 -1.3345  1.1870 -0.0965
 8690TIP3    H247562   1.333   2.503   4.679  0.9715  0.4462 -0.1452
 8691TIP3   OH247563   5.263   2.293   1.196  0.0998  0.2546  0.3547
 8691TIP3    H147564   5.188   2.345   1.222 -0.0245  0.0962  0.3173
 8691TIP3    H247565   5.238   2.254   1.112 -0.0344 -0.3161  0.6557
 8692TIP3   OH247566   1.334   3.691  16.307  0.0092 -0.1124 -0.0601
 8692TIP3    H147567   1.382   3.759  16.355  0.8999 -1.9575  1.8496
 8692TIP3    H247568   1.347   3.713  16.215  0.6688  2.0117  0.4786
 8693TIP3   OH247569   4.694   6.847   3.581 -0.2833 -0.0417 -0.0526
 8693TIP3    H147570   4.655   6.766   3.612 -1.9999  0.7111 -0.1343
 8693TIP3    H247571   4.640   6.873   3.506  1.3506  0.2494 -1.2041
 8694TIP3   OH247572   4.918   4.819  12.803 -0.1426 -0.0192 -0.2477
 8694TIP3    H147573   4.918   4.883  12.732 -1.5730 -0.4468 -0.6580
 8694TIP3    H247574   4.920   4.734  12.759  0.7152 -0.2865  0.2747
 8695TIP3   OH247575   6.518   6.443   0.337 -0.0972 -0.1123 -0.0853
 8695TIP3    H147576   6.523   6.354   0.373  1.6735  0.2782  0.7558
 8695TIP3    H247577   6.487   6.496   0.410  2.3433  0.4919  0.5907
 8696TIP3   OH247578   1.334   4.058   3.867  0.6894 -0.2141  0.0017
 8696TIP3    H147579   1.334   4.117   3.943  0.9449 -1.4952  1.0491
 8696TIP3    H247580   1.379   3.980   3.899  0.0661 -1.1004 -1.2342
 8697TIP3   OH247581   3.222   1.801   2.146 -0.2880  0.4605  0.1859
 8697TIP3    H147582   3.293   1.847   2.191  1.0367  0.4160 -1.6966
 8697TIP3    H247583   3.157   1.868   2.129  0.3855  1.0547 -0.1141
 8698TIP3   OH247584   5.803   0.059  15.190  0.0101  0.1212  0.4042
 8698TIP3    H147585   5.736   0.062  15.120  3.1026 -0.7819 -2.8990
 8698TIP3    H247586   5.825   0.151  15.205 -0.4864  0.3235 -0.0593
 8699TIP3   OH247587   5.719   1.780  15.092  0.0220  0.0133  0.1857
 8699TIP3    H147588   5.730   1.862  15.141 -0.4000 -0.2294  0.6981
 8699TIP3    H247589   5.720   1.806  15.000  1.5290  0.4075  0.2750
 8700TIP3   OH247590   1.014   6.207   0.478 -0.3146  0.1243  0.3893
 8700TIP3    H147591   0.972   6.288   0.448 -0.3655 -0.2757 -0.6532
 8700TIP3    H247592   1.017   6.215   0.573 -0.1713  1.4259  0.2872
 8701TIP3   OH247593   6.397   4.546  10.856  0.1883  0.1534  0.8352
 8701TIP3    H147594   6.409   4.488  10.780 -1.9375  1.5343 -0.6741
 8701TIP3    H247595   6.462   4.615  10.845  0.9749 -0.5200  1.1957
 8702TIP3   OH247596   6.402   4.013   2.408 -0.5704  0.3202  0.2232
 8702TIP3    H147597   6.484   3.992   2.364  0.1506  0.3218  1.5057
 8702TIP3    H247598   6.348   3.934   2.398 -0.8112  0.6509 -1.4283
 8703TIP3   OH247599   0.719   3.907   1.285  0.3457  0.7907 -0.1788
 8703TIP3    H147600   0.745   3.945   1.369 -1.0178  0.8268  0.2492
 8703TIP3    H247601   0.696   3.816   1.306 -0.9454  1.0615 -0.2967
 8704TIP3   OH247602   6.562   4.166  11.439  0.6914 -0.6968  0.0902
 8704TIP3    H147603   6.527   4.235  11.382  1.4571 -0.0203  0.4322
 8704TIP3    H247604   6.619   4.114  11.382 -0.8308 -1.8387 -0.4859
 8705TIP3   OH247605   6.378   2.072   0.306 -0.0510 -0.5923 -0.5717
 8705TIP3    H147606   6.404   2.163   0.297 -1.8126 -0.0846 -0.8437
 8705TIP3    H247607   6.412   2.030   0.227  1.3133 -0.3375 -0.1468
 8706TIP3   OH247608   6.178   0.680   2.813  0.5590 -0.4487  0.5445
 8706TIP3    H147609   6.128   0.746   2.765  1.6488  0.3574  0.4798
 8706TIP3    H247610   6.135   0.675   2.899 -0.3828 -0.6984  0.0786
 8707TIP3   OH247611   0.765   5.682   3.082 -0.1254 -0.5385  0.2204
 8707TIP3    H147612   0.837   5.745   3.085 -1.0364  0.5920 -0.5810
 8707TIP3    H247613   0.704   5.713   3.149  0.2793 -1.7056  1.1568
 8708TIP3   OH247614   2.578   1.818   1.774  0.2644 -0.4604 -0.1406
 8708TIP3    H147615   2.625   1.899   1.795 -0.2424 -0.3162  0.4444
 8708TIP3    H247616   2.631   1.749   1.812  0.3134 -0.3468 -0.0030
 8709TIP3   OH247617   0.378   0.137   4.971 -0.9599 -0.0711 -0.4929
 8709TIP3    H147618   0.299   0.190   4.978 -0.1645  1.4009 -1.9253
 8709TIP3    H247619   0.445   0.188   5.017 -0.4940 -0.5353 -0.6518
 8710TIP3   OH247620   4.925   0.184   1.258  0.8846 -0.6729  0.0318
 8710TIP3    H147621   4.949   0.168   1.166  1.4228 -0.1712  0.0787
 8710TIP3    H247622   4.942   0.277   1.271 -1.7367 -0.1220 -0.1076
 8711TIP3   OH247623   3.878   4.184  16.245  0.1850  0.0647  0.2445
 8711TIP3    H147624   3.912   4.203  16.158  0.4437 -0.7004  0.1709
 8711TIP3    H247625   3.917   4.099  16.268 -1.8039 -0.9614  0.0736
 8712TIP3   OH247626   2.202   2.611   4.669  0.3901 -0.5016  0.1471
 8712TIP3    H147627   2.267   2.676   4.642 -0.7300  0.5937 -0.0155
 8712TIP3    H247628   2.117   2.652   4.647 -0.4804 -0.7022  2.8249
 8713TIP3   OH247629   6.164   2.577  14.368 -0.2287  0.5272 -0.5580
 8713TIP3    H147630   6.109   2.561  14.445  0.2644 -0.9271 -0.4795
 8713TIP3    H247631   6.202   2.663  14.383 -2.3909  1.5556 -0.5739
 8714TIP3   OH247632   1.090   3.576   4.780  1.1422  0.1125 -0.1651
 8714TIP3    H147633   1.022   3.534   4.833  1.6110  1.4003  1.5443
 8714TIP3    H247634   1.166   3.518   4.788  0.8308 -0.3575 -0.5289
 8715TIP3   OH247635   5.661   5.393  14.020  0.3069 -0.7062 -0.5765
 8715TIP3    H147636   5.615   5.349  14.092 -1.1060 -0.9186 -1.5704
 8715TIP3    H247637   5.687   5.477  14.057  0.5856 -1.2381  0.5094
 8716TIP3   OH247638   6.535   0.321  15.388  0.3956 -0.3476 -0.3407
 8716TIP3    H147639   6.559   0.370  15.309  2.3558 -0.0444  0.3752
 8716TIP3    H247640   6.555   0.230  15.366  0.4342 -0.3295 -0.3828
 8717TIP3   OH247641   2.485   5.103   5.109  0.3399 -0.1269  0.1807
 8717TIP3    H147642   2.564   5.051   5.091 -0.8440 -1.3187 -1.8642
 8717TIP3    H247643   2.445   5.060   5.185  2.1700  1.2048  2.0361
 8718TIP3   OH247644   1.323   5.444   0.224 -0.2682 -0.3173 -0.1599
 8718TIP3    H147645   1.230   5.466   0.225 -0.2049  0.1014 -1.4028
 8718TIP3    H247646   1.360   5.501   0.156  0.5674 -1.7320 -0.9311
 8719TIP3   OH247647   1.519   4.637   1.456 -0.2829  0.1696  0.1788
 8719TIP3    H147648   1.520   4.605   1.546 -3.1650  2.6418  1.2744
 8719TIP3    H247649   1.521   4.733   1.465 -1.3394  0.4966 -2.2931
 8720TIP3   OH247650   1.232   3.374  12.508  0.0147  0.2183 -0.0939
 8720TIP3    H147651   1.276   3.391  12.425  0.5038 -1.8409 -0.3098
 8720TIP3    H247652   1.146   3.342  12.483  1.1719 -3.3219 -0.0286
 8721TIP3   OH247653   3.732   0.971  12.459 -0.3873 -0.2631 -0.0290
 8721TIP3    H147654   3.686   1.027  12.522 -0.3821  0.3414 -0.5486
 8721TIP3    H247655   3.734   1.023  12.378  0.2524 -0.7286 -0.3204
 8722TIP3   OH247656   5.689   6.504   1.276  0.1262 -0.5993  0.2530
 8722TIP3    H147657   5.661   6.438   1.213 -0.5204  0.2839 -0.4088
 8722TIP3    H247658   5.765   6.545   1.236 -0.5775  0.2970 -0.2052
 8723TIP3   OH247659   3.774   0.476   1.446 -0.4725  0.2208 -0.6714
 8723TIP3    H147660   3.729   0.428   1.377  0.1037 -0.5513 -0.5191
 8723TIP3    H247661   3.809   0.408   1.504 -0.8377  0.8469  0.3152
 8724TIP3   OH247662   0.126   2.080   2.619 -0.6774  0.5113  0.4335
 8724TIP3    H147663   0.171   2.163   2.604 -0.0247  0.0933  0.0720
 8724TIP3    H247664   0.047   2.086   2.565  0.2684  0.1699 -1.0419
 8725TIP3   OH247665   1.363   3.377   1.066  0.3208  0.1177 -0.1905
 8725TIP3    H147666   1.357   3.461   1.112  1.0126  0.6372 -0.9973
 8725TIP3    H247667   1.399   3.400   0.979 -1.0258 -0.8109 -1.0274
 8726TIP3   OH247668   6.812   4.475  10.869  0.2949 -0.0206  0.3760
 8726TIP3    H147669   6.820   4.569  10.885 -0.1433  0.0394  0.2588
 8726TIP3    H247670   6.876   4.435  10.928  0.2203  0.3319  0.7013
 8727TIP3   OH247671   0.725   5.311  14.719  0.5976  0.0777  0.2914
 8727TIP3    H147672   0.739   5.237  14.659 -1.1096  0.2002 -0.3210
 8727TIP3    H247673   0.727   5.388  14.662 -0.2354  0.2639  0.4922
 8728TIP3   OH247674   5.088   3.388  15.872  0.1512  0.2445 -0.0475
 8728TIP3    H147675   5.020   3.377  15.939  0.6719  0.3740  0.5099
 8728TIP3    H247676   5.078   3.313  15.814  1.8390 -1.7497  2.0624
 8729TIP3   OH247677   0.295   4.060  11.055 -0.0717  0.4180 -0.0526
 8729TIP3    H147678   0.291   4.080  10.961  1.6832  2.1850  0.1782
 8729TIP3    H247679   0.322   3.968  11.058 -1.4781 -0.0702 -1.2460
 8730TIP3   OH247680   4.146   0.155  13.573  0.3346 -0.1232 -0.4807
 8730TIP3    H147681   4.058   0.118  13.579  0.7405 -0.9574  0.6422
 8730TIP3    H247682   4.143   0.234  13.627 -0.3496  1.1832 -2.3462
 8731TIP3   OH247683   1.773   6.190   1.320  0.2208  0.4514 -0.5967
 8731TIP3    H147684   1.681   6.200   1.298 -0.3929 -1.0189  1.0432
 8731TIP3    H247685   1.798   6.106   1.281  0.7282  0.5958 -0.5970
 8732TIP3   OH247686   5.501   5.216   5.814 -0.2303 -0.5017 -0.1217
 8732TIP3    H147687   5.465   5.249   5.896  0.0902 -1.3598  0.3721
 8732TIP3    H247688   5.538   5.131   5.836  0.3210 -0.5153 -1.0502
 8733TIP3   OH247689   1.779   4.037  12.838  0.0098 -0.2037  0.1653
 8733TIP3    H147690   1.840   3.978  12.883 -1.5784  0.7449  3.9222
 8733TIP3    H247691   1.806   4.124  12.866 -0.8369  0.5210 -1.1622
 8734TIP3   OH247692   6.482   0.788   3.022  1.1929 -0.2984 -0.2044
 8734TIP3    H147693   6.560   0.758   2.976  0.0841 -0.2673 -2.2265
 8734TIP3    H247694   6.486   0.883   3.017  0.4121 -0.3071 -1.4989
 8735TIP3   OH247695   5.000   4.506  14.756  0.4417  0.3075 -0.6553
 8735TIP3    H147696   4.941   4.515  14.831  1.8488 -0.1018  0.5627
 8735TIP3    H247697   4.982   4.419  14.721  1.0510 -0.2687  0.4035
 8736TIP3   OH247698   0.631   4.495   2.357 -0.1916  0.2441 -0.1794
 8736TIP3    H147699   0.696   4.526   2.421 -2.1450  0.5806  1.7471
 8736TIP3    H247700   0.644   4.551   2.281  2.5474 -0.4957 -0.3669
 8737TIP3   OH247701   5.725   5.178   0.722 -0.6339 -0.0303 -0.1577
 8737TIP3    H147702   5.637   5.215   0.729 -0.7060 -0.0054 -0.9925
 8737TIP3    H247703   5.729   5.111   0.790 -1.4112 -0.2324 -0.3042
 8738TIP3   OH247704   5.609   6.620   4.774 -0.2758 -0.0857  0.3969
 8738TIP3    H147705   5.532   6.673   4.792 -1.7395 -1.6683 -0.8914
 8738TIP3    H247706   5.611   6.555   4.845 -0.5303 -0.4508  0.0755
 8739TIP3   OH247707   3.949   3.653   2.881  0.5937 -0.4922  0.5176
 8739TIP3    H147708   3.958   3.734   2.932 -3.3655  0.0479  0.6560
 8739TIP3    H247709   3.911   3.590   2.943  0.1560 -1.3080 -0.5566
 8740TIP3   OH247710   6.100   6.478  15.564 -0.3023 -0.0545  0.1749
 8740TIP3    H147711   6.046   6.413  15.609 -0.7550  0.6857  0.7273
 8740TIP3    H247712   6.074   6.562  15.603 -0.9854  0.6657 -1.7022
 8741TIP3   OH247713   3.864   1.618   2.534 -0.4152  0.0606  0.0351
 8741TIP3    H147714   3.944   1.640   2.581 -0.0042  0.0453 -0.6453
 8741TIP3    H247715   3.807   1.694   2.546  0.3055  0.7461 -0.7932
 8742TIP3   OH247716   3.639   0.715   3.233 -0.4222 -0.2071 -0.3522
 8742TIP3    H147717   3.676   0.627   3.220 -0.3646 -0.1487 -0.6023
 8742TIP3    H247718   3.684   0.749   3.310 -0.5356 -0.4485 -0.1812
 8743TIP3   OH247719   3.952   0.588   6.227 -0.0724 -0.2712  0.6431
 8743TIP3    H147720   3.885   0.636   6.275  0.1107  0.0912  0.5418
 8743TIP3    H247721   4.005   0.656   6.185 -1.3894 -0.5425 -1.6886
 8744TIP3   OH247722   4.546   3.845  11.877 -0.4791  0.7967  0.4879
 8744TIP3    H147723   4.570   3.936  11.860 -1.7724  1.2842  1.1567
 8744TIP3    H247724   4.537   3.840  11.972  1.3072 -0.5045  0.6449
 8745TIP3   OH247725   6.089   4.147  15.697  0.1654  0.6096 -0.2463
 8745TIP3    H147726   6.174   4.189  15.682  1.4566 -1.2826  1.2996
 8745TIP3    H247727   6.075   4.093  15.619 -0.7346  2.5228 -1.4939
 8746TIP3   OH247728   4.935   1.270   1.834  0.1222  0.2380 -0.1083
 8746TIP3    H147729   4.868   1.241   1.895 -1.7069  1.8985 -1.2229
 8746TIP3    H247730   4.980   1.341   1.880 -0.8252  1.0526 -0.4023
 8747TIP3   OH247731   2.595   2.028  10.986 -0.3200 -0.4619  0.0184
 8747TIP3    H147732   2.539   2.028  10.908 -0.7939 -2.4873  0.2980
 8747TIP3    H247733   2.684   2.042  10.952 -0.7537  0.9458 -0.6187
 8748TIP3   OH247734   0.274   2.137   3.261 -0.0192  0.0541  0.1023
 8748TIP3    H147735   0.208   2.112   3.196  1.2698 -1.2331 -0.7577
 8748TIP3    H247736   0.226   2.139   3.344 -1.3450  0.1433 -0.6379
 8749TIP3   OH247737   1.078   4.403   1.697 -0.3684  0.4620  0.0752
 8749TIP3    H147738   0.991   4.375   1.725 -0.2168 -1.8039 -1.4688
 8749TIP3    H247739   1.071   4.498   1.687 -1.7649  0.7487  2.8315
 8750TIP3   OH247740   0.064   4.776   5.174  0.5253 -0.1692  0.3861
 8750TIP3    H147741   0.025   4.745   5.093 -0.9935 -0.7014  1.2729
 8750TIP3    H247742   0.158   4.782   5.156  0.3701 -1.5231 -1.0019
 8751TIP3   OH247743   5.739   0.392  11.891  0.3063  0.3235  0.5247
 8751TIP3    H147744   5.740   0.376  11.985 -3.5658 -0.8356  0.5359
 8751TIP3    H247745   5.688   0.473  11.882 -1.2915 -0.7655 -0.6077
 8752TIP3   OH247746   3.035   1.452   4.966  0.0515  0.2418  0.4317
 8752TIP3    H147747   3.038   1.533   4.917  0.7325 -0.7423 -1.2175
 8752TIP3    H247748   3.123   1.414   4.957 -0.3475 -0.8480  0.8741
 8753TIP3   OH247749   5.575   6.306   4.720 -0.2970  0.4355  0.2101
 8753TIP3    H147750   5.654   6.300   4.774 -0.8336  1.3540  1.1465
 8753TIP3    H247751   5.546   6.215   4.710  0.3589  0.1668  0.6587
 8754TIP3   OH247752   5.008   5.832   6.007  0.6355  0.6443  0.2538
 8754TIP3    H147753   5.099   5.834   6.036  0.2211  1.6333  1.6146
 8754TIP3    H247754   5.012   5.801   5.917  2.6068  3.3235 -0.7105
 8755TIP3   OH247755   5.212   0.715   0.431  0.3995  0.2742 -0.7792
 8755TIP3    H147756   5.286   0.658   0.452 -0.4009 -1.2989 -1.9819
 8755TIP3    H247757   5.241   0.803   0.457  2.3505 -0.4135 -0.4466
 8756TIP3   OH247758   6.309   5.593  12.646 -0.2349  0.3368  0.2612
 8756TIP3    H147759   6.330   5.636  12.562 -1.8161  1.5539  0.4295
 8756TIP3    H247760   6.240   5.531  12.624  0.9928 -1.0770  0.2889
 8757TIP3   OH247761   3.585   5.351  13.795  0.3574 -0.3362 -0.3159
 8757TIP3    H147762   3.517   5.309  13.848  1.5741 -0.3080  1.3200
 8757TIP3    H247763   3.572   5.444  13.807 -0.1665 -0.2877 -1.1491
 8758TIP3   OH247764   1.706   2.402   1.265  0.6726  0.0700 -0.4010
 8758TIP3    H147765   1.705   2.338   1.193 -0.1421  1.2143 -1.4565
 8758TIP3    H247766   1.727   2.351   1.343  0.3181 -1.4332 -1.2572
 8759TIP3   OH247767   2.693   4.724  13.726 -0.7620  0.4450  0.0199
 8759TIP3    H147768   2.774   4.727  13.776  0.0751  0.7558 -1.2935
 8759TIP3    H247769   2.684   4.632  13.701 -1.9350  0.0161  1.8713
 8760TIP3   OH247770   4.309   0.085   2.842 -0.4857  0.4877  0.4176
 8760TIP3    H147771   4.331   0.178   2.844  2.2412 -0.0774  0.8018
 8760TIP3    H247772   4.252   0.075   2.766 -2.5841  2.7479  1.5651
 8761TIP3   OH247773   4.384   2.764   4.009  0.3184 -0.3588  0.3323
 8761TIP3    H147774   4.475   2.735   4.003  0.3246 -0.1683 -0.5297
 8761TIP3    H247775   4.385   2.852   3.972  0.1713  0.5235  2.2855
 8762TIP3   OH247776   5.179   0.413  12.313 -0.2254 -0.2828 -0.2652
 8762TIP3    H147777   5.195   0.349  12.244 -2.0965  0.6546 -1.6520
 8762TIP3    H247778   5.161   0.495  12.267 -0.0390  0.7420  1.4002
 8763TIP3   OH247779   2.947   2.833   4.710 -0.0625 -0.2575 -0.3765
 8763TIP3    H147780   2.972   2.885   4.634  0.3075 -0.8009 -0.6329
 8763TIP3    H247781   2.868   2.876   4.743  1.4393  1.7872  0.7563
 8764TIP3   OH247782   3.451   1.621   2.955  0.2570  0.1298  0.9960
 8764TIP3    H147783   3.527   1.576   2.990  0.1125  0.1224  1.3030
 8764TIP3    H247784   3.378   1.561   2.971  0.4200 -0.6284 -0.8001
 8765TIP3   OH247785   1.765   6.052  14.973  0.6078 -0.2607 -0.1809
 8765TIP3    H147786   1.712   6.022  15.048  0.5207  0.4981  0.0707
 8765TIP3    H247787   1.710   6.118  14.931  1.2267  0.3019 -0.1072
 8766TIP3   OH247788   4.615   2.764   4.600  0.0796  0.0280 -0.9091
 8766TIP3    H147789   4.614   2.860   4.602 -1.0734  0.0142 -0.0029
 8766TIP3    H247790   4.665   2.742   4.521  2.3786  1.3379  0.0721
 8767TIP3   OH247791   0.651   1.684  12.933  0.1717 -0.3218  0.3125
 8767TIP3    H147792   0.711   1.613  12.956  0.6951  0.0578  0.1376
 8767TIP3    H247793   0.565   1.643  12.929  0.4173 -0.8703  0.5829
 8768TIP3   OH247794   5.868   4.679   3.561  0.2481  0.5055  0.3349
 8768TIP3    H147795   5.955   4.697   3.598 -0.2376  0.6413  1.4521
 8768TIP3    H247796   5.815   4.654   3.637 -0.3960 -0.7213 -0.4910
 8769TIP3   OH247797   5.362   4.569  16.131  0.0602  0.3025  0.2945
 8769TIP3    H147798   5.390   4.489  16.174  1.5878  1.2002  1.0767
 8769TIP3    H247799   5.416   4.574  16.052  0.0509  0.6015  0.3033
 8770TIP3   OH247800   0.071   1.961  11.286 -0.4169  0.3943  0.2620
 8770TIP3    H147801   0.164   1.980  11.295 -0.3132 -0.3345  0.8186
 8770TIP3    H247802   0.027   2.033  11.332 -0.1711  1.2185 -0.7632
 8771TIP3   OH247803   0.975   5.326  15.652 -0.3379 -1.0532  0.2712
 8771TIP3    H147804   1.017   5.282  15.578 -0.7902 -0.5215 -0.3191
 8771TIP3    H247805   0.902   5.269  15.676 -1.9485  0.1034 -1.5710
 8772TIP3   OH247806   2.393   4.418  11.835  0.2987 -0.3303 -0.1008
 8772TIP3    H147807   2.312   4.461  11.862  0.1782 -0.8435  0.3640
 8772TIP3    H247808   2.458   4.446  11.900  1.2238  2.3570 -2.0170
 8773TIP3   OH247809   1.296   5.539   4.107 -0.3494  0.0879 -0.2805
 8773TIP3    H147810   1.243   5.467   4.071  0.8996 -0.5079 -0.9716
 8773TIP3    H247811   1.240   5.617   4.096 -2.6434 -0.9809  2.4411
 8774TIP3   OH247812   0.625   0.471   3.012 -0.1912  0.4086  0.6414
 8774TIP3    H147813   0.561   0.406   3.040 -0.9009  1.3213  1.1913
 8774TIP3    H247814   0.587   0.510   2.933  0.1331  0.3079  0.4312
 8775TIP3   OH247815   2.742   1.284   0.290  0.2180 -0.7754  0.1941
 8775TIP3    H147816   2.735   1.297   0.384 -0.0697 -1.1809  0.2341
 8775TIP3    H247817   2.780   1.196   0.281 -3.2331 -2.4071 -0.0449
 8776TIP3   OH247818   5.849   3.230   1.027  0.5329 -0.0361 -0.3695
 8776TIP3    H147819   5.795   3.290   1.079  0.0623 -1.5875  1.0394
 8776TIP3    H247820   5.933   3.275   1.018 -0.9217  2.5383 -2.7968
 8777TIP3   OH247821   4.029   6.575   5.475  0.2919  0.3768  0.2130
 8777TIP3    H147822   4.112   6.623   5.473  0.6584 -0.2533 -0.1287
 8777TIP3    H247823   3.971   6.630   5.527  0.8209  0.9937  0.1692
 8778TIP3   OH247824   2.962   3.176   4.627 -0.2219 -0.5379 -0.5087
 8778TIP3    H147825   2.924   3.154   4.712 -0.5461 -0.6932 -0.6895
 8778TIP3    H247826   3.050   3.206   4.647 -0.1367 -1.0126 -0.1611
 8779TIP3   OH247827   5.795   5.450   5.964 -0.1407 -0.0513 -0.1966
 8779TIP3    H147828   5.882   5.474   5.933 -0.5850  2.2407  0.2014
 8779TIP3    H247829   5.763   5.527   6.009 -1.5681 -1.5548  1.5310
 8780TIP3   OH247830   1.381   1.061  15.655  0.1248  0.1185  0.2266
 8780TIP3    H147831   1.393   1.140  15.708  2.1075 -0.2570  0.4105
 8780TIP3    H247832   1.309   1.083  15.596 -0.4588  1.4571  1.3608
 8781TIP3   OH247833   4.959   4.553  11.222 -0.2749 -0.2727  0.2559
 8781TIP3    H147834   5.011   4.475  11.203 -2.2433 -1.2696 -1.5181
 8781TIP3    H247835   4.870   4.529  11.195 -0.9349  2.6454 -0.4737
 8782TIP3   OH247836   6.419   5.840   5.846  0.2197  0.1016 -0.0913
 8782TIP3    H147837   6.366   5.760   5.848  0.6409 -0.2081 -0.9057
 8782TIP3    H247838   6.361   5.908   5.881 -1.0237 -0.0563 -1.7513
 8783TIP3   OH247839   4.456   5.352   4.049  0.6220 -0.5298  0.0515
 8783TIP3    H147840   4.462   5.315   3.960 -1.3333 -0.1096 -0.2904
 8783TIP3    H247841   4.365   5.341   4.074  0.7835  0.8181  1.3851
 8784TIP3   OH247842   2.933   1.555   0.618  0.2127  0.6362  0.3157
 8784TIP3    H147843   2.851   1.539   0.572 -0.8806  0.5205  2.2098
 8784TIP3    H247844   2.999   1.508   0.566 -1.0847 -0.2458 -0.6086
 8785TIP3   OH247845   5.957   5.976   5.013 -0.2575  0.2530  0.2415
 8785TIP3    H147846   5.979   5.902   5.070  0.3638 -0.0350 -0.3485
 8785TIP3    H247847   5.862   5.976   5.009 -0.2572 -1.6314 -1.1401
 8786TIP3   OH247848   4.685   3.742  15.943 -0.7377 -0.5134 -0.6431
 8786TIP3    H147849   4.751   3.802  15.978 -0.3089 -0.3401 -1.6916
 8786TIP3    H247850   4.735   3.685  15.884 -1.0123 -2.3748  0.8581
 8787TIP3   OH247851   3.489   5.312  12.609  0.4079 -0.3442 -0.0760
 8787TIP3    H147852   3.394   5.301  12.615  0.2671  0.9326  0.3255
 8787TIP3    H247853   3.517   5.246  12.546 -0.6120 -1.4180  0.5572
 8788TIP3   OH247854   0.511   0.362  10.393 -0.2562  0.1034  0.0064
 8788TIP3    H147855   0.605   0.363  10.411 -0.6651 -0.6766  2.6714
 8788TIP3    H247856   0.492   0.272  10.368 -0.2399  0.3818 -1.0470
 8789TIP3   OH247857   1.025   4.635   3.361  0.2187 -0.2601  0.1175
 8789TIP3    H147858   1.008   4.547   3.329  0.6121 -0.0865 -0.5746
 8789TIP3    H247859   1.099   4.666   3.310 -0.8914  1.0584 -0.7630
 8790TIP3   OH247860   2.838   5.947  15.575 -0.6628  0.5829  0.1892
 8790TIP3    H147861   2.919   5.921  15.532 -0.8008  0.0017  0.2694
 8790TIP3    H247862   2.770   5.895  15.533 -1.0333  1.2271 -0.0319
 8791TIP3   OH247863   2.883   3.204   2.687  0.6959  0.0092  0.2864
 8791TIP3    H147864   2.973   3.228   2.709  0.4090  0.8357  0.6063
 8791TIP3    H247865   2.830   3.243   2.756 -0.0725  1.1933 -0.8958
 8792TIP3   OH247866   5.340   5.338   5.630  0.4208  0.2777  0.4253
 8792TIP3    H147867   5.318   5.427   5.658 -2.3019 -0.0213 -0.4952
 8792TIP3    H247868   5.383   5.299   5.706 -0.1953  1.7445  1.5737
 8793TIP3   OH247869   2.025   6.385   5.847 -0.9858  0.1034 -0.1221
 8793TIP3    H147870   1.962   6.385   5.920 -2.6066 -0.7970 -1.4548
 8793TIP3    H247871   2.022   6.475   5.813  0.3001  0.7302  1.2810
 8794TIP3   OH247872   6.235   1.160  11.723 -0.1755 -0.3267  0.0458
 8794TIP3    H147873   6.313   1.179  11.775 -2.0346  1.1860  2.5171
 8794TIP3    H247874   6.205   1.075  11.756  1.3147 -1.8305 -2.2076
 8795TIP3   OH247875   1.833   6.150   6.027  0.8460 -1.0574 -0.2811
 8795TIP3    H147876   1.795   6.208   6.093  1.7336  1.0343 -1.5081
 8795TIP3    H247877   1.879   6.083   6.077  0.2884 -0.3654  1.2015
 8796TIP3   OH247878   4.101   3.207  14.773 -0.6136  0.8151 -0.4263
 8796TIP3    H147879   4.084   3.114  14.783  0.1009  0.4143 -2.5029
 8796TIP3    H247880   4.167   3.227  14.839 -0.0402 -0.3874 -0.6071
 8797TIP3   OH247881   0.018   0.371  15.474 -0.0932 -0.5628  0.4705
 8797TIP3    H147882   0.103   0.398  15.507 -0.3490 -0.0867  0.7519
 8797TIP3    H247883  -0.037   0.363  15.552 -0.7088  0.6055  0.1799
 8798TIP3   OH247884   1.687   4.944  11.311  0.1727 -0.1791 -0.2369
 8798TIP3    H147885   1.748   4.939  11.237  0.2287 -1.0765 -0.1352
 8798TIP3    H247886   1.721   4.882  11.375 -0.4268 -0.1297  0.1411
 8799TIP3   OH247887   1.357   4.785  13.183  0.7612  0.3956 -0.2017
 8799TIP3    H147888   1.382   4.875  13.203 -0.5360  0.4664  1.2033
 8799TIP3    H247889   1.426   4.731  13.221  0.4843  0.7189  0.7635
 8800TIP3   OH247890   3.232   6.213   0.271 -0.7348  0.2679  0.2643
 8800TIP3    H147891   3.175   6.269   0.217 -2.2939 -2.3061 -0.9544
 8800TIP3    H247892   3.318   6.219   0.229 -0.4644  2.7947  1.0349
 8801TIP3   OH247893   2.346   5.874   5.514  0.3772 -0.0337 -0.2667
 8801TIP3    H147894   2.433   5.843   5.540  0.6376  1.6329  1.0192
 8801TIP3    H247895   2.289   5.854   5.587  0.1110  0.5857 -0.2909
 8802TIP3   OH247896   2.160   2.804   0.040  0.7212  0.1471 -0.0707
 8802TIP3    H147897   2.253   2.822   0.050  0.4279  0.8645  1.8959
 8802TIP3    H247898   2.118   2.852   0.112 -0.9155 -2.2601  0.7218
 8803TIP3   OH247899   1.706   5.559  15.371  0.2572  0.2348  0.3958
 8803TIP3    H147900   1.660   5.636  15.404 -1.2576  0.3790 -1.7988
 8803TIP3    H247901   1.669   5.485  15.419 -1.8209  0.4364 -0.7734
 8804TIP3   OH247902   6.226   3.520  16.813 -0.0367 -0.3149 -0.3842
 8804TIP3    H147903   6.147   3.508  16.866  0.0831 -0.3559 -0.2139
 8804TIP3    H247904   6.298   3.498  16.872  0.2498  1.8928  0.1801
 8805TIP3   OH247905   0.792   2.114  12.189  0.7963 -0.2663  0.8389
 8805TIP3    H147906   0.875   2.162  12.188  0.8227 -0.2241  2.5829
 8805TIP3    H247907   0.739   2.158  12.122  1.7010  0.5683  0.6352
 8806TIP3   OH247908   1.311   6.337  16.871 -0.6932 -0.0698 -0.1631
 8806TIP3    H147909   1.299   6.412  16.813 -2.9844 -0.5077 -0.3721
 8806TIP3    H247910   1.354   6.372  16.948  1.6033  0.7014 -1.6782
 8807TIP3   OH247911   3.370   5.994   4.069 -0.2774  0.5642 -0.6991
 8807TIP3    H147912   3.299   5.989   4.006  0.4482  2.1547 -1.7096
 8807TIP3    H247913   3.447   5.963   4.020  0.1419  1.0727 -0.3734
 8808TIP3   OH247914   1.436   4.426  12.838  0.2151  0.0095  0.1892
 8808TIP3    H147915   1.441   4.436  12.743 -0.9757 -0.2745  0.0856
 8808TIP3    H247916   1.528   4.423  12.866  0.5954 -0.5358 -1.0209
 8809TIP3   OH247917   1.096   4.438   3.797 -0.1172 -0.6383 -0.3316
 8809TIP3    H147918   1.023   4.454   3.738  0.0284  0.1039 -0.3134
 8809TIP3    H247919   1.065   4.466   3.882 -0.1378 -1.2078 -0.1481
 8810TIP3   OH247920   3.674   0.708  14.479  0.0913 -0.4662 -0.1539
 8810TIP3    H147921   3.690   0.620  14.443 -1.0698  0.0724 -2.1748
 8810TIP3    H247922   3.582   0.725  14.458  0.7613  1.9408 -1.4962
 8811TIP3   OH247923   3.465   4.300   5.748 -0.6272 -0.2782 -0.1119
 8811TIP3    H147924   3.523   4.238   5.704 -1.8617 -0.8588 -0.9752
 8811TIP3    H247925   3.520   4.377   5.763  1.3220 -1.9309  2.0690
 8812TIP3   OH247926   5.582   5.303  11.581  0.4603  0.3570 -0.1329
 8812TIP3    H147927   5.515   5.332  11.519  0.5245  0.7772 -0.0073
 8812TIP3    H247928   5.653   5.366  11.571  0.5207  0.3565  0.2841
 8813TIP3   OH247929   3.105   0.361  16.627 -0.1166  0.2684 -0.2025
 8813TIP3    H147930   3.080   0.313  16.547 -0.9368 -0.2427  0.3444
 8813TIP3    H247931   3.199   0.375  16.618 -0.4095  1.4772 -1.9326
 8814TIP3   OH247932   4.091   3.337   2.907 -1.1785 -0.8831 -0.1781
 8814TIP3    H147933   4.168   3.329   2.850 -1.2311 -0.7349 -0.2696
 8814TIP3    H247934   4.068   3.246   2.928 -0.2313 -0.9083  0.8505
 8815TIP3   OH247935   0.145   3.089  10.428 -0.3277 -0.7561 -0.5109
 8815TIP3    H147936   0.206   3.133  10.488  1.2867 -0.4155 -2.3070
 8815TIP3    H247937   0.101   3.161  10.383 -1.1970 -1.0106 -0.0816
 8816TIP3   OH247938   1.091   5.484  15.340  0.0609 -0.0049  0.2605
 8816TIP3    H147939   1.059   5.415  15.281 -4.2479  0.9550  1.1292
 8816TIP3    H247940   1.127   5.438  15.415 -2.9779 -1.4996  0.9483
 8817TIP3   OH247941   0.355   6.592  15.109 -0.4778 -0.8574  0.3744
 8817TIP3    H147942   0.368   6.514  15.162 -0.2528  0.5683  2.5343
 8817TIP3    H247943   0.425   6.589  15.044 -0.3673 -2.3344  0.5208
 8818TIP3   OH247944   5.467   1.364   5.629  0.1610 -0.1303 -0.7033
 8818TIP3    H147945   5.510   1.407   5.703 -1.7590  2.0010 -0.7211
 8818TIP3    H247946   5.537   1.317   5.584  1.4818 -1.0893  2.1216
 8819TIP3   OH247947   4.178   5.947  12.192 -0.4361  0.0460  0.0281
 8819TIP3    H147948   4.095   5.946  12.239 -0.0942 -1.6488  0.6739
 8819TIP3    H247949   4.166   5.883  12.122  0.0487  0.4028 -0.3872
 8820TIP3   OH247950   2.883   2.640  15.531 -0.0275 -0.4068  0.8912
 8820TIP3    H147951   2.898   2.707  15.597  1.5120 -1.0002  1.1660
 8820TIP3    H247952   2.968   2.598  15.519 -0.3448 -0.5612 -1.1994
 8821TIP3   OH247953   4.851   6.799  16.978  0.2115  0.0660  0.1806
 8821TIP3    H147954   4.761   6.822  17.001  0.0547 -0.1733 -0.1884
 8821TIP3    H247955   4.901   6.811  17.059  0.0715  1.3353  0.1044
 8822TIP3   OH247956   3.848   0.802  12.000 -0.4878  0.0240 -0.2769
 8822TIP3    H147957   3.881   0.734  11.941  0.4898 -0.5811  0.9133
 8822TIP3    H247958   3.914   0.871  11.997  2.5137 -2.2346  3.9957
 8823TIP3   OH247959   6.056   5.376  15.698  0.6526  0.1633  0.1131
 8823TIP3    H147960   6.112   5.301  15.721  0.4892  0.3708  1.2540
 8823TIP3    H247961   5.995   5.383  15.771  0.4106  1.1707 -0.1741
 8824TIP3   OH247962   1.708   4.032   1.839  0.2581 -0.1280  0.3884
 8824TIP3    H147963   1.797   4.030   1.873  0.3831 -0.2983  0.0621
 8824TIP3    H247964   1.711   4.096   1.767  0.7572 -1.9863 -1.3252
 8825TIP3   OH247965   3.032   3.790   6.177  0.0327  0.1429  0.1228
 8825TIP3    H147966   3.032   3.882   6.151 -0.0313  0.5324  1.4113
 8825TIP3    H247967   3.122   3.761   6.165 -0.2065  0.0049 -1.4727
 8826TIP3   OH247968   3.877   1.982  15.317 -1.0031 -0.0746  0.4244
 8826TIP3    H147969   3.796   2.016  15.356 -1.2524 -1.5686  1.2749
 8826TIP3    H247970   3.857   1.892  15.294  0.9824 -1.1921  2.6053
 8827TIP3   OH247971   1.908   6.274  13.722 -0.4727  0.1673  0.6209
 8827TIP3    H147972   1.904   6.332  13.798 -1.5179  0.7796  0.1330
 8827TIP3    H247973   1.976   6.312  13.666 -1.6765  1.4264 -0.0530
 8828TIP3   OH247974   6.457   1.422   0.785  0.2125  0.4566  0.1455
 8828TIP3    H147975   6.425   1.348   0.733 -1.5548  1.3868 -0.1686
 8828TIP3    H247976   6.529   1.458   0.733  2.1625 -1.9056  1.0347
 8829TIP3   OH247977   2.525   6.469   0.881  0.3167  0.2964  0.0896
 8829TIP3    H147978   2.457   6.403   0.870 -1.9097  2.6419 -1.3716
 8829TIP3    H247979   2.598   6.437   0.829 -1.2824 -0.3316 -1.8916
 8830TIP3   OH247980   6.357   3.793  12.893 -0.1327 -0.0049  0.3104
 8830TIP3    H147981   6.299   3.757  12.826 -0.5099  0.2308  0.5038
 8830TIP3    H247982   6.329   3.749  12.974  1.0482 -1.1094  0.1431
 8831TIP3   OH247983   2.752   4.298   5.581  0.4242  0.6324  0.4198
 8831TIP3    H147984   2.836   4.339   5.602  0.8338 -0.0396  0.1367
 8831TIP3    H247985   2.719   4.265   5.664 -0.0526  1.7725  0.7026
 8832TIP3   OH247986   4.107   3.101   5.400  0.5312 -0.1135  0.0602
 8832TIP3    H147987   4.084   3.072   5.489  1.0818 -2.4956 -0.5019
 8832TIP3    H247988   4.023   3.121   5.359 -0.1553 -2.8132 -0.0510
 8833TIP3   OH247989   3.229   6.411  10.275  0.4424  0.4810  0.9535
 8833TIP3    H147990   3.259   6.491  10.318 -1.6367  0.8449  1.8487
 8833TIP3    H247991   3.137   6.405  10.298  0.0452 -1.0876 -0.8075
 8834TIP3   OH247992   6.600   1.497  15.105 -0.5213  0.3499 -0.2245
 8834TIP3    H147993   6.601   1.574  15.049  0.9091 -0.4067 -1.2930
 8834TIP3    H247994   6.513   1.458  15.092 -0.8971  1.2361 -0.4100
 8835TIP3   OH247995   1.403   0.767   4.763  0.1361 -0.4084 -0.1407
 8835TIP3    H147996   1.464   0.831   4.801 -1.0038  0.3326  0.5070
 8835TIP3    H247997   1.328   0.820   4.736 -0.5708 -1.4093 -0.1637
 8836TIP3   OH247998   4.348   2.450  12.799 -0.5243  0.4322  0.1900
 8836TIP3    H147999   4.279   2.512  12.822 -0.5081 -0.0589  1.6157
 8836TIP3    H248000   4.391   2.429  12.882 -0.2833 -1.1951 -0.3154
 8837TIP3   OH248001   1.790   2.560  16.400  0.7004 -0.0661 -0.2111
 8837TIP3    H148002   1.867   2.503  16.398  1.2400  0.5370  1.5380
 8837TIP3    H248003   1.824   2.645  16.428 -0.3511  0.6909 -1.1466
 8838TIP3   OH248004   4.486   3.909  12.524  0.2417  0.2059 -0.5299
 8838TIP3    H148005   4.493   3.956  12.607 -2.4189  0.7043 -0.4843
 8838TIP3    H248006   4.504   3.818  12.546  0.8808  0.5217  0.3116
 8839TIP3   OH248007   2.678   6.193  12.886 -0.5762 -0.2293  0.1169
 8839TIP3    H148008   2.738   6.193  12.961 -0.5041 -0.5930  0.0638
 8839TIP3    H248009   2.703   6.115  12.836  0.2393  0.7191 -0.9900
 8840TIP3   OH248010   0.256   3.011   0.800  0.6123  0.5706  0.1323
 8840TIP3    H148011   0.270   3.101   0.771 -0.2537  0.9534  0.8476
 8840TIP3    H248012   0.342   2.969   0.791  1.3140  1.7844  0.8464
 8841TIP3   OH248013   1.882   6.815  12.103 -0.3365  0.4746 -0.5980
 8841TIP3    H148014   1.819   6.751  12.135 -0.4063  0.3665 -0.9414
 8841TIP3    H248015   1.889   6.880  12.173  0.6972 -0.5790  0.3137
 8842TIP3   OH248016   6.366   0.260  13.227  0.3630  0.2713 -0.3001
 8842TIP3    H148017   6.442   0.211  13.197  0.8338  0.6796  0.1997
 8842TIP3    H248018   6.364   0.244  13.322  1.4498  2.4209  0.1472
 8843TIP3   OH248019   0.794   4.737  15.761 -0.0779  0.3472 -0.4430
 8843TIP3    H148020   0.846   4.738  15.842  2.3759 -0.7409 -1.8898
 8843TIP3    H248021   0.772   4.645  15.748 -1.4411  0.6493 -0.4944
 8844TIP3   OH248022   5.214   6.877  12.020  0.3172 -0.1065  0.0201
 8844TIP3    H148023   5.291   6.889  11.964  1.9453 -0.7212  1.9883
 8844TIP3    H248024   5.185   6.788  12.002  0.9536 -0.3728  0.2768
 8845TIP3   OH248025   5.607   0.270   4.859  0.1426  0.7736 -0.1709
 8845TIP3    H148026   5.653   0.194   4.896 -0.0143  0.0174 -1.4872
 8845TIP3    H248027   5.528   0.278   4.913 -0.1988 -0.4531 -0.4623
 8846TIP3   OH248028   1.356   2.365   4.054  0.1880  0.6558  0.3957
 8846TIP3    H148029   1.348   2.446   4.003 -0.4842 -0.0942 -0.7263
 8846TIP3    H248030   1.345   2.295   3.990  0.1742 -0.3249  1.4452
 8847TIP3   OH248031   1.791   6.032  13.773 -0.1589  0.9399 -0.2426
 8847TIP3    H148032   1.856   6.100  13.752 -0.8360  1.6035 -0.2513
 8847TIP3    H248033   1.772   6.046  13.866  1.4821 -0.8192  0.4200
 8848TIP3   OH248034   5.758   0.208  13.213  0.2520  0.3517 -0.1464
 8848TIP3    H148035   5.730   0.194  13.303  0.9178  2.6725  0.4877
 8848TIP3    H248036   5.811   0.131  13.192 -0.9597 -0.8319  0.9780
 8849TIP3   OH248037   4.548   5.452  16.570  0.1902  0.5807  0.2869
 8849TIP3    H148038   4.617   5.515  16.547  1.4603 -0.4792  1.1231
 8849TIP3    H248039   4.509   5.428  16.485  2.3943 -0.5314 -0.4869
 8850TIP3   OH248040   4.219   1.345   0.100 -0.3180  0.6590 -0.5677
 8850TIP3    H148041   4.184   1.258   0.118 -2.3743  1.3767 -0.8046
 8850TIP3    H248042   4.283   1.331   0.030 -1.3760 -0.5550 -1.3382
 8851TIP3   OH248043   3.378   3.438  16.336  0.1826  0.2950  0.5815
 8851TIP3    H148044   3.453   3.476  16.382  0.6039  2.4221 -1.6361
 8851TIP3    H248045   3.310   3.504  16.342 -0.3265 -0.1256 -0.3236
 8852TIP3   OH248046   1.410   4.070   0.145  0.0473 -0.3916 -0.4659
 8852TIP3    H148047   1.505   4.078   0.143  0.2165 -1.2573  1.3649
 8852TIP3    H248048   1.378   4.154   0.113  1.5023  1.6555  2.8145
 8853TIP3   OH248049   0.137   5.334  16.080 -0.4967  0.0461 -0.1016
 8853TIP3    H148050   0.073   5.297  16.019 -2.2320  1.0351  1.0428
 8853TIP3    H248051   0.171   5.411  16.035 -2.0185  0.9677  0.2684
 8854TIP3   OH248052   2.236   3.906   0.525 -0.0794 -0.4793  0.1392
 8854TIP3    H148053   2.284   3.924   0.444  1.0802  0.5573  1.0138
 8854TIP3    H248054   2.239   3.811   0.534  1.4994 -0.4736 -0.0395
 8855TIP3   OH248055   5.339   0.364   3.417  0.2945 -0.5742 -0.2386
 8855TIP3    H148056   5.261   0.359   3.362 -0.0094 -1.9877  0.2644
 8855TIP3    H248057   5.409   0.326   3.364  1.3366  2.9242 -1.6712
 8856TIP3   OH248058   1.534   0.726  14.858  0.3402  0.0093 -0.4143
 8856TIP3    H148059   1.588   0.653  14.890  1.0715  0.2677 -1.0131
 8856TIP3    H248060   1.577   0.752  14.776 -1.2625 -0.3966 -1.4152
 8857TIP3   OH248061   4.550   4.396  15.966  0.4522  0.3771 -0.1082
 8857TIP3    H148062   4.529   4.309  15.998  1.2323  0.5122  0.8106
 8857TIP3    H248063   4.603   4.436  16.036  1.0878  1.1596 -1.0079
 8858TIP3   OH248064   0.231   2.510  15.871  0.3630  0.1319 -0.7241
 8858TIP3    H148065   0.326   2.518  15.882 -0.0084  2.1168  2.0959
 8858TIP3    H248066   0.211   2.569  15.799  1.0791  1.5108  0.1514
 8859TIP3   OH248067   3.963   0.006  11.379  0.1424  0.3186  0.0972
 8859TIP3    H148068   3.878   0.048  11.384  0.1249  0.1974  1.2343
 8859TIP3    H248069   3.951  -0.078  11.423  0.4810 -0.3704 -1.0731
 8860TIP3   OH248070   0.017   0.622  16.241  0.1559 -0.3685 -0.1527
 8860TIP3    H148071   0.052   0.626  16.330  0.7305  1.9289 -0.4122
 8860TIP3    H248072  -0.078   0.628  16.253  0.2964  2.7067  0.3175
 8861TIP3   OH248073   0.146   5.197  14.189 -0.4480  0.4958  0.1672
 8861TIP3    H148074   0.188   5.123  14.234 -0.8922  0.2575  0.1955
 8861TIP3    H248075   0.149   5.173  14.096  0.1380  0.8181  0.1000
 8862TIP3   OH248076   0.453   1.951  12.680 -0.1994  0.2182 -0.1764
 8862TIP3    H148077   0.362   1.927  12.665  0.3389 -2.4447  0.2761
 8862TIP3    H248078   0.503   1.891  12.625  1.3799 -1.7604  3.1093
 8863TIP3   OH248079   4.565   3.324  12.115  0.2864 -0.2609  0.2886
 8863TIP3    H148080   4.526   3.251  12.163  2.3109 -1.0680  0.8201
 8863TIP3    H248081   4.654   3.330  12.149  0.2822  2.2697 -0.0009
 8864TIP3   OH248082   4.340   6.228   3.118  0.2501 -0.3373 -0.3226
 8864TIP3    H148083   4.248   6.224   3.091  0.1771  0.7695 -0.2558
 8864TIP3    H248084   4.388   6.187   3.046 -0.3903 -2.1468  0.2205
 8865TIP3   OH248085   3.473   3.123  11.050 -0.1613 -0.2095  0.2672
 8865TIP3    H148086   3.549   3.171  11.018 -0.6882  2.0806  2.1914
 8865TIP3    H248087   3.402   3.187  11.049 -1.2945 -1.3883  1.4900
 8866TIP3   OH248088   1.618   4.896  12.335 -0.0024  0.6691 -0.2564
 8866TIP3    H148089   1.598   4.886  12.242  0.7582  0.9549 -0.4586
 8866TIP3    H248090   1.626   4.807  12.368 -1.1016  0.5510 -0.2700
 8867TIP3   OH248091   1.954   1.994   5.163 -0.1093  0.0562  0.7771
 8867TIP3    H148092   1.874   2.008   5.214  1.4481  1.9810  2.8880
 8867TIP3    H248093   1.968   2.078   5.118  0.4459 -0.4449 -0.0036
 8868TIP3   OH248094   5.246   5.180  13.333  0.0064 -0.2411  0.2848
 8868TIP3    H148095   5.213   5.132  13.257 -0.7367 -0.7725  0.9309
 8868TIP3    H248096   5.167   5.207  13.381  0.3901  1.5457  0.0073
 8869TIP3   OH248097   5.479   2.415   0.844  0.3952  0.2989 -0.1763
 8869TIP3    H148098   5.496   2.409   0.938 -1.1010 -1.1767  0.0412
 8869TIP3    H248099   5.535   2.347   0.805 -0.0206 -0.0435 -0.1841
 8870TIP3   OH248100   5.098   0.933   1.933  0.3753 -0.5569 -0.6691
 8870TIP3    H148101   5.022   0.959   1.985  0.1928 -3.7398  0.9180
 8870TIP3    H248102   5.147   0.875   1.991  4.2563  1.5514 -1.5325
 8871TIP3   OH248103   2.304   6.625  10.923 -0.0927 -0.2449 -0.3946
 8871TIP3    H148104   2.213   6.610  10.947 -1.0687  1.7653 -2.5003
 8871TIP3    H248105   2.310   6.720  10.906  2.1521 -0.4506 -1.1727
 8872TIP3   OH248106   1.938   5.871   2.670 -0.5445 -0.3751  0.9120
 8872TIP3    H148107   1.976   5.835   2.590 -2.4093 -1.7646  0.6095
 8872TIP3    H248108   1.930   5.796   2.728 -1.0522  0.2635  1.6779
 8873TIP3   OH248109   4.098   2.461  13.485  0.3111  0.2921  0.2244
 8873TIP3    H148110   4.121   2.406  13.410  0.5876  2.2061 -1.1793
 8873TIP3    H248111   4.182   2.478  13.529  0.3934  0.5450 -0.0302
 8874TIP3   OH248112   0.477   5.807   4.519  0.1725 -0.5452 -0.2050
 8874TIP3    H148113   0.401   5.749   4.509 -0.0020 -0.2584 -0.5919
 8874TIP3    H248114   0.518   5.779   4.601 -1.3629  0.4656  0.9490
 8875TIP3   OH248115   1.963   6.580   3.550 -0.0621 -0.0654 -0.0004
 8875TIP3    H148116   1.912   6.540   3.479  0.0262 -1.6353  0.7663
 8875TIP3    H248117   1.949   6.522   3.625  0.2112  1.3032  1.1555
 8876TIP3   OH248118   6.747   3.997   5.495 -0.3393  0.0313  0.2699
 8876TIP3    H148119   6.662   4.040   5.491  0.0002  0.6875  0.1280
 8876TIP3    H248120   6.776   4.009   5.585 -0.1566  0.2589  0.1790
 8877TIP3   OH248121   5.613   3.017   3.766 -0.1573  0.7862  0.1840
 8877TIP3    H148122   5.667   3.070   3.824 -0.0435 -0.9686  1.7756
 8877TIP3    H248123   5.557   2.966   3.824 -0.7120 -0.3747 -1.2838
 8878TIP3   OH248124   5.219   0.097  10.605 -0.3235 -0.4598  0.6688
 8878TIP3    H148125   5.155   0.157  10.566  1.7793  0.5131 -1.5730
 8878TIP3    H248126   5.210   0.016  10.554  0.5134 -0.1602  0.0307
 8879TIP3   OH248127   4.414   0.967  11.394  0.2753  0.0340 -0.4898
 8879TIP3    H148128   4.441   0.878  11.415  1.9225  0.7831  0.8551
 8879TIP3    H248129   4.492   1.006  11.354  0.2670  1.3940  0.7268
 8880TIP3   OH248130   5.926   5.853   3.378  0.3419 -0.2901 -0.6987
 8880TIP3    H148131   5.931   5.808   3.294  2.4928 -0.0786 -0.7474
 8880TIP3    H248132   6.016   5.848   3.413 -0.2032  0.7736  0.9706
 8881TIP3   OH248133   2.477   1.415  16.627 -0.0748  0.0877 -0.2881
 8881TIP3    H148134   2.520   1.455  16.702 -0.8949  0.3730  0.0480
 8881TIP3    H248135   2.431   1.488  16.584  0.2445 -0.1010 -0.9762
 8882TIP3   OH248136   1.799   1.249  14.647  0.2061 -0.0175 -0.1160
 8882TIP3    H148137   1.890   1.254  14.618 -0.1665  0.2752 -1.2977
 8882TIP3    H248138   1.792   1.163  14.690  0.3080 -1.4313 -2.7324
 8883TIP3   OH248139   3.687   1.148   4.317  0.1195  0.2828  0.4813
 8883TIP3    H148140   3.698   1.178   4.407 -0.0536  0.2513  0.5135
 8883TIP3    H248141   3.594   1.123   4.311 -0.1072  1.1828  0.0295
 8884TIP3   OH248142   2.322   2.101   0.190  0.4914  0.0188  0.0362
 8884TIP3    H148143   2.320   2.022   0.244  1.5910 -0.4329 -0.5512
 8884TIP3    H248144   2.253   2.087   0.125 -0.0902  0.0645  0.6394
 8885TIP3   OH248145   3.380   4.275   0.755  0.0972  0.3747 -0.0976
 8885TIP3    H148146   3.453   4.240   0.805  0.8127  1.4195 -0.3754
 8885TIP3    H248147   3.322   4.201   0.741  0.1148 -0.0639  1.8527
 8886TIP3   OH248148   6.565   2.268   4.109 -0.0723  0.2691  0.3580
 8886TIP3    H148149   6.504   2.199   4.085 -0.1372  0.3196  0.3792
 8886TIP3    H248150   6.521   2.316   4.179 -0.2622  0.6816 -0.0416
 8887TIP3   OH248151   3.871   0.768  16.120 -0.1554 -0.5726 -0.3946
 8887TIP3    H148152   3.873   0.750  16.214  2.0467  1.2705  0.0083
 8887TIP3    H248153   3.837   0.858  16.114  1.8822  0.1927 -1.1209
 8888TIP3   OH248154   2.137   0.902  14.879  0.1822  0.0917  0.3201
 8888TIP3    H148155   2.162   0.944  14.962 -1.6265  0.8624  0.5311
 8888TIP3    H248156   2.215   0.855  14.851  1.3056  1.0494  1.7045
 8889TIP3   OH248157   0.650   5.033  14.024  0.7514 -0.1479 -0.1248
 8889TIP3    H148158   0.686   5.120  14.042  1.3732 -0.4787  0.2499
 8889TIP3    H248159   0.672   4.981  14.102  2.2235 -1.2174 -1.2044
 8890TIP3   OH248160   6.825   3.791   0.425  0.1743  0.2342  0.0243
 8890TIP3    H148161   6.815   3.841   0.344  0.2271 -0.6389 -0.5310
 8890TIP3    H248162   6.897   3.834   0.471 -1.8914  2.7452  1.1430
 8891TIP3   OH248163   6.125   4.942   2.956  0.3613  0.0761 -0.2402
 8891TIP3    H148164   6.054   4.889   2.920 -1.5112  1.4103  1.2614
 8891TIP3    H248165   6.085   5.026   2.974  2.3359  0.8628  0.7657
 8892TIP3   OH248166   1.156   2.680  15.430  0.5637  0.5317 -0.0404
 8892TIP3    H148167   1.124   2.751  15.373 -0.3072  0.0653 -0.1528
 8892TIP3    H248168   1.151   2.602  15.376 -0.3670  0.0634  0.6859
 8893TIP3   OH248169   4.503   1.427  16.264  0.1306  0.0115  0.1420
 8893TIP3    H148170   4.412   1.397  16.258  0.6674 -2.0625  1.2679
 8893TIP3    H248171   4.543   1.396  16.182  0.2898 -0.9470  0.5693
 8894TIP3   OH248172   2.753   5.645  14.716 -0.0263 -0.0927 -0.6253
 8894TIP3    H148173   2.697   5.576  14.679 -1.2673  0.6127 -0.1262
 8894TIP3    H248174   2.776   5.699  14.640  0.8141 -0.9159 -0.9927
 8895TIP3   OH248175   4.207   3.722   5.931 -0.6713  0.7134 -0.2529
 8895TIP3    H148176   4.186   3.726   5.838  1.2765  2.3728 -0.6917
 8895TIP3    H248177   4.121   3.721   5.974 -1.7250  3.5542 -1.9888
 8896TIP3   OH248178   2.404   2.079  10.318  0.2759 -0.3645 -0.0181
 8896TIP3    H148179   2.309   2.088  10.329  0.2390  0.1437 -0.6410
 8896TIP3    H248180   2.439   2.164  10.345  0.4088 -0.0265 -1.1775
 8897TIP3   OH248181   1.424   6.333  11.136  0.5509  0.3135  1.0404
 8897TIP3    H148182   1.486   6.406  11.127  0.3037  0.5088  0.8905
 8897TIP3    H248183   1.343   6.375  11.165  0.1135  0.2419 -0.0321
 8898TIP3   OH248184   0.054   1.405   0.954 -0.2686  0.5917 -0.4493
 8898TIP3    H148185   0.121   1.362   0.902  0.7971  1.8213 -0.1380
 8898TIP3    H248186  -0.008   1.440   0.890  1.1436  2.2814 -0.9641
 8899TIP3   OH248187   5.232   3.140   0.134 -0.2124 -0.4302  0.2188
 8899TIP3    H148188   5.210   3.224   0.175 -0.0726 -0.2514 -0.0674
 8899TIP3    H248189   5.148   3.094   0.127 -0.2035 -0.5473  0.8914
 8900TIP3   OH248190   4.756   4.415  12.248 -0.3523  0.3627 -0.2300
 8900TIP3    H148191   4.755   4.333  12.199  0.8333 -0.8846  1.6824
 8900TIP3    H248192   4.824   4.468  12.206  1.1584 -0.9676  0.4289
 8901TIP3   OH248193   1.753   1.894  13.928  0.4406  0.4592 -0.2183
 8901TIP3    H148194   1.768   1.988  13.936 -1.5627  0.7540  0.6461
 8901TIP3    H248195   1.676   1.877  13.982  0.8545 -1.7217 -0.2226
 8902TIP3   OH248196   0.789   2.652   3.081  0.4176 -0.0278  0.3287
 8902TIP3    H148197   0.770   2.561   3.058 -1.9333  0.4633  0.1273
 8902TIP3    H248198   0.879   2.666   3.051  0.1931 -1.7441 -1.2761
 8903TIP3   OH248199   2.538   6.536   6.024  0.1804  0.0437  0.0552
 8903TIP3    H148200   2.593   6.523   5.947  1.2686 -0.4190  0.8879
 8903TIP3    H248201   2.583   6.490   6.094 -1.2160 -0.2506  0.8070
 8904TIP3   OH248202   0.071   1.449  10.886 -0.0259  0.4073 -0.4205
 8904TIP3    H148203   0.083   1.534  10.844 -0.0901  0.8144  0.3737
 8904TIP3    H248204   0.111   1.459  10.972  1.4935 -0.8801 -0.9072
 8905TIP3   OH248205   0.344   2.188   3.956  0.2591  0.1583 -0.3326
 8905TIP3    H148206   0.431   2.168   3.923  1.7349  0.5158  2.9277
 8905TIP3    H248207   0.354   2.272   4.002 -1.5584 -0.1887  0.8217
 8906TIP3   OH248208   4.913   1.459  15.008  0.0983  0.5607  0.1418
 8906TIP3    H148209   4.955   1.528  15.059  0.0946  0.6962 -0.0410
 8906TIP3    H248210   4.822   1.488  14.999 -0.3050 -0.1889  1.3811
 8907TIP3   OH248211   6.791   5.235  15.893  0.0434  0.3921 -0.8059
 8907TIP3    H148212   6.732   5.296  15.937 -0.9231  0.0038 -1.5407
 8907TIP3    H248213   6.754   5.149  15.910  1.2728  0.0112  0.0232
 8908TIP3   OH248214   1.331   3.686  10.371 -0.3898 -0.2968  0.5187
 8908TIP3    H148215   1.423   3.672  10.392 -0.1163 -0.1523 -0.5025
 8908TIP3    H248216   1.284   3.620  10.421  0.2154 -0.0013  1.4956
 8909TIP3   OH248217   6.692   6.760   0.702 -0.3948  0.2730 -0.9524
 8909TIP3    H148218   6.625   6.777   0.637 -0.6620  0.3163 -0.6686
 8909TIP3    H248219   6.738   6.682   0.670 -0.4845  0.3304 -1.2203
 8910TIP3   OH248220   4.245   1.427  13.704 -0.3151 -0.2887  0.4945
 8910TIP3    H148221   4.261   1.360  13.637 -0.4186  0.1953 -0.0269
 8910TIP3    H248222   4.278   1.388  13.785  2.0605  0.0310 -0.2368
 8911TIP3   OH248223   4.383   6.560  12.765 -0.0092 -0.1146 -0.5662
 8911TIP3    H148224   4.428   6.523  12.841  0.7812 -0.4185 -1.1698
 8911TIP3    H248225   4.321   6.493  12.739 -0.6299  0.1903  0.1004
 8912TIP3   OH248226   6.560   3.535   4.178 -0.3714 -0.4947  0.6903
 8912TIP3    H148227   6.551   3.524   4.273 -0.4554 -3.5737  0.4014
 8912TIP3    H248228   6.544   3.449   4.141 -0.4078  0.6213 -2.1832
 8913TIP3   OH248229   4.229   2.413   0.839  0.2080 -0.3401  0.2865
 8913TIP3    H148230   4.171   2.480   0.803 -0.0865 -1.3889 -1.2965
 8913TIP3    H248231   4.201   2.403   0.930  0.5967  2.0117  0.7103
 8914TIP3   OH248232   5.731   4.769   3.107  0.4664 -0.0268 -0.4807
 8914TIP3    H148233   5.723   4.783   3.201 -0.9171 -1.7296 -0.2993
 8914TIP3    H248234   5.808   4.712   3.098 -0.4116 -1.3080 -0.1752
 8915TIP3   OH248235   4.899   0.098   3.285 -0.1436  0.4709  0.6661
 8915TIP3    H148236   4.857   0.177   3.252  0.2747  1.4073  2.2504
 8915TIP3    H248237   4.841   0.027   3.258 -0.2020  1.2227 -1.3346
 8916TIP3   OH248238   6.213   4.929  13.303  0.0680 -0.1901  0.4486
 8916TIP3    H148239   6.242   4.896  13.217  0.5972  1.3601 -0.0029
 8916TIP3    H248240   6.133   4.978  13.284  1.1784  1.7601  0.4705
 8917TIP3   OH248241   5.165   0.842   4.378  0.8260  0.0011  0.3280
 8917TIP3    H148242   5.220   0.790   4.437 -0.8612 -0.0080  2.0155
 8917TIP3    H248243   5.075   0.817   4.401 -0.0142  2.5429  0.1889
 8918TIP3   OH248244   4.372   5.378   3.776 -0.2034 -0.1592  0.1602
 8918TIP3    H148245   4.295   5.372   3.832 -0.4411  1.2031  0.0061
 8918TIP3    H248246   4.374   5.469   3.746  0.7278 -0.4922 -0.8885
 8919TIP3   OH248247   4.615   3.521  14.392  0.2119  0.6215 -0.0215
 8919TIP3    H148248   4.614   3.615  14.410  1.0753  0.4131  1.2017
 8919TIP3    H248249   4.667   3.483  14.463  1.4222 -0.5838 -1.4919
 8920TIP3   OH248250   3.053   4.444  16.343  0.0822 -0.5556  0.0326
 8920TIP3    H148251   3.082   4.356  16.317  0.8004 -0.7845  1.5074
 8920TIP3    H248252   3.030   4.436  16.435  1.2111  1.0265  0.5085
 8921TIP3   OH248253   4.154   2.853   3.763 -0.4890 -0.0071 -0.2833
 8921TIP3    H148254   4.097   2.897   3.699 -0.3022 -1.7321 -1.7195
 8921TIP3    H248255   4.226   2.819   3.711 -0.1792 -1.2363  0.9017
 8922TIP3   OH248256   5.160   2.471   5.450  0.0860  0.0575  0.8049
 8922TIP3    H148257   5.195   2.456   5.538 -0.2912  1.2094  1.1619
 8922TIP3    H248258   5.090   2.534   5.462 -1.5646 -1.5259 -0.0279
 8923TIP3   OH248259   0.497   4.950   1.502 -0.4423 -0.2944  0.2976
 8923TIP3    H148260   0.529   4.901   1.427 -0.5559 -0.1156  0.1343
 8923TIP3    H248261   0.423   4.898   1.535 -2.4980  1.2332 -1.6473
 8924TIP3   OH248262   2.113   3.020  13.402  0.1883 -0.2466  0.8678
 8924TIP3    H148263   2.165   3.092  13.366 -0.5248  0.1474  0.5939
 8924TIP3    H248264   2.025   3.035  13.367 -0.2490 -0.5451  1.8191
 8925TIP3   OH248265   3.253   4.334   5.923  0.2445  1.0428  0.6880
 8925TIP3    H148266   3.339   4.335   5.882 -0.7038 -0.7748 -1.5755
 8925TIP3    H248267   3.258   4.264   5.989  0.7291  1.5213  1.1650
 8926TIP3   OH248268   4.679   4.527   0.784 -0.2635  0.4059 -0.6208
 8926TIP3    H148269   4.662   4.455   0.723  1.0455  0.4132 -1.0257
 8926TIP3    H248270   4.741   4.583   0.738 -0.5570  1.3084  0.0614
 8927TIP3   OH248271   0.477   6.348  12.038  0.6348  0.7345  0.7804
 8927TIP3    H148272   0.425   6.422  12.004  0.8295  0.7905  0.5986
 8927TIP3    H248273   0.517   6.310  11.960  1.0023  0.7969  0.9351
 8928TIP3   OH248274   5.202   4.310   0.489  0.2845 -0.1839  0.1636
 8928TIP3    H148275   5.297   4.303   0.476  0.3221  0.6865 -0.0882
 8928TIP3    H248276   5.192   4.351   0.574  0.1673  1.0062 -0.4091
 8929TIP3   OH248277   5.074   6.555  16.550  0.0752  0.0995  0.2559
 8929TIP3    H148278   5.070   6.513  16.464  0.0659  0.4603  0.0761
 8929TIP3    H248279   5.113   6.489  16.607 -0.4112 -0.3289  0.0926
 8930TIP3   OH248280   3.945   5.811  13.842  0.4440  0.3067  0.0555
 8930TIP3    H148281   4.020   5.771  13.886  0.2176 -0.7172 -0.4444
 8930TIP3    H248282   3.917   5.882  13.900  0.2344 -0.9029  1.4981
 8931TIP3   OH248283   0.062   3.994  12.545 -0.3809 -0.5573  0.4681
 8931TIP3    H148284   0.141   4.039  12.514 -1.1271  0.0214 -0.6789
 8931TIP3    H248285   0.072   3.992  12.640  0.6377  0.2240  0.4040
 8932TIP3   OH248286   4.750   5.907  11.094  0.3490 -0.1064 -0.0909
 8932TIP3    H148287   4.664   5.865  11.092  0.1681  0.2684 -0.2229
 8932TIP3    H248288   4.812   5.834  11.084  0.0074 -0.2419 -1.4033
 8933TIP3   OH248289   3.375   4.536  13.312  0.1221  0.3045 -0.1002
 8933TIP3    H148290   3.409   4.504  13.396  0.9136  0.3721 -0.3786
 8933TIP3    H248291   3.445   4.516  13.250 -1.4072 -1.9814 -1.2308
 8934TIP3   OH248292   0.218   5.236  12.216  0.4793 -0.1136 -0.0700
 8934TIP3    H148293   0.239   5.147  12.245  0.2685 -0.4404 -0.8742
 8934TIP3    H248294   0.139   5.226  12.163 -1.1629  0.9487  2.0228
 8935TIP3   OH248295   2.640   0.634   4.859  0.2160 -0.0048  0.2817
 8935TIP3    H148296   2.584   0.570   4.904 -2.6722  3.2297  1.7608
 8935TIP3    H248297   2.727   0.619   4.895 -0.5366 -2.4489  1.2640
 8936TIP3   OH248298   0.077   2.834   2.235  0.4922  0.0467  0.3213
 8936TIP3    H148299   0.070   2.929   2.245  0.6197  0.0328  0.5313
 8936TIP3    H248300   0.085   2.801   2.324 -0.6317 -0.2465  0.3354
 8937TIP3   OH248301   2.602   6.328   4.835  0.4255 -0.7010  0.4168
 8937TIP3    H148302   2.527   6.383   4.860  0.4344 -0.9406  0.9832
 8937TIP3    H248303   2.628   6.361   4.748 -1.8520 -2.1608 -0.9319
 8938TIP3   OH248304   3.537   5.348   0.369 -0.3491  0.1815 -0.4336
 8938TIP3    H148305   3.532   5.292   0.446 -1.2829  0.2262 -0.4512
 8938TIP3    H248306   3.612   5.314   0.320  0.1100  0.0080  0.3676
 8939TIP3   OH248307   3.715   4.164  12.320  0.1237 -0.0576 -0.2764
 8939TIP3    H148308   3.787   4.102  12.332  1.5028  1.4823 -0.1899
 8939TIP3    H248309   3.689   4.188  12.410 -0.1827 -0.2531 -0.3109
 8940TIP3   OH248310   0.101   1.773   1.132 -0.6943  0.8275  0.4827
 8940TIP3    H148311   0.079   1.787   1.040 -1.8143  0.7459  0.7307
 8940TIP3    H248312   0.152   1.691   1.133  0.0395  1.2654 -0.1487
 8941TIP3   OH248313   6.267   0.965  13.929 -0.0596  0.3008 -0.2153
 8941TIP3    H148314   6.243   1.043  13.978 -0.9699  0.8048 -1.4123
 8941TIP3    H248315   6.183   0.920  13.914 -0.0431  0.8912 -2.4733
 8942TIP3   OH248316   4.066   0.653  11.129 -0.3893  0.2099  0.0611
 8942TIP3    H148317   4.128   0.679  11.061 -1.1279  0.0898 -0.6723
 8942TIP3    H248318   4.033   0.735  11.166  0.0701  0.2742  0.3403
 8943TIP3   OH248319   2.358   5.701   3.153 -0.7443  0.0317 -0.0039
 8943TIP3    H148320   2.388   5.655   3.074  0.0312  0.4533  0.0372
 8943TIP3    H248321   2.425   5.682   3.219  0.3512  2.3175 -0.3697
 8944TIP3   OH248322   3.305   4.543  15.374 -0.5040  0.1854  0.3865
 8944TIP3    H148323   3.387   4.568  15.332  0.3944 -0.8482  1.4532
 8944TIP3    H248324   3.250   4.621  15.369  0.0136  0.4570 -1.5758
 8945TIP3   OH248325   6.047   4.706  13.859  0.3223  0.3112 -0.6333
 8945TIP3    H148326   5.958   4.738  13.865 -0.2189 -0.8550 -1.8368
 8945TIP3    H248327   6.041   4.613  13.880  1.3329  0.2980 -0.3095
 8946TIP3   OH248328   4.233   6.320  15.507 -0.0426  0.0082 -0.2072
 8946TIP3    H148329   4.159   6.260  15.517  0.2470 -0.0961  1.5524
 8946TIP3    H248330   4.307   6.264  15.484 -0.0509 -0.1481  0.1519
 8947TIP3   OH248331   3.341   4.863  13.174 -0.0066 -0.3212 -0.4055
 8947TIP3    H148332   3.340   4.862  13.269 -1.2242 -1.6583 -0.3912
 8947TIP3    H248333   3.433   4.851  13.150  0.2436 -0.4632  0.5961
 8948TIP3   OH248334   6.859   1.730  12.913  0.1907  0.7760 -0.8715
 8948TIP3    H148335   6.788   1.668  12.930  1.2362 -0.0843  0.5558
 8948TIP3    H248336   6.882   1.715  12.821  0.1229 -0.6889 -0.6851
 8949TIP3   OH248337   1.471   3.099  11.403  0.1908  0.1110  0.1645
 8949TIP3    H148338   1.441   3.136  11.320 -0.0844 -1.2774 -0.3876
 8949TIP3    H248339   1.401   3.039  11.430 -0.3864  1.5866  2.1683
 8950TIP3   OH248340   1.324   4.187  14.656  0.3554  0.2296 -0.3102
 8950TIP3    H148341   1.330   4.103  14.611  1.3523 -0.1115  0.4150
 8950TIP3    H248342   1.409   4.197  14.700 -0.8465  0.1238  2.2090
 8951TIP3   OH248343   2.179   5.745  11.223  0.1188 -0.3368 -0.1691
 8951TIP3    H148344   2.144   5.657  11.209  0.2223 -0.4010 -0.0318
 8951TIP3    H248345   2.151   5.768  11.312  1.9023 -1.0979  0.6306
 8952TIP3   OH248346   1.742   2.771   6.399  0.4289  0.2878 -0.2175
 8952TIP3    H148347   1.704   2.857   6.378  1.8351  0.7872 -0.8718
 8952TIP3    H248348   1.825   2.792   6.440 -0.2159 -0.7669  1.7409
 8953TIP3   OH248349   3.674   4.094  16.585  0.3222 -0.0974 -0.5002
 8953TIP3    H148350   3.741   4.152  16.548  0.9698 -0.3434  0.2384
 8953TIP3    H248351   3.721   4.044  16.652 -0.6514 -0.1602  0.1552
 8954TIP3   OH248352   4.662   0.820   2.967 -0.1238 -0.0949  0.3774
 8954TIP3    H148353   4.635   0.737   2.928 -0.7623  0.9161 -1.4205
 8954TIP3    H248354   4.754   0.829   2.942 -0.0223 -0.3082  0.6707
 8955TIP3   OH248355   4.781   3.075   4.737 -0.0011  0.0020  0.0144
 8955TIP3    H148356   4.858   3.041   4.693 -0.2647  0.2664 -0.6617
 8955TIP3    H248357   4.711   3.066   4.672  0.0177  2.3129 -0.3876
 8956TIP3   OH248358   0.396   4.140  11.807 -0.5091 -0.0188  0.1138
 8956TIP3    H148359   0.376   4.081  11.734 -0.3961 -1.8106  1.4751
 8956TIP3    H248360   0.485   4.116  11.834  0.6156  2.6004 -0.9333
 8957TIP3   OH248361   5.305   6.282  14.484  0.5818 -0.2289 -0.2665
 8957TIP3    H148362   5.272   6.371  14.490  1.0768  0.0299 -1.1755
 8957TIP3    H248363   5.296   6.247  14.573 -0.0047  0.5797  0.0026
 8958TIP3   OH248364   3.981   4.835  14.820 -0.0395  0.3632 -0.7181
 8958TIP3    H148365   3.913   4.793  14.768  0.1805 -1.6208  0.5169
 8958TIP3    H248366   4.049   4.768  14.831  1.6447  1.9251 -0.9912
 8959TIP3   OH248367   4.606   1.722   3.676 -0.1038 -0.1501 -0.7161
 8959TIP3    H148368   4.618   1.790   3.742  0.4137 -2.9538  2.3647
 8959TIP3    H248369   4.512   1.723   3.656 -0.4492  0.2043  0.8155
 8960TIP3   OH248370   3.891   4.332  15.020 -0.1086  0.2712 -0.8715
 8960TIP3    H148371   3.877   4.386  14.942 -0.7669  4.8328  2.0536
 8960TIP3    H248372   3.805   4.291  15.035 -0.5877  1.0407 -1.4116
 8961TIP3   OH248373   3.744   1.794  15.132  0.3222  0.1844 -0.6668
 8961TIP3    H148374   3.765   1.702  15.145  0.8759  0.2690 -0.9027
 8961TIP3    H248375   3.661   1.794  15.084  0.5797 -0.2016 -1.1199
 8962TIP3   OH248376   4.257   0.135   6.344  0.2165  0.1282 -0.4677
 8962TIP3    H148377   4.226   0.124   6.433  0.1009 -2.2544 -0.7436
 8962TIP3    H248378   4.211   0.212   6.312 -2.0672 -0.7242  0.5564
 8963TIP3   OH248379   1.841   3.068  13.391 -0.0217 -0.0818  0.9111
 8963TIP3    H148380   1.814   3.153  13.425 -1.4497 -0.1140 -0.0579
 8963TIP3    H248381   1.772   3.008  13.418 -0.5892 -0.3241 -0.9459
 8964TIP3   OH248382   0.360   5.438   3.085 -0.0621  0.0389  0.0110
 8964TIP3    H148383   0.346   5.512   3.144  0.4773 -0.9780  1.4599
 8964TIP3    H248384   0.451   5.412   3.100 -0.3720 -1.2007 -0.1346
 8965TIP3   OH248385   0.461   5.394  11.237 -0.0865  0.0365 -0.3236
 8965TIP3    H148386   0.546   5.350  11.230  0.1878  0.4852  0.1227
 8965TIP3    H248387   0.482   5.488  11.232 -0.0882  0.3966  3.4262
 8966TIP3   OH248388   0.454   1.998   1.353  0.3198 -0.0702  0.5704
 8966TIP3    H148389   0.426   2.085   1.381  0.1195 -0.2175  0.8428
 8966TIP3    H248390   0.538   1.984   1.397  0.2907 -0.0644  0.6279
 8967TIP3   OH248391   1.838   2.801  14.368 -0.0452  0.3365 -0.4447
 8967TIP3    H148392   1.802   2.888  14.388  0.1058 -0.2485  3.0277
 8967TIP3    H248393   1.764   2.752  14.331 -1.0112  1.0776  0.4444
 8968TIP3   OH248394   5.529   2.271  11.627  0.2350 -0.3192  0.0022
 8968TIP3    H148395   5.443   2.311  11.622  0.4934  0.2673  0.2239
 8968TIP3    H248396   5.521   2.206  11.697 -0.2624 -0.8719 -0.5549
 8969TIP3   OH248397   5.570   4.945  10.882  0.0355  0.2628  0.1570
 8969TIP3    H148398   5.553   4.927  10.790  1.3171  0.7385 -0.2002
 8969TIP3    H248399   5.542   5.036  10.894 -2.0826 -0.4263  0.7885
 8970TIP3   OH248400   2.422   6.065  14.923 -0.0799 -0.4583  0.0109
 8970TIP3    H148401   2.367   6.081  14.846  1.0790  0.5109 -0.6346
 8970TIP3    H248402   2.500   6.022  14.889  0.8573  0.8115  0.4883
 8971TIP3   OH248403   6.438   0.829  14.459  0.3013  0.2081  0.4850
 8971TIP3    H148404   6.492   0.905  14.437 -0.8761  0.9384  0.0251
 8971TIP3    H248405   6.498   0.770  14.506  2.5463 -0.6850 -3.0798
 8972TIP3   OH248406   3.684   6.228   3.850  0.0704  0.2407  0.4908
 8972TIP3    H148407   3.709   6.273   3.931 -0.6711  1.6563 -0.0246
 8972TIP3    H248408   3.590   6.215   3.857 -0.7209  3.5390 -1.5017
 8973TIP3   OH248409   5.556   6.437  15.060  0.0321 -0.2928  0.1356
 8973TIP3    H148410   5.625   6.390  15.013 -0.6181  0.2899 -1.4899
 8973TIP3    H248411   5.527   6.375  15.127  1.3300 -0.9849  0.0997
 8974TIP3   OH248412   4.654   6.429   1.536 -0.3331  0.4951  0.4955
 8974TIP3    H148413   4.636   6.434   1.442 -1.2485  0.9745  0.6964
 8974TIP3    H248414   4.750   6.425   1.541 -0.2817  0.2388 -0.4619
 8975TIP3   OH248415   3.123   2.877  11.968  0.1190 -0.0621  0.1189
 8975TIP3    H148416   3.043   2.896  12.017  0.4778  0.6022  0.4549
 8975TIP3    H248417   3.156   2.962  11.943  1.9732 -0.1579  1.9802
 8976TIP3   OH248418   4.141   5.749  14.487  0.3086  0.2217  0.0795
 8976TIP3    H148419   4.133   5.662  14.450  0.5744 -0.7098  2.0857
 8976TIP3    H248420   4.059   5.762  14.536  0.0569  1.3132 -0.5864
 8977TIP3   OH248421   1.676   1.921  11.145 -0.1957  0.4279  0.0525
 8977TIP3    H148422   1.720   1.983  11.203  2.5922  0.0121 -1.4707
 8977TIP3    H248423   1.727   1.841  11.151 -0.2829  0.1316 -2.3491
 8978TIP3   OH248424   3.563   0.566  10.849 -0.4909 -0.1854  0.2044
 8978TIP3    H148425   3.493   0.565  10.784 -1.5425 -0.5787  1.3139
 8978TIP3    H248426   3.602   0.479  10.844  0.0579  0.0918 -0.5371
 8979TIP3   OH248427   0.744   4.425   4.126 -0.3809 -0.4331 -0.1287
 8979TIP3    H148428   0.675   4.363   4.150  0.2334 -1.5140 -1.0691
 8979TIP3    H248429   0.754   4.414   4.031  1.8228 -1.1214  0.1277
 8980TIP3   OH248430   0.327   5.173  17.034  0.7085  0.0166 -0.6640
 8980TIP3    H148431   0.388   5.160  16.961 -1.6533 -1.2051 -2.5812
 8980TIP3    H248432   0.242   5.186  16.992 -0.7504 -0.5350  1.9010
 8981TIP3   OH248433   5.660   1.794   2.037  0.0176 -0.3762 -0.5738
 8981TIP3    H148434   5.733   1.745   2.075 -1.2292 -1.0133  1.0923
 8981TIP3    H248435   5.592   1.728   2.021 -1.3344  0.6077  0.8167
 8982TIP3   OH248436   6.591   6.094   0.796 -0.9370  0.3022  0.4650
 8982TIP3    H148437   6.652   6.090   0.870  0.0066 -0.4184 -0.3262
 8982TIP3    H248438   6.523   6.030   0.818  0.4115 -1.4305 -0.1824
 8983TIP3   OH248439   2.611   1.621  13.388  0.1201  0.6994  0.1423
 8983TIP3    H148440   2.686   1.576  13.346 -0.4768 -0.1135 -0.0795
 8983TIP3    H248441   2.641   1.711  13.398  0.2173  1.0263 -2.3095
 8984TIP3   OH248442   0.144   3.078   4.905  0.3435  0.2391 -0.1314
 8984TIP3    H148443   0.135   2.983   4.911  1.4566 -0.0776 -2.3325
 8984TIP3    H248444   0.184   3.093   4.819  0.5803  2.6822  0.3230
 8985TIP3   OH248445   4.406   4.526   1.725 -0.1804 -0.4526 -0.5245
 8985TIP3    H148446   4.405   4.445   1.777 -1.6100 -1.1364 -1.5760
 8985TIP3    H248447   4.340   4.581   1.766  1.9769  0.9852  1.2931
 8986TIP3   OH248448   6.702   2.145   4.403 -0.4039  0.5259 -0.0171
 8986TIP3    H148449   6.718   2.073   4.463 -1.4708 -0.4565 -0.8546
 8986TIP3    H248450   6.769   2.210   4.424 -0.2339 -0.1470  1.6371
 8987TIP3   OH248451   6.550   1.868  13.995  0.1929 -0.4685 -0.3370
 8987TIP3    H148452   6.624   1.865  13.934  0.1487 -0.8260 -0.3742
 8987TIP3    H248453   6.537   1.961  14.012 -0.8921 -0.2167 -2.2195
 8988TIP3   OH248454   3.512   0.452  11.380 -0.5106 -0.4915 -0.0882
 8988TIP3    H148455   3.607   0.463  11.387 -0.5163 -0.8656  0.7132
 8988TIP3    H248456   3.496   0.447  11.286  0.6063 -3.1520 -0.2437
 8989TIP3   OH248457   4.911   6.344   4.026  0.0117  0.1759 -0.4605
 8989TIP3    H148458   4.938   6.389   4.106 -1.4880 -0.6845  0.5768
 8989TIP3    H248459   4.958   6.261   4.028  0.9377  0.6695 -1.1422
 8990TIP3   OH248460   1.271   0.883   4.999  0.7191 -0.4039 -0.0698
 8990TIP3    H148461   1.362   0.885   4.968 -0.0327 -0.3788 -2.4495
 8990TIP3    H248462   1.243   0.974   4.996 -0.2342 -0.7271 -2.1697
 8991TIP3   OH248463   0.244   4.249   0.981  0.6754  0.1681  0.1730
 8991TIP3    H148464   0.304   4.288   1.044  0.7721 -2.3653  1.7608
 8991TIP3    H248465   0.301   4.205   0.918  0.5212  0.2352 -0.0152
 8992TIP3   OH248466   6.382   4.892   5.403  0.1227  0.1363  0.1248
 8992TIP3    H148467   6.308   4.837   5.429 -0.2711  1.1454  1.2087
 8992TIP3    H248468   6.460   4.841   5.426 -0.2353 -0.1828  0.6470
 8993TIP3   OH248469   4.345   2.341   1.506  0.2197  0.6769 -0.1294
 8993TIP3    H148470   4.252   2.324   1.487  0.0381  1.5605 -0.1141
 8993TIP3    H248471   4.380   2.375   1.424  1.4989 -3.0451 -1.3222
 8994TIP3   OH248472   6.594   1.388   0.264 -0.4715 -0.0697  0.0399
 8994TIP3    H148473   6.619   1.461   0.208  0.3239 -0.5074 -0.1977
 8994TIP3    H248474   6.524   1.422   0.319 -0.4657  0.7113 -0.4265
 8995TIP3   OH248475   5.223   1.631   2.897  0.1650  0.0079 -0.3621
 8995TIP3    H148476   5.177   1.658   2.817  0.2407  2.7093  0.3997
 8995TIP3    H248477   5.165   1.566   2.937 -0.9641  0.2736 -1.4838
 8996TIP3   OH248478   4.649   0.063   5.019 -0.3640  0.1731  0.2359
 8996TIP3    H148479   4.685   0.143   5.058 -1.8447  0.4641  1.0777
 8996TIP3    H248480   4.556   0.083   5.005 -0.4442 -0.8986 -0.9181
 8997TIP3   OH248481   4.971   0.926   2.379  0.3300 -0.0002 -0.2667
 8997TIP3    H148482   4.923   0.966   2.307  0.3788  0.0357 -0.2797
 8997TIP3    H248483   5.017   0.999   2.421  1.5359 -0.2130 -1.1453
 8998TIP3   OH248484   2.258   6.443  11.434  0.6773 -0.4575  0.3692
 8998TIP3    H148485   2.225   6.433  11.345  0.1806  0.8471  0.3851
 8998TIP3    H248486   2.243   6.357  11.475 -2.4884 -0.0916  0.2804
 8999TIP3   OH248487   1.807   4.463  16.696  0.1502 -0.2718 -0.1546
 8999TIP3    H148488   1.735   4.526  16.705 -0.3002 -0.4803 -1.9286
 8999TIP3    H248489   1.778   4.403  16.628  1.4465 -1.1818  0.0622
 9000TIP3   OH248490   2.461   3.210  13.968  0.0281  0.2615  0.4083
 9000TIP3    H148491   2.473   3.176  14.057  0.0956 -0.3614  0.1704
 9000TIP3    H248492   2.368   3.193  13.948 -0.3222  1.5795  0.8296
 9001TIP3   OH248493   0.621   4.167   5.921 -0.2749 -0.0842 -0.2319
 9001TIP3    H148494   0.701   4.114   5.920 -1.0210 -1.2691  0.6428
 9001TIP3    H248495   0.608   4.189   6.013  0.3760  2.2363 -0.6336
 9002TIP3   OH248496   4.062   6.445  13.297  0.2040 -0.0469 -0.4723
 9002TIP3    H148497   4.072   6.353  13.320 -3.3500 -0.3025  0.7277
 9002TIP3    H248498   3.969   6.455  13.275 -0.1069  3.5760  1.4973
 9003TIP3   OH248499   3.438   5.364  15.344 -0.4905  0.1450  0.1649
 9003TIP3    H148500   3.413   5.382  15.435  0.2423  1.3653  0.1537
 9003TIP3    H248501   3.415   5.444  15.297  0.5377  0.1113 -0.4276
 9004TIP3   OH248502   0.158   0.083  13.204  0.1685  0.0538 -0.1689
 9004TIP3    H148503   0.082   0.116  13.156  0.7279 -0.5088 -1.4819
 9004TIP3    H248504   0.205   0.161  13.233  0.6918  0.4485 -1.9649
 9005TIP3   OH248505   6.531   0.865   1.486  0.3873 -0.0090 -0.6983
 9005TIP3    H148506   6.509   0.838   1.576  2.8404  0.6780  0.1772
 9005TIP3    H248507   6.585   0.793   1.453 -0.2153 -0.0904 -1.5236
 9006TIP3   OH248508   2.458   6.346   1.184  0.7283  0.2855  0.1661
 9006TIP3    H148509   2.515   6.345   1.107  0.7790  1.1682  0.1821
 9006TIP3    H248510   2.511   6.387   1.253  0.1593  0.9128  0.2405
 9007TIP3   OH248511   4.562   0.134   3.366  0.2653  0.5117  0.0219
 9007TIP3    H148512   4.587   0.204   3.427  0.2352 -0.3069  1.0103
 9007TIP3    H248513   4.574   0.172   3.279 -0.9858  2.1775  0.5245
 9008TIP3   OH248514   6.491   0.027  15.368 -0.0827  0.1558 -0.1294
 9008TIP3    H148515   6.414   0.001  15.418  0.8869  0.7941  1.7509
 9008TIP3    H248516   6.559  -0.034  15.395  0.1340 -0.3893 -1.7582
 9009TIP3   OH248517   6.848   1.945   1.397 -0.2822  0.4515  0.1864
 9009TIP3    H148518   6.940   1.928   1.380  0.0118  1.0217  1.1568
 9009TIP3    H248519   6.846   2.030   1.442 -1.2215  0.1912  0.6775
 9010TIP3   OH248520   1.105   5.916   1.184 -0.0073  0.5358 -0.0379
 9010TIP3    H148521   1.087   5.980   1.116  0.0109 -0.8781 -1.4364
 9010TIP3    H248522   1.019   5.899   1.224 -0.1796  0.6775 -0.3493
 9011TIP3   OH248523   2.872   2.567   5.168  0.1146 -0.3806 -0.0264
 9011TIP3    H148524   2.792   2.520   5.193  0.0738 -0.7524 -0.8355
 9011TIP3    H248525   2.877   2.639   5.230 -0.7505 -0.4569  0.1531
 9012TIP3   OH248526   1.019   3.398  15.623  0.0284  0.8303  0.3604
 9012TIP3    H148527   0.959   3.462  15.586 -0.7706 -0.4220 -0.5717
 9012TIP3    H248528   1.023   3.327  15.558  3.5505  1.4190 -0.2627
 9013TIP3   OH248529   5.718   0.087   6.180  0.4631  0.2403 -0.3480
 9013TIP3    H148530   5.761   0.010   6.142 -0.6296 -0.1640 -0.8166
 9013TIP3    H248531   5.780   0.159   6.166  1.5376 -0.5630  0.1854
 9014TIP3   OH248532   5.808   2.130   1.843  0.2920  0.4156 -0.9231
 9014TIP3    H148533   5.879   2.067   1.858  0.4796  0.7729 -0.2896
 9014TIP3    H248534   5.731   2.088   1.880  0.8003  1.4048  1.4248
 9015TIP3   OH248535   6.278   5.823  16.767  0.0122  0.2783  0.5445
 9015TIP3    H148536   6.215   5.895  16.769 -0.5951 -0.1420 -1.3502
 9015TIP3    H248537   6.238   5.755  16.822 -0.8448  0.2984 -0.0350
 9016TIP3   OH248538   2.357   6.106  16.557  0.7445  0.6965  0.0076
 9016TIP3    H148539   2.434   6.156  16.532  0.3034  1.3558 -0.0450
 9016TIP3    H248540   2.287   6.139  16.500  0.3610  0.2888  0.2328
 9017TIP3   OH248541   3.230   6.407  15.771 -0.4214 -0.5047  0.2109
 9017TIP3    H148542   3.289   6.367  15.708  0.1961  1.0749 -0.2594
 9017TIP3    H248543   3.288   6.448  15.836 -1.0078 -0.2402  0.5770
 9018TIP3   OH248544   3.104   5.447   0.680 -0.1922  0.1724  0.3917
 9018TIP3    H148545   3.178   5.506   0.693 -0.2621  1.4760 -3.6762
 9018TIP3    H248546   3.027   5.504   0.679 -0.4429 -0.1186 -1.9716
 9019TIP3   OH248547   4.284   6.027  16.114  0.1159 -0.4288  0.0519
 9019TIP3    H148548   4.251   6.078  16.188 -0.4594 -1.5625  0.6083
 9019TIP3    H248549   4.285   6.089  16.041  0.2006  0.5743  0.8756
 9020TIP3   OH248550   3.476   4.148   3.808 -0.0113 -0.8270  0.0038
 9020TIP3    H148551   3.423   4.097   3.746 -0.4303 -0.3518 -0.0324
 9020TIP3    H248552   3.558   4.164   3.761 -1.2609  1.7626 -1.5303
 9021TIP3   OH248553   5.901   0.185  12.534  0.4298 -0.0987 -0.2415
 9021TIP3    H148554   5.898   0.250  12.604 -2.4485 -0.3672 -0.0096
 9021TIP3    H248555   5.954   0.226  12.466  1.9613  0.8271  1.4066
 9022TIP3   OH248556   0.062   1.124  15.892  0.2925  0.3789 -0.1097
 9022TIP3    H148557   0.051   1.088  15.805  1.2516 -1.6100  0.5220
 9022TIP3    H248558   0.151   1.100  15.917  0.8363  2.8288  0.5992
 9023TIP3   OH248559   6.516   2.437  15.492 -0.2361  0.1100  0.2392
 9023TIP3    H148560   6.421   2.451  15.495 -0.2435  0.1503 -0.1192
 9023TIP3    H248561   6.530   2.386  15.412  0.2772  2.0045 -0.9559
 9024TIP3   OH248562   1.485   4.351   3.415  0.3661  0.5081  0.0557
 9024TIP3    H148563   1.390   4.337   3.403  0.5021  0.5618 -1.2804
 9024TIP3    H248564   1.507   4.299   3.493 -1.3388  3.1570  2.4924
 9025TIP3   OH248565   2.691   3.828   2.677 -0.4571  0.1688  0.1808
 9025TIP3    H148566   2.782   3.815   2.705  0.7253  3.6574 -1.4835
 9025TIP3    H248567   2.661   3.902   2.729 -1.8818 -0.0125 -0.3562
 9026TIP3   OH248568   6.353   4.434   6.265 -0.6736 -0.2243  0.0107
 9026TIP3    H148569   6.432   4.381   6.260 -0.5043 -0.0743  1.0146
 9026TIP3    H248570   6.381   4.522   6.241 -0.5287 -0.1684  0.3801
 9027TIP3   OH248571   5.856   5.635  12.810  0.2211  0.2248 -0.2740
 9027TIP3    H148572   5.909   5.675  12.880 -1.4071 -0.5419  1.4872
 9027TIP3    H248573   5.908   5.649  12.731  1.6559  2.1069  0.8844
 9028TIP3   OH248574   0.270   5.662  16.475  0.1139  0.2349 -0.4519
 9028TIP3    H148575   0.254   5.628  16.387  0.9468  0.1822 -0.5957
 9028TIP3    H248576   0.243   5.754  16.471 -2.0453 -0.3500 -0.0911
 9029TIP3   OH248577   2.426   3.305   3.659  0.4254  0.0357  0.2603
 9029TIP3    H148578   2.516   3.331   3.680  1.0387 -0.8645 -1.1101
 9029TIP3    H248579   2.381   3.387   3.642  1.0683  0.4839  0.6352
 9030TIP3   OH248580   3.291   2.956   3.391  0.0009  0.7766  0.4800
 9030TIP3    H148581   3.309   2.889   3.325 -0.3948 -1.2145  2.2445
 9030TIP3    H248582   3.378   2.979   3.426  0.0225 -0.5622  1.3992
 9031TIP3   OH248583   4.999   1.265  13.935  0.2198 -0.0212  0.6230
 9031TIP3    H148584   5.093   1.250  13.929  0.0881 -0.2428 -1.4608
 9031TIP3    H248585   4.966   1.192  13.987  1.2500  0.4381  1.9796
 9032TIP3   OH248586   3.350   1.022   2.430 -0.0542  0.0255 -0.0841
 9032TIP3    H148587   3.442   1.004   2.447 -0.0741  0.1716  0.1778
 9032TIP3    H248588   3.327   1.092   2.491  0.0253  0.9737 -1.1027
 9033TIP3   OH248589   2.870   3.522   4.189  0.3530 -0.1776 -0.2437
 9033TIP3    H148590   2.790   3.572   4.173  0.9540  0.4762 -1.2928
 9033TIP3    H248591   2.839   3.437   4.221 -0.7078  0.5673  0.8148
 9034TIP3   OH248592   0.179   1.969  12.556  0.0590  0.0502 -0.3836
 9034TIP3    H148593   0.179   1.883  12.514  0.7015  0.7023 -1.7983
 9034TIP3    H248594   0.137   2.027  12.493 -0.0792  0.8455  0.4118
 9035TIP3   OH248595   3.175   2.343  14.082 -0.1304  0.5209 -0.6549
 9035TIP3    H148596   3.114   2.392  14.137 -0.3442  1.8024 -1.9656
 9035TIP3    H248597   3.131   2.260  14.064 -0.2024  0.2285  0.7748
 9036TIP3   OH248598   4.293   1.959   1.836 -0.1891  0.0632 -0.1520
 9036TIP3    H148599   4.281   2.023   1.906 -0.6688  0.9762 -1.0417
 9036TIP3    H248600   4.240   1.884   1.864  0.4402  0.0067  0.9390
 9037TIP3   OH248601   4.452   3.729  15.732  0.0444 -0.0058  0.3045
 9037TIP3    H148602   4.414   3.654  15.777  0.2043  0.1935  0.7762
 9037TIP3    H248603   4.542   3.734  15.765  0.5697 -0.5996 -0.9457
 9038TIP3   OH248604   5.956   5.203   2.880 -0.1890 -0.1702  0.6021
 9038TIP3    H148605   6.042   5.244   2.876 -0.4884  0.3762 -0.9493
 9038TIP3    H248606   5.920   5.215   2.792 -1.7170 -0.6746  1.1335
 9039TIP3   OH248607   0.702   5.210  12.084 -0.4659 -0.1036  0.3635
 9039TIP3    H148608   0.692   5.180  12.175 -0.0658 -1.7584 -0.1092
 9039TIP3    H248609   0.654   5.292  12.081 -2.5566 -1.2036  1.4730
 9040TIP3   OH248610   4.151   4.553  13.292 -0.2402  0.4091  0.3145
 9040TIP3    H148611   4.092   4.569  13.365  0.9444 -0.8554  1.5972
 9040TIP3    H248612   4.117   4.473  13.251 -2.4466  2.4786 -2.2172
 9041TIP3   OH248613   3.775   4.560   0.726  0.4785  0.1904 -0.0927
 9041TIP3    H148614   3.756   4.634   0.783  0.8531  0.2984 -0.1110
 9041TIP3    H248615   3.816   4.599   0.649  1.2070 -0.0955  0.1457
 9042TIP3   OH248616   3.645   1.448   1.584 -0.5612  0.1031 -0.3277
 9042TIP3    H148617   3.670   1.540   1.591 -0.5852  0.0543  0.3774
 9042TIP3    H248618   3.596   1.443   1.502 -0.5672  0.7188 -0.3649
 9043TIP3   OH248619   5.908   1.945  12.682 -0.1996 -0.3243 -0.3809
 9043TIP3    H148620   5.963   1.934  12.759  0.7857 -1.1237 -1.1780
 9043TIP3    H248621   5.852   1.868  12.681 -3.5640  1.7737  2.0603
 9044TIP3   OH248622   3.999   2.943  15.061  0.1814 -0.0460  0.9617
 9044TIP3    H148623   3.992   2.914  14.970  0.8378  0.5884  0.7042
 9044TIP3    H248624   3.966   3.033  15.060 -0.0968 -0.1360  1.4156
 9045TIP3   OH248625   5.515   1.494   4.326  0.4463 -0.6082 -0.7648
 9045TIP3    H148626   5.442   1.489   4.265  1.0742  0.2175 -1.5940
 9045TIP3    H248627   5.480   1.543   4.401 -0.2457 -1.4111 -0.5422
 9046TIP3   OH248628   5.938   4.786  14.223 -0.0571  0.6365  0.3226
 9046TIP3    H148629   5.980   4.869  14.246  1.4149 -0.4472  1.7891
 9046TIP3    H248630   5.972   4.723  14.287 -1.3796 -1.0399 -0.5381
 9047TIP3   OH248631   3.270   5.568  13.188  0.3202  0.2145 -0.0198
 9047TIP3    H148632   3.249   5.545  13.279 -0.6069  0.8337 -0.0703
 9047TIP3    H248633   3.348   5.517  13.169  1.6870  1.4722  1.7586
 9048TIP3   OH248634   3.049   5.434   5.834 -0.1166 -0.0061 -0.1975
 9048TIP3    H148635   2.996   5.468   5.907  0.4512 -0.3719  0.3928
 9048TIP3    H248636   3.130   5.485   5.838  1.4346 -2.4036  1.7008
 9049TIP3   OH248637   3.244   4.991  12.834  0.5397 -0.2384  0.5517
 9049TIP3    H148638   3.260   5.072  12.785  2.1399 -1.7683 -1.6307
 9049TIP3    H248639   3.312   4.990  12.901  1.2997 -0.3400 -0.2078
 9050TIP3   OH248640   5.019   6.125   1.083 -0.1783  0.8195  0.0018
 9050TIP3    H148641   4.990   6.051   1.030  2.0445  0.3333 -0.6293
 9050TIP3    H248642   4.955   6.194   1.064 -3.1035 -1.2057  1.6026
 9051TIP3   OH248643   0.134   1.410  13.511  0.1070 -0.2937 -0.2227
 9051TIP3    H148644   0.111   1.321  13.485  1.0406 -0.5044 -0.3793
 9051TIP3    H248645   0.188   1.399  13.589  0.5084  0.1082 -0.4386
 9052TIP3   OH248646   3.789   6.430  16.555 -0.4090 -0.5216 -0.7676
 9052TIP3    H148647   3.766   6.481  16.477 -1.0417  2.8156  1.4040
 9052TIP3    H248648   3.719   6.449  16.617  1.9784  0.1153  1.9306
 9053TIP3   OH248649   3.663   5.525  12.608 -0.6809  0.2201  1.2011
 9053TIP3    H148650   3.627   5.613  12.598 -0.7464  0.0205 -0.6927
 9053TIP3    H248651   3.588   5.467  12.591  0.2438 -0.1963 -2.2497
 9054TIP3   OH248652   4.143   6.585   2.763 -0.2238  0.3671  0.0343
 9054TIP3    H148653   4.208   6.617   2.700 -0.0801  1.3514  0.6692
 9054TIP3    H248654   4.172   6.617   2.847  1.3183 -3.4904  1.1941
 9055TIP3   OH248655   5.125   6.573  11.776  0.0572 -0.7575 -0.1782
 9055TIP3    H148656   5.129   6.479  11.761 -2.3570 -1.1473  1.2400
 9055TIP3    H248657   5.134   6.583  11.871  1.9330  0.6169 -0.4420
 9056TIP3   OH248658   2.287   1.416   1.449 -0.1122  0.2168 -0.4377
 9056TIP3    H148659   2.237   1.337   1.429 -1.2665  0.3484  1.6085
 9056TIP3    H248660   2.239   1.487   1.405 -1.2342  0.2076  0.6993
 9057TIP3   OH248661   1.288   5.193  15.939 -0.1878 -0.4781  0.2807
 9057TIP3    H148662   1.355   5.256  15.912 -0.3437  0.4921  2.0297
 9057TIP3    H248663   1.334   5.109  15.942  0.4680 -0.1566 -0.3417
 9058TIP3   OH248664   3.884   3.553  14.628  0.0676 -0.3855  0.1611
 9058TIP3    H148665   3.878   3.458  14.619  1.8481 -0.4543 -0.5884
 9058TIP3    H248666   3.945   3.581  14.559  0.5852  1.1518  1.1733
 9059TIP3   OH248667   4.140   4.259  15.279  0.9793  0.2045 -0.2970
 9059TIP3    H148668   4.190   4.331  15.241  0.8146  1.3442  1.5523
 9059TIP3    H248669   4.126   4.284  15.370 -1.4240 -0.9067 -0.2894
 9060TIP3   OH248670   4.551   1.802   1.718 -0.3901  1.2492 -0.9187
 9060TIP3    H148671   4.534   1.867   1.650 -0.7407  0.2093 -1.8631
 9060TIP3    H248672   4.593   1.729   1.672  0.7309  1.1241  0.2578
 9061TIP3   OH248673   1.209   4.857   1.846  0.0728  0.0092  0.0245
 9061TIP3    H148674   1.118   4.878   1.825  0.1654  1.3824  0.8596
 9061TIP3    H248675   1.253   4.850   1.762 -0.4700  0.9756 -0.3522
 9062TIP3   OH248676   1.959   6.217   1.672  0.2382 -0.2373 -0.0125
 9062TIP3    H148677   1.905   6.228   1.594  0.3082 -0.4888 -0.0962
 9062TIP3    H248678   2.049   6.230   1.641  0.1832  0.9351  0.2638
 9063TIP3   OH248679   6.388   5.628  14.725 -0.1041 -0.0346  0.0907
 9063TIP3    H148680   6.305   5.614  14.681 -0.5007 -0.0987  0.8415
 9063TIP3    H248681   6.366   5.679  14.803  0.8324  1.7277 -0.7233
 9064TIP3   OH248682   0.385   0.672  14.188  0.6955  0.3199  0.1443
 9064TIP3    H148683   0.387   0.576  14.188  0.7935  0.3139  1.0119
 9064TIP3    H248684   0.298   0.694  14.221 -0.0517  0.5451 -1.8624
 9065TIP3   OH248685   1.981   4.936  12.636  0.1339  0.2374  0.2919
 9065TIP3    H148686   2.069   4.909  12.609 -0.2483  0.2111 -0.9665
 9065TIP3    H248687   1.966   5.018  12.590 -0.1605  0.7150  1.2119
 9066TIP3   OH248688   4.056   2.777  10.799  0.4861 -0.5300  0.7418
 9066TIP3    H148689   4.015   2.860  10.776  1.7909 -0.4708 -1.5935
 9066TIP3    H248690   4.149   2.791  10.786  0.8219 -2.0923  1.2718
 9067TIP3   OH248691   4.251   5.699   0.155  0.3555  0.2144  0.0359
 9067TIP3    H148692   4.156   5.715   0.152  0.1750 -0.9161 -1.2362
 9067TIP3    H248693   4.280   5.709   0.065  0.9402 -2.1962 -0.1079
 9068TIP3   OH248694   0.255   0.264   1.837  0.2642  0.2714  0.0439
 9068TIP3    H148695   0.182   0.227   1.888  1.1850 -1.6070  0.0995
 9068TIP3    H248696   0.217   0.282   1.751 -0.9592  2.1319  0.9068
 9069TIP3   OH248697   6.318   2.857   3.045 -0.5924 -0.2889  0.2508
 9069TIP3    H148698   6.369   2.909   3.108  1.4361 -1.2762 -0.4966
 9069TIP3    H248699   6.295   2.919   2.976 -2.0654  0.5937  1.4773
 9070TIP3   OH248700   4.214   0.959   1.767 -0.1724  0.3675  0.6222
 9070TIP3    H148701   4.121   0.973   1.748 -0.8715 -2.5119  1.3393
 9070TIP3    H248702   4.214   0.921   1.855  1.2802 -2.8542 -0.6360
 9071TIP3   OH248703   0.163   1.805  15.704 -0.4100  0.2176 -0.5987
 9071TIP3    H148704   0.112   1.838  15.779  0.3926  1.5922 -0.6242
 9071TIP3    H248705   0.106   1.738  15.665 -1.9565  1.2690 -0.2708
 9072TIP3   OH248706   3.092   6.672  14.651 -0.4717  0.1533 -0.0046
 9072TIP3    H148707   3.111   6.759  14.617 -0.4646  0.3142  0.4055
 9072TIP3    H248708   3.145   6.613  14.597 -0.1677  0.4375 -0.0210
 9073TIP3   OH248709   1.932   0.963  11.222 -0.1873  0.0838  0.1587
 9073TIP3    H148710   1.989   0.886  11.216 -0.3199 -0.1814  1.7988
 9073TIP3    H248711   1.856   0.932  11.273  0.5757  1.7267  2.4223
 9074TIP3   OH248712   3.046   5.980   4.220 -0.0062  0.8019  0.5982
 9074TIP3    H148713   3.053   6.064   4.174  0.7372  0.3611 -0.1070
 9074TIP3    H248714   2.990   5.927   4.164  1.3625  0.0682 -0.1184
 9075TIP3   OH248715   0.362   3.610  11.875 -0.0273 -0.3486  0.0431
 9075TIP3    H148716   0.300   3.668  11.831 -0.5425 -0.6422  0.3716
 9075TIP3    H248717   0.347   3.524  11.836  1.0500 -0.1898 -0.7644
 9076TIP3   OH248718   0.725   3.496   0.191 -0.2962  0.7293 -0.2993
 9076TIP3    H148719   0.710   3.482   0.284 -0.3131 -2.5590 -0.6820
 9076TIP3    H248720   0.820   3.500   0.182 -0.0081 -3.1529 -0.4629
 9077TIP3   OH248721   1.838   6.063  12.945 -0.0479  0.0253 -0.4651
 9077TIP3    H148722   1.816   6.019  12.863 -1.4844 -0.0637 -0.0514
 9077TIP3    H248723   1.866   5.993  13.003  1.4134  0.1363 -0.9808
 9078TIP3   OH248724   6.737   1.268  12.395  0.3950  0.0025 -0.0746
 9078TIP3    H148725   6.642   1.281  12.394  0.3178 -0.2502  1.7229
 9078TIP3    H248726   6.755   1.221  12.476  2.0440 -0.1888 -0.5060
 9079TIP3   OH248727   4.133   1.687  14.791 -0.7949  0.2587 -0.1958
 9079TIP3    H148728   4.093   1.695  14.878  2.7072 -0.5918  1.6746
 9079TIP3    H248729   4.105   1.600  14.760 -1.1662  0.0767  0.6130
 9080TIP3   OH248730   3.094   4.236  13.012 -0.3041  0.2082  0.1679
 9080TIP3    H148731   3.001   4.250  12.993 -0.2059 -0.0324 -0.4868
 9080TIP3    H248732   3.140   4.266  12.934  0.1015 -0.7752  0.0172
 9081TIP3   OH248733   4.920   2.158  11.896  0.8619 -0.0774  0.4897
 9081TIP3    H148734   4.930   2.166  11.801 -0.2491  0.2439  0.3850
 9081TIP3    H248735   4.899   2.066  11.910  0.5234 -0.0168  0.3752
 9082TIP3   OH248736   2.359   5.234  14.979  0.2238  0.3092 -0.0447
 9082TIP3    H148737   2.375   5.292  15.053  1.0072 -0.0965  0.1069
 9082TIP3    H248738   2.366   5.146  15.015  0.9365  0.1040 -0.6581
 9083TIP3   OH248739   5.415   3.472  12.677 -0.2502 -0.2548 -0.5306
 9083TIP3    H148740   5.508   3.463  12.656 -0.4950  0.6669 -2.2657
 9083TIP3    H248741   5.409   3.557  12.721 -0.3100 -0.1231 -0.7885
 9084TIP3   OH248742   3.556   2.086  11.578  0.1560  0.4946 -0.6920
 9084TIP3    H148743   3.494   2.151  11.611 -0.8447 -0.6391 -0.2143
 9084TIP3    H248744   3.622   2.079  11.647  0.7160  1.5531 -1.1021
 9085TIP3   OH248745   3.625   3.827  16.590 -0.1396  0.0138 -0.2652
 9085TIP3    H148746   3.594   3.918  16.587  1.0934  0.5142  0.9900
 9085TIP3    H248747   3.705   3.831  16.642  0.2119 -1.7308 -0.6174
 9086TIP3   OH248748   3.322   3.896   1.185 -0.5658  0.1405 -0.4811
 9086TIP3    H148749   3.389   3.901   1.253 -0.1554 -1.2896 -0.7444
 9086TIP3    H248750   3.286   3.985   1.180 -0.4756  0.3208  1.4458
 9087TIP3   OH248751   4.659   6.770   2.378  0.0616  0.2812 -0.3694
 9087TIP3    H148752   4.628   6.757   2.288  2.8624 -0.6875 -1.2758
 9087TIP3    H248753   4.674   6.864   2.384 -0.1040  0.3497 -0.9221
 9088TIP3   OH248754   5.472   6.683  16.352 -0.4735  0.5565  0.2928
 9088TIP3    H148755   5.538   6.740  16.392 -0.8382 -0.3618  2.3766
 9088TIP3    H248756   5.400   6.742  16.329  0.5967  1.4118 -1.0275
 9089TIP3   OH248757   0.191   0.429   2.812 -0.0238 -0.6091  0.1555
 9089TIP3    H148758   0.275   0.399   2.848 -0.4678 -2.5146 -0.3103
 9089TIP3    H248759   0.163   0.498   2.873  2.0104  0.3289  0.1256
 9090TIP3   OH248760   4.062   6.592  16.189  0.1558  0.1212  0.8132
 9090TIP3    H148761   4.131   6.630  16.135 -1.4825  2.0332 -0.0565
 9090TIP3    H248762   4.002   6.550  16.127  0.1820 -0.9649  1.4970
 9091TIP3   OH248763   5.137   5.550   2.837 -0.9034  0.0382 -0.7459
 9091TIP3    H148764   5.136   5.455   2.850  0.6424  0.0292 -0.5840
 9091TIP3    H248765   5.060   5.567   2.782 -2.8229 -0.9349  1.4978
 9092TIP3   OH248766   3.709   3.579   3.968 -0.7323  0.4196  0.1721
 9092TIP3    H148767   3.661   3.619   3.895  0.4385 -1.4219 -1.7259
 9092TIP3    H248768   3.801   3.598   3.949 -0.1257 -2.7811 -0.7244
 9093TIP3   OH248769   1.720   1.755  14.692 -0.1175 -0.3681 -0.3493
 9093TIP3    H148770   1.708   1.807  14.612  2.3231  0.6164 -0.1695
 9093TIP3    H248771   1.815   1.750  14.703 -0.3559 -2.1645  1.4463
 9094TIP3   OH248772   6.612   4.892  15.632 -0.1734 -0.2211 -0.0644
 9094TIP3    H148773   6.677   4.927  15.572 -0.2883 -1.2919 -0.8277
 9094TIP3    H248774   6.575   4.970  15.675 -0.4644  0.6114 -1.7568
 9095TIP3   OH248775   0.193   6.056   2.442 -0.7105  0.0325 -0.0337
 9095TIP3    H148776   0.098   6.042   2.446 -0.3080 -3.4212  0.1511
 9095TIP3    H248777   0.211   6.067   2.349 -1.2545  0.4088 -0.1005
 9096TIP3   OH248778   4.830   3.344   3.693 -0.4613 -0.7971 -0.3076
 9096TIP3    H148779   4.801   3.314   3.779  1.6528 -0.2680  0.6687
 9096TIP3    H248780   4.842   3.439   3.703  2.1101 -1.0465 -0.3779
 9097TIP3   OH248781   3.195   5.221  12.624  0.3568  0.1228  0.1039
 9097TIP3    H148782   3.179   5.314  12.606 -1.5964 -0.1032  0.4951
 9097TIP3    H248783   3.146   5.175  12.556  1.6149 -0.6466 -0.3150
 9098TIP3   OH248784   1.335   3.823  15.214 -1.0281  0.4549  0.3299
 9098TIP3    H148785   1.342   3.842  15.308 -1.6401 -0.4418  0.5658
 9098TIP3    H248786   1.411   3.768  15.196 -1.8566 -0.8768  0.7142
 9099TIP3   OH248787   2.288   0.338  16.111 -0.0826  0.3533 -0.0046
 9099TIP3    H148788   2.342   0.408  16.075  0.0139  0.1392 -0.2783
 9099TIP3    H248789   2.350   0.275  16.147 -0.2066  1.2740  1.8983
 9100TIP3   OH248790   4.955   2.797  15.201  0.1743  0.3051  0.2831
 9100TIP3    H148791   5.027   2.809  15.139  0.3600  2.2160  0.8140
 9100TIP3    H248792   4.878   2.780  15.146  0.1132  3.0426 -0.6212
 9101TIP3   OH248793   0.906   1.476   6.218  0.7303  0.4217 -0.5140
 9101TIP3    H148794   0.972   1.527   6.171  0.5492  0.2455 -0.9655
 9101TIP3    H248795   0.830   1.475   6.160  0.5968 -0.0308 -0.3349
 9102TIP3   OH248796   3.470   2.780  12.120  0.3073  0.0504 -0.7133
 9102TIP3    H148797   3.402   2.836  12.156 -1.9841 -2.1770 -1.2652
 9102TIP3    H248798   3.507   2.735  12.196  2.0274  2.0242 -0.2917
 9103TIP3   OH248799   3.164   1.066   1.854 -0.0013  0.0298 -0.0979
 9103TIP3    H148800   3.208   1.051   1.938  0.1595  0.0179 -0.1841
 9103TIP3    H248801   3.084   1.013   1.859  0.1202 -0.1489 -0.0437
 9104TIP3   OH248802   3.537   0.827  16.306 -0.1563 -0.2990 -0.3448
 9104TIP3    H148803   3.610   0.876  16.345 -0.7157  0.7974 -0.6177
 9104TIP3    H248804   3.531   0.862  16.217 -1.9944  0.7713  0.1578
 9105TIP3   OH248805   2.671   0.385   0.748  0.5194  0.2141 -0.1374
 9105TIP3    H148806   2.609   0.368   0.677  0.2107  2.3120 -0.4298
 9105TIP3    H248807   2.620   0.435   0.812  1.0645 -0.8242  1.1388
 9106TIP3   OH248808   1.764   0.906  12.274  0.8197  0.3747  0.3573
 9106TIP3    H148809   1.696   0.961  12.234  1.5780  0.1267 -1.3625
 9106TIP3    H248810   1.803   0.859  12.200  0.3597 -2.3543  1.6937
 9107TIP3   OH248811   2.313   5.362  11.239 -0.6061 -0.3834 -0.6493
 9107TIP3    H148812   2.377   5.298  11.210  0.2088  0.3434 -0.4895
 9107TIP3    H248813   2.270   5.392  11.159 -0.1165 -0.2145 -0.8501
 9108TIP3   OH248814   3.388   1.003  14.879 -0.2279 -0.1271  0.2230
 9108TIP3    H148815   3.415   0.936  14.816  0.6755  0.6143 -0.2057
 9108TIP3    H248816   3.298   1.024  14.854  0.0905  0.1090 -0.8074
 9109TIP3   OH248817   3.105   4.255  10.511  0.3184 -0.3608  0.3709
 9109TIP3    H148818   3.197   4.259  10.486  0.6588  0.9536  1.7060
 9109TIP3    H248819   3.097   4.175  10.562  1.2188  0.5016  1.9464
 9110TIP3   OH248820   0.102   0.850  14.059 -0.0253 -0.3588  0.0722
 9110TIP3    H148821   0.129   0.804  13.979 -1.3190 -1.3194  0.1678
 9110TIP3    H248822   0.058   0.783  14.112  1.5508  0.0428  2.0056
 9111TIP3   OH248823   1.881   5.246   5.639 -1.1248  0.6867 -0.0730
 9111TIP3    H148824   1.947   5.227   5.573 -1.3949 -0.2815 -0.0859
 9111TIP3    H248825   1.829   5.165   5.644 -2.5085  1.5386 -0.3052
 9112TIP3   OH248826   4.904   0.468  12.134  0.5209 -0.2563  0.4092
 9112TIP3    H148827   4.883   0.517  12.213 -0.5063  1.0680 -0.6554
 9112TIP3    H248828   4.979   0.413  12.159  0.6876  0.6826  2.0688
 9113TIP3   OH248829   4.236   4.632   0.373 -0.4666 -0.5627 -0.0641
 9113TIP3    H148830   4.275   4.718   0.390 -2.1249 -0.1720  2.2938
 9113TIP3    H248831   4.163   4.650   0.314  0.0415 -0.5898 -0.7111
 9114TIP3   OH248832   5.523   1.610   0.831  0.7284  0.2210  0.6959
 9114TIP3    H148833   5.495   1.671   0.763 -0.1742 -0.2546  0.6292
 9114TIP3    H248834   5.617   1.599   0.816  0.7117  0.8391  0.1074
 9115TIP3   OH248835   0.423   4.014   0.584 -0.2524 -0.5294 -0.6684
 9115TIP3    H148836   0.341   3.992   0.540 -0.5247 -0.7261 -0.0740
 9115TIP3    H248837   0.491   3.978   0.528 -0.5933 -0.7963 -0.9166
 9116TIP3   OH248838   4.993   6.627   3.393 -0.3764  0.1524 -0.1788
 9116TIP3    H148839   4.913   6.670   3.365 -0.3055  0.3688 -0.0539
 9116TIP3    H248840   4.985   6.538   3.360  0.2184  0.6909 -1.9100
 9117TIP3   OH248841   4.570   2.479  13.561  0.2031  0.2275  0.0128
 9117TIP3    H148842   4.630   2.536  13.610  0.0903  1.3124 -1.0543
 9117TIP3    H248843   4.547   2.410  13.623 -0.0436  1.6147  1.5361
 9118TIP3   OH248844   2.872   0.297  16.181  0.6821 -0.2215 -0.2852
 9118TIP3    H148845   2.844   0.273  16.093 -1.0278  0.0644  0.1483
 9118TIP3    H248846   2.939   0.232  16.203 -0.4970 -1.7073 -0.9179
 9119TIP3   OH248847   4.583   1.672  16.905  0.4037  0.3016 -0.2196
 9119TIP3    H148848   4.651   1.740  16.906  1.9194 -1.1332 -0.0155
 9119TIP3    H248849   4.610   1.612  16.836  0.1108 -1.0282  0.7711
 9120TIP3   OH248850   5.829   2.097   6.580 -0.0053 -0.2655  0.1219
 9120TIP3    H148851   5.874   2.178   6.604  0.1240 -0.0208 -0.8893
 9120TIP3    H248852   5.897   2.030   6.577  0.5216  0.2871 -2.3030
 9121TIP3   OH248853   6.025   2.648   4.190  0.2180 -0.1672  0.1789
 9121TIP3    H148854   5.935   2.667   4.164  0.0155 -2.1254 -0.7263
 9121TIP3    H248855   6.065   2.734   4.201 -1.5236  0.7480 -0.1846
 9122TIP3   OH248856   3.797   4.349   3.443 -0.6767  0.2207 -0.4485
 9122TIP3    H148857   3.753   4.271   3.477  0.0679  0.1082  0.2783
 9122TIP3    H248858   3.810   4.405   3.519  1.4697 -0.2489 -0.4006
 9123TIP3   OH248859   6.860   5.954   3.127  0.5691  0.2841 -0.2855
 9123TIP3    H148860   6.805   5.875   3.122  1.5128 -0.3806 -0.3388
 9123TIP3    H248861   6.801   6.021   3.161  0.1978 -0.8905  1.5494
 9124TIP3   OH248862   1.314   6.047  11.269  0.4548  0.2639  0.0281
 9124TIP3    H148863   1.252   6.116  11.245 -1.5880 -1.4378  0.0435
 9124TIP3    H248864   1.325   6.055  11.363  0.0216  0.4309  0.0655
 9125TIP3   OH248865   4.873   5.197  14.538 -0.0533 -0.1127 -0.5626
 9125TIP3    H148866   4.804   5.195  14.471 -0.9385 -0.3213  0.3267
 9125TIP3    H248867   4.910   5.109  14.537 -1.0714 -0.5786  0.2051
 9126TIP3   OH248868   1.707   1.844   4.143 -0.1985 -0.1129 -0.7673
 9126TIP3    H148869   1.636   1.787   4.115 -0.5510  0.1627 -0.4563
 9126TIP3    H248870   1.784   1.815   4.094 -0.1146 -1.5543  0.1590
 9127TIP3   OH248871   4.083   2.110   4.530 -0.2479 -0.8340 -0.0318
 9127TIP3    H148872   4.014   2.052   4.560 -0.1847 -0.7439  0.2907
 9127TIP3    H248873   4.037   2.179   4.482 -0.5745  0.2390  1.7468
 9128TIP3   OH248874   0.750   3.693  10.745  0.1898  0.1064 -0.0906
 9128TIP3    H148875   0.813   3.700  10.817 -1.4024 -0.8299  1.4889
 9128TIP3    H248876   0.801   3.660  10.671  1.7530  0.4573  0.7884
 9129TIP3   OH248877   0.080   2.297  13.760  0.0599 -0.0185 -0.4445
 9129TIP3    H148878   0.029   2.219  13.742  0.8565 -0.8851  0.9263
 9129TIP3    H248879   0.158   2.266  13.806 -0.0391  1.6704  0.9730
 9130TIP3   OH248880   3.959   6.404   3.651 -0.0189  0.4474  0.4086
 9130TIP3    H148881   4.021   6.405   3.578 -1.0929  0.9508 -0.5280
 9130TIP3    H248882   3.909   6.323   3.639  0.1290  0.2808  0.8857
 9131TIP3   OH248883   6.365   4.037  15.037  0.3906 -0.5710 -0.3104
 9131TIP3    H148884   6.331   3.955  15.072  1.3064  0.0571  2.3568
 9131TIP3    H248885   6.288   4.082  15.002 -0.0315 -2.7398 -2.4306
 9132TIP3   OH248886   0.073   2.682  12.750 -0.5519 -0.4210 -0.6668
 9132TIP3    H148887   0.053   2.776  12.751 -0.8126 -0.4681 -1.5106
 9132TIP3    H248888   0.166   2.678  12.727 -0.4803 -0.3644 -0.3946
 9133TIP3   OH248889   3.849   4.776   3.392 -0.5137 -0.1173  0.0223
 9133TIP3    H148890   3.793   4.715   3.344 -1.1562  0.1781  0.3732
 9133TIP3    H248891   3.790   4.815   3.457 -0.4846  1.9070 -1.1006
 9134TIP3   OH248892   2.647   3.973   2.975 -0.7615 -0.1668  0.0459
 9134TIP3    H148893   2.729   3.995   3.018  0.1039 -2.9968  0.0537
 9134TIP3    H248894   2.612   4.056   2.944  0.3009  1.5705  3.1569
 9135TIP3   OH248895   3.127   0.648  14.313 -0.1573 -0.0775  0.4586
 9135TIP3    H148896   3.191   0.601  14.366 -2.6752 -1.2899  2.6828
 9135TIP3    H248897   3.066   0.579  14.284 -0.3530  0.9653 -1.8041
 9136TIP3   OH248898   1.000   2.688   2.488  0.0782  0.1853  0.7365
 9136TIP3    H148899   1.054   2.611   2.505 -1.5603 -1.6926 -1.8230
 9136TIP3    H248900   0.992   2.730   2.573  1.8629 -1.9020  2.0643
 9137TIP3   OH248901   3.434   1.813   4.441 -0.2172 -0.5790 -0.0223
 9137TIP3    H148902   3.340   1.799   4.426 -0.6557  0.7291  1.2390
 9137TIP3    H248903   3.464   1.860   4.363 -0.2052 -2.4031 -1.1812
 9138TIP3   OH248904   0.624   0.204   1.147  0.4020  0.9521  0.3474
 9138TIP3    H148905   0.547   0.150   1.164  0.1741  1.5612  1.2967
 9138TIP3    H248906   0.698   0.150   1.177  0.2315  0.9170  0.7091
 9139TIP3   OH248907   2.801   4.918  16.035 -0.2024  0.5521  0.0744
 9139TIP3    H148908   2.742   4.845  16.023  1.2394 -0.6782  0.1142
 9139TIP3    H248909   2.746   4.990  16.066 -1.7233 -0.3625 -0.4467
 9140TIP3   OH248910   4.267   6.138  16.644 -0.4573 -0.2801  0.3792
 9140TIP3    H148911   4.335   6.079  16.676  0.6635  0.1382 -1.1576
 9140TIP3    H248912   4.267   6.211  16.706 -1.5491 -1.6199  2.0412
 9141TIP3   OH248913   5.932   2.721   1.754  0.2730  0.4586 -0.0717
 9141TIP3    H148914   5.979   2.803   1.741  2.5973 -0.5577  1.1341
 9141TIP3    H248915   5.983   2.675   1.822 -0.7877 -2.0556 -0.8436
 9142TIP3   OH248916   3.705   1.981   5.711  0.0369 -0.5560 -0.2278
 9142TIP3    H148917   3.757   1.964   5.790 -1.0918 -0.4058  0.5709
 9142TIP3    H248918   3.762   1.955   5.639  0.5147 -2.2553  0.7065
 9143TIP3   OH248919   6.172   1.912   6.053  0.5508 -0.3696 -0.8145
 9143TIP3    H148920   6.166   1.986   5.991  1.9513  1.9958  1.6828
 9143TIP3    H248921   6.094   1.921   6.108 -0.2066 -1.9212 -1.5572
 9144TIP3   OH248922   3.627   2.431  11.700  0.4320  0.2693  0.2787
 9144TIP3    H148923   3.652   2.401  11.787  1.3755 -2.4282 -0.8023
 9144TIP3    H248924   3.703   2.478  11.667 -0.4303  2.5207  1.3613
 9145TIP3   OH248925   6.144   0.214  13.717 -0.3297 -0.5816  0.2131
 9145TIP3    H148926   6.085   0.260  13.777  1.1042  2.9647 -0.7982
 9145TIP3    H248927   6.229   0.255  13.733  0.9204 -2.3709 -1.4852
 9146TIP3   OH248928   0.897   4.136  16.470 -0.5055  0.1764  0.3132
 9146TIP3    H148929   0.840   4.119  16.545  0.5849  0.3229  1.2022
 9146TIP3    H248930   0.875   4.067  16.407 -0.5850 -0.7091  1.2766
 9147TIP3   OH248931   3.915   6.169   0.194 -0.4138 -0.3146  0.0762
 9147TIP3    H148932   3.848   6.108   0.165 -1.3317  0.7302 -0.0571
 9147TIP3    H248933   3.996   6.118   0.192 -1.3354 -1.9152  1.3066
 9148TIP3   OH248934   5.621   4.421   4.676 -0.4385 -0.0868 -0.3195
 9148TIP3    H148935   5.639   4.491   4.738  0.4936  0.6015 -1.3411
 9148TIP3    H248936   5.649   4.341   4.721 -1.3198  0.1891  0.7660
 9149TIP3   OH248937   5.067   5.702  14.753 -0.0957 -0.1690  0.5930
 9149TIP3    H148938   5.043   5.785  14.795  0.2507  1.4022 -2.0304
 9149TIP3    H248939   5.044   5.715  14.661  1.4977 -2.3917 -0.2023
 9150TIP3   OH248940   0.816   0.970  15.749 -0.5591  0.1102  0.6796
 9150TIP3    H148941   0.836   0.894  15.803 -0.9863 -0.5019  0.0060
 9150TIP3    H248942   0.886   0.972  15.683 -0.7094  0.1148  0.5170
 9151TIP3   OH248943   1.304   4.196   4.982 -0.2347  0.5851  0.4024
 9151TIP3    H148944   1.354   4.115   4.992 -0.8817  0.2281  0.8608
 9151TIP3    H248945   1.264   4.210   5.068 -0.2357  1.3245  0.2877
 9152TIP3   OH248946   4.457   0.309   5.987 -0.5890 -0.0343 -0.0204
 9152TIP3    H148947   4.553   0.312   5.983 -0.5785 -0.0266  0.1925
 9152TIP3    H248948   4.434   0.375   6.053 -0.6300 -1.3400  1.3157
 9153TIP3   OH248949   2.088   0.988  11.696  0.1820 -0.0837  0.0885
 9153TIP3    H148950   2.071   1.012  11.605  1.2817  0.1820 -0.0633
 9153TIP3    H248951   2.015   1.026  11.746  0.2622  0.8984 -0.5284
 9154TIP3   OH248952   3.986   5.312  14.850 -0.2006  0.2723 -0.3573
 9154TIP3    H148953   4.042   5.234  14.847  0.1240  0.4923 -0.1088
 9154TIP3    H248954   4.016   5.359  14.927 -1.6363 -0.2703  0.5645
 9155TIP3   OH248955   5.176   0.769  12.441 -0.2122  0.0966 -0.2552
 9155TIP3    H148956   5.245   0.785  12.376 -0.8137  0.9600 -0.6949
 9155TIP3    H248957   5.095   0.766  12.390 -0.9756  2.9682  0.6311
 9156TIP3   OH248958   3.649   6.474  14.309  0.1559  0.3266  0.0167
 9156TIP3    H148959   3.726   6.470  14.365  0.0910  0.6621  0.1326
 9156TIP3    H248960   3.577   6.495  14.368 -0.5885 -2.8703  0.4331
 9157TIP3   OH248961   4.414   3.759   5.360 -0.1525 -0.1883  0.1505
 9157TIP3    H148962   4.369   3.827   5.409 -0.0496 -0.5396  0.7437
 9157TIP3    H248963   4.485   3.730   5.418  0.3444 -0.1991 -0.4437
 9158TIP3   OH248964   4.811   1.399   0.210 -0.2769  0.6049 -0.1965
 9158TIP3    H148965   4.864   1.321   0.192 -1.0343 -1.1264  3.8418
 9158TIP3    H248966   4.721   1.368   0.210 -0.5833  1.3360  1.7253
 9159TIP3   OH248967   3.079   5.147  16.808 -0.3540  0.3542 -0.4491
 9159TIP3    H148968   3.136   5.159  16.884 -1.0994 -1.1264  0.3916
 9159TIP3    H248969   3.133   5.098  16.746  0.4777  2.1272 -1.1994
 9160TIP3   OH248970   0.559   0.136  16.499 -0.7510 -0.4180  0.9108
 9160TIP3    H148971   0.642   0.150  16.543  0.5405 -0.5673 -1.3162
 9160TIP3    H248972   0.534   0.222  16.465 -0.7278 -0.6489  0.2980
 9161TIP3   OH248973   0.760   4.246   5.175 -0.4309  0.4257  0.0218
 9161TIP3    H148974   0.807   4.196   5.108 -1.8389  1.5742 -1.9465
 9161TIP3    H248975   0.804   4.331   5.176 -1.5244  1.0353 -0.8420
 9162TIP3   OH248976   6.732   0.790   3.241  0.1091  0.5165  0.1512
 9162TIP3    H148977   6.724   0.859   3.307 -0.4684 -1.0779  1.8745
 9162TIP3    H248978   6.786   0.827   3.172 -0.9850  2.9959  0.5326
 9163TIP3   OH248979   5.470   1.516   1.388 -0.3709 -0.0785 -0.0531
 9163TIP3    H148980   5.495   1.596   1.432  1.1897 -0.6857  0.2101
 9163TIP3    H248981   5.467   1.539   1.295 -0.0976  0.3104  0.0363
 9164TIP3   OH248982   0.543   3.214   1.061  0.1204  0.0434 -0.4545
 9164TIP3    H148983   0.606   3.160   1.108 -0.3635  1.4905  1.9967
 9164TIP3    H248984   0.568   3.205   0.969  2.5134 -1.1434  0.2378
 9165TIP3   OH248985   6.536   3.784   4.057  0.0537 -0.1928  0.6126
 9165TIP3    H148986   6.445   3.765   4.034 -0.4760  1.2151  1.3802
 9165TIP3    H248987   6.576   3.699   4.071 -1.4971 -0.8158  1.5020
 9166TIP3   OH248988   3.415   3.139   0.481  0.4243 -0.2411 -0.5498
 9166TIP3    H148989   3.475   3.154   0.555 -0.0816 -0.5581 -0.0714
 9166TIP3    H248990   3.462   3.175   0.405  0.5774  0.8950  0.0583
 9167TIP3   OH248991   4.203   3.791   0.985 -0.3137  0.6298  0.3953
 9167TIP3    H148992   4.245   3.870   0.953  1.0625 -0.2408 -0.0220
 9167TIP3    H248993   4.180   3.810   1.076  4.3401 -0.0175  1.9459
 9168TIP3   OH248994   4.637   0.923  11.775  0.5881 -0.5047  0.1320
 9168TIP3    H148995   4.542   0.922  11.787  0.7384 -0.7767  1.3914
 9168TIP3    H248996   4.656   1.014  11.749  0.1948  0.1375  1.9306
 9169TIP3   OH248997   3.165   2.101  12.649 -0.0924  0.1701  0.0374
 9169TIP3    H148998   3.163   2.041  12.723 -0.9476  1.2140  0.8849
 9169TIP3    H248999   3.254   2.136  12.648 -0.0858  0.1663  0.5867
 9170TIP3   OH249000   5.745   4.091  11.536  0.5977 -0.4418 -0.3200
 9170TIP3    H149001   5.689   4.117  11.609  1.2790 -0.7546  0.3271
 9170TIP3    H249002   5.772   4.173  11.496 -0.5388 -0.2868 -0.8299
 9171TIP3   OH249003   3.537   1.603   0.660  0.6320 -0.4326 -0.1319
 9171TIP3    H149004   3.519   1.511   0.680 -1.2368 -0.1871 -0.5087
 9171TIP3    H249005   3.463   1.650   0.697  0.7558  0.7606 -1.3536
 9172TIP3   OH249006   3.772   5.079  12.569 -0.4235  0.2008  0.0220
 9172TIP3    H149007   3.849   5.051  12.619 -0.7129 -0.2849  0.1938
 9172TIP3    H249008   3.697   5.053  12.622 -0.7142  0.7172 -0.1229
 9173TIP3   OH249009   6.648   4.775   0.111  0.0645  0.0180  0.0036
 9173TIP3    H149010   6.647   4.857   0.160 -1.6183 -0.3978  0.7299
 9173TIP3    H249011   6.593   4.791   0.034  0.7034 -0.0821 -0.4827
 9174TIP3   OH249012   3.503   5.947   2.565 -0.2051 -1.0004  0.2101
 9174TIP3    H149013   3.468   6.000   2.493  0.3090  0.9777  1.3500
 9174TIP3    H249014   3.433   5.884   2.584 -0.9657 -0.5616 -1.0064
 9175TIP3   OH249015   0.132   5.193  10.399 -0.0155  0.2644  0.2881
 9175TIP3    H149016   0.180   5.120  10.440 -1.1064 -1.2878 -1.0563
 9175TIP3    H249017   0.043   5.185  10.434 -0.0863  1.1100  0.3076
 9176TIP3   OH249018   1.222   2.652  12.116 -0.2003  0.5626  0.4130
 9176TIP3    H149019   1.148   2.622  12.168 -1.1894  3.1868  0.6605
 9176TIP3    H249020   1.214   2.747  12.116  1.6966  0.7953 -1.7605
 9177TIP3   OH249021   1.753   4.960  13.803 -0.1330  0.1011  0.5504
 9177TIP3    H149022   1.787   4.999  13.884 -0.1395  0.1233  0.5424
 9177TIP3    H249023   1.713   4.878  13.831 -1.0222  0.5822  0.7170
 9178TIP3   OH249024   6.334   4.032  11.867  0.2392 -0.0521 -0.0415
 9178TIP3    H149025   6.266   4.035  11.935  0.7276  0.1745  0.4414
 9178TIP3    H249026   6.380   3.950  11.883 -0.4974 -0.6736 -0.9521
 9179TIP3   OH249027   2.543   5.494   1.972  0.4114 -0.6688  0.0666
 9179TIP3    H149028   2.594   5.558   1.921 -0.4783  1.0212  1.1809
 9179TIP3    H249029   2.599   5.416   1.975  2.1419  0.4816 -0.2815
 9180TIP3   OH249030   2.371   3.674  15.817  0.2393 -0.1000  0.3732
 9180TIP3    H149031   2.291   3.725  15.813  1.2214  1.3888 -1.2691
 9180TIP3    H249032   2.388   3.648  15.727  2.4284  0.9900  0.4063
 9181TIP3   OH249033   2.790   1.212   2.201 -0.2043  0.3086 -0.0097
 9181TIP3    H149034   2.699   1.213   2.172  0.1316  1.5491 -1.1123
 9181TIP3    H249035   2.838   1.256   2.131  1.0612  0.8119  1.1273
 9182TIP3   OH249036   5.307   2.345   4.670 -0.1374  0.5076 -0.8747
 9182TIP3    H149037   5.263   2.423   4.637 -0.7859  0.1953 -0.7552
 9182TIP3    H249038   5.252   2.316   4.743 -0.4779 -0.6619 -1.5759
 9183TIP3   OH249039   1.953   5.886   6.035  0.6900  0.6611  0.5182
 9183TIP3    H149040   2.008   5.816   6.069  2.2624  0.9975 -1.1991
 9183TIP3    H249041   1.961   5.880   5.940 -1.7500  1.1606  0.2086
 9184TIP3   OH249042   1.282   1.246   0.253 -0.3778 -0.7247  0.5900
 9184TIP3    H149043   1.189   1.246   0.274 -0.1756 -0.9043  1.5809
 9184TIP3    H249044   1.322   1.193   0.322  0.6446  0.6862  1.1425
 9185TIP3   OH249045   2.226   1.935   5.422 -0.5211 -0.1256 -0.6638
 9185TIP3    H149046   2.293   1.971   5.364  1.2226 -1.3205  0.4939
 9185TIP3    H249047   2.221   1.843   5.399 -1.7615 -0.0718 -0.6803
 9186TIP3   OH249048   0.379   6.749  11.516 -0.5182  0.2925  0.0027
 9186TIP3    H149049   0.292   6.764  11.480 -0.6085  0.2941  0.2194
 9186TIP3    H249050   0.374   6.662  11.555 -0.7154  0.6783  0.8646
 9187TIP3   OH249051   5.447   2.939  13.530  0.3248  0.0887 -0.4623
 9187TIP3    H149052   5.463   2.845  13.537 -0.7882 -0.1114 -0.3669
 9187TIP3    H249053   5.464   2.973  13.618 -1.4011 -0.4018  0.1109
 9188TIP3   OH249054   6.252   4.159  13.723 -0.2879  0.0898 -0.7376
 9188TIP3    H149055   6.218   4.219  13.789 -0.3661 -0.8797  0.1384
 9188TIP3    H249056   6.337   4.196  13.698 -0.3960  0.6348 -0.3177
 9189TIP3   OH249057   6.642   0.125  16.401 -0.3125  0.4132 -0.3837
 9189TIP3    H149058   6.672   0.193  16.341 -0.9271  0.5368 -0.5549
 9189TIP3    H249059   6.549   0.115  16.382 -0.6767  0.9131  0.9947
 9190TIP3   OH249060   5.973   2.388   4.161 -0.2595  0.0872 -0.1857
 9190TIP3    H149061   6.044   2.357   4.217  0.1646  0.3517 -0.5699
 9190TIP3    H249062   5.973   2.483   4.172 -1.3038  0.0090  0.6880
 9191TIP3   OH249063   2.918   4.101  14.106  0.0919 -0.2553 -0.0405
 9191TIP3    H149064   2.971   4.077  14.030 -0.2167  0.7455 -0.5912
 9191TIP3    H249065   2.911   4.020  14.157  1.3273 -0.6431 -0.4469
 9192TIP3   OH249066   3.437   6.373   1.415 -0.0361 -0.6503  0.7631
 9192TIP3    H149067   3.484   6.291   1.426 -0.3266 -0.9009  0.2240
 9192TIP3    H249068   3.499   6.431   1.371  0.0455 -0.7038  0.8083
 9193TIP3   OH249069   4.475   4.105  12.747  0.0595  0.3302  0.7132
 9193TIP3    H149070   4.386   4.113  12.783  0.0353  0.2486  0.6718
 9193TIP3    H249071   4.532   4.126  12.820  0.0267 -0.5606  1.0025
 9194TIP3   OH249072   3.742   6.524   1.758 -0.3413  0.5465 -0.7310
 9194TIP3    H149073   3.806   6.471   1.807 -0.5444 -0.4872 -1.5341
 9194TIP3    H249074   3.746   6.610   1.799 -0.3953 -0.2246  1.0022
 9195TIP3   OH249075   6.005   1.665   4.473 -0.0406 -0.0714  0.0867
 9195TIP3    H149076   5.943   1.730   4.505  0.0360 -0.1317  0.3538
 9195TIP3    H249077   6.009   1.598   4.541 -0.0431 -0.3090 -0.1409
 9196TIP3   OH249078   6.705   4.953   5.894 -0.5293  0.1875  0.2365
 9196TIP3    H149079   6.659   4.910   5.966  0.8815 -0.2866  0.8929
 9196TIP3    H249080   6.710   5.045   5.920  0.8255 -0.1440  1.2465
 9197TIP3   OH249081   2.357   6.680   3.572 -0.6022 -0.1216 -0.6649
 9197TIP3    H149082   2.330   6.690   3.663 -0.1236  1.0651 -0.6432
 9197TIP3    H249083   2.437   6.628   3.577 -0.7519 -0.3328 -0.4392
 9198TIP3   OH249084   2.634   5.396   1.148 -0.3139  0.3486  0.4704
 9198TIP3    H149085   2.717   5.362   1.113  0.0435  0.5468  1.1181
 9198TIP3    H249086   2.615   5.339   1.223  0.2992  1.5672  1.5840
 9199TIP3   OH249087   2.297   0.961   1.701 -0.1578  0.3414 -1.1082
 9199TIP3    H149088   2.218   1.012   1.721  0.0587  0.7127 -1.1904
 9199TIP3    H249089   2.314   0.980   1.609 -0.6396 -0.6612 -1.4154
 9200TIP3   OH249090   0.467   3.644  13.916 -0.1244 -0.1166 -0.1684
 9200TIP3    H149091   0.548   3.671  13.873 -0.6136  0.5775 -0.6888
 9200TIP3    H249092   0.429   3.726  13.948 -0.0760 -0.5604  1.0581
 9201TIP3   OH249093   3.287   3.530  13.583 -0.3012  0.1961 -0.4551
 9201TIP3    H149094   3.301   3.459  13.520  1.4349 -1.3098  1.4924
 9201TIP3    H249095   3.374   3.567  13.598 -0.1099 -1.1890  2.8366
 9202TIP3   OH249096   1.496   1.323   2.541  0.7327  0.3020 -0.2159
 9202TIP3    H149097   1.579   1.349   2.502  0.9000 -0.5090 -0.4081
 9202TIP3    H249098   1.512   1.235   2.575  0.0357  0.2583  0.0077
 9203TIP3   OH249099   0.439   0.122   4.202 -0.2718 -0.0114 -0.0584
 9203TIP3    H149100   0.439   0.194   4.265  0.2476  0.0735 -0.1462
 9203TIP3    H249101   0.504   0.061   4.235  0.7987  0.5364 -1.0461
 9204TIP3   OH249102   3.899   0.521  12.902 -0.0744  0.7461 -0.0348
 9204TIP3    H149103   3.808   0.509  12.874 -0.5805  1.8035  1.0767
 9204TIP3    H249104   3.895   0.589  12.970  1.5982  1.1178 -0.2578
 9205TIP3   OH249105   4.231   4.229  16.228  0.1372  0.5662 -0.0273
 9205TIP3    H149106   4.162   4.163  16.222  1.5936 -0.8735 -3.0270
 9205TIP3    H249107   4.309   4.179  16.253  0.8248  1.5582 -0.1409
 9206TIP3   OH249108   4.566   4.849   1.868  0.0356  0.0814 -0.8498
 9206TIP3    H149109   4.595   4.794   1.795 -0.0435  2.0413 -2.4381
 9206TIP3    H249110   4.473   4.865   1.851 -0.5135 -1.0765  0.8336
 9207TIP3   OH249111   1.925   3.239  14.719  0.3551 -0.5474 -0.2896
 9207TIP3    H149112   1.940   3.199  14.634  0.6830  0.1350 -0.5637
 9207TIP3    H249113   1.928   3.333  14.702 -0.8408 -0.3952  0.2584
 9208TIP3   OH249114   5.649   0.573   4.116 -0.3359  0.0296 -0.5429
 9208TIP3    H149115   5.666   0.525   4.197 -0.6716 -0.7234 -0.9070
 9208TIP3    H249116   5.640   0.505   4.050 -1.1982  0.5765 -1.0054
 9209TIP3   OH249117   1.509   3.997   4.769 -0.0410 -0.1858  0.3432
 9209TIP3    H149118   1.457   4.077   4.759 -1.5189 -1.0977  0.5113
 9209TIP3    H249119   1.525   3.990   4.864  0.8035  0.3202  0.2541
 9210TIP3   OH249120   4.581   2.509   5.085 -0.2826  0.1579  0.2866
 9210TIP3    H149121   4.620   2.425   5.108  1.4184  0.8355  0.0282
 9210TIP3    H249122   4.641   2.546   5.021 -2.5537  0.2927 -1.8864
 9211TIP3   OH249123   2.335   2.545  16.535  0.1868  0.2236 -0.2695
 9211TIP3    H149124   2.361   2.494  16.612 -0.0949  1.5111  0.6950
 9211TIP3    H249125   2.313   2.631  16.569 -2.5053  0.0942 -1.4088
 9212TIP3   OH249126   5.802   1.510  13.588  0.2216 -0.4609  0.6735
 9212TIP3    H149127   5.816   1.446  13.519  0.9160 -0.6312  0.9717
 9212TIP3    H249128   5.851   1.477  13.662  0.5067  0.3694  0.8608
 9213TIP3   OH249129   6.236   5.933  12.791 -0.3719  0.4575  0.6103
 9213TIP3    H149130   6.263   5.841  12.790  1.6321  0.9769  1.6907
 9213TIP3    H249131   6.317   5.982  12.774 -1.5032  2.0296 -0.5010
 9214TIP3   OH249132   6.125   6.224  16.082  0.1755 -0.2115  0.2428
 9214TIP3    H149133   6.204   6.228  16.028  0.1164 -0.5621  0.1311
 9214TIP3    H249134   6.082   6.308  16.066  1.4431  0.7629  1.7189
 9215TIP3   OH249135   6.766   6.120  16.580  0.3052  0.0369 -0.7835
 9215TIP3    H149136   6.857   6.131  16.551  0.4066  0.4664 -0.3033
 9215TIP3    H249137   6.732   6.209  16.587  0.5540  0.0030  1.2652
 9216TIP3   OH249138   3.950   3.476   4.083 -0.2157  0.1224 -0.0450
 9216TIP3    H149139   3.979   3.387   4.063  1.4748  0.1315  2.0662
 9216TIP3    H249140   4.018   3.512   4.140 -1.6164  2.2352  0.4233
 9217TIP3   OH249141   6.592   2.374  14.147  0.0841 -0.2176  0.1280
 9217TIP3    H149142   6.631   2.351  14.231  0.1043 -0.4002  0.0691
 9217TIP3    H249143   6.665   2.408  14.095  0.0870 -0.1827  0.1549
 9218TIP3   OH249144   6.475   1.985   2.268 -0.6805  0.2707  0.1810
 9218TIP3    H149145   6.556   2.029   2.242 -0.7765  0.1326 -0.3756
 9218TIP3    H249146   6.456   2.018   2.356 -0.3342  0.7508  0.0790
 9219TIP3   OH249147   6.832   1.477   3.433 -0.6063 -1.1352 -0.7251
 9219TIP3    H149148   6.742   1.477   3.464  0.0097  1.1217  1.3729
 9219TIP3    H249149   6.885   1.465   3.512  0.9746  1.5209 -1.2583
 9220TIP3   OH249150   4.013   6.845   3.945  0.6872 -0.0738 -0.1092
 9220TIP3    H149151   3.995   6.787   3.871 -0.5392  0.6431 -0.3963
 9220TIP3    H249152   4.003   6.789   4.022 -2.2210  0.0580 -0.2796
 9221TIP3   OH249153   2.695   5.369   3.011  0.6449  0.5373  0.2665
 9221TIP3    H149154   2.751   5.422   2.954  0.1970 -0.4891 -1.1899
 9221TIP3    H249155   2.641   5.318   2.950  1.0080 -1.5346  1.5894
 9222TIP3   OH249156   6.824   5.126   5.037  0.6246  0.0574 -0.1008
 9222TIP3    H149157   6.781   5.090   5.114 -0.5062 -0.1603 -0.8044
 9222TIP3    H249158   6.825   5.054   4.973  2.1916  0.0119 -0.0676
 9223TIP3   OH249159   1.280   1.089  16.613 -0.0316 -0.3391  0.6729
 9223TIP3    H149160   1.241   1.014  16.567  1.7243 -1.0780  0.3230
 9223TIP3    H249161   1.286   1.060  16.705 -1.6998  0.3790  1.0386
 9224TIP3   OH249162   0.856   6.641   0.073  0.1622  0.3785 -0.6164
 9224TIP3    H149163   0.921   6.670   0.010 -0.4036 -0.9984 -1.9187
 9224TIP3    H249164   0.772   6.658   0.030 -0.2607  0.0615  0.0637
 9225TIP3   OH249165   5.592   4.641  12.672  0.1683 -0.3025 -0.1942
 9225TIP3    H149166   5.505   4.659  12.636 -0.7877 -1.6214  1.3038
 9225TIP3    H249167   5.585   4.552  12.707  1.7497  0.0128  1.0461
 9226TIP3   OH249168   2.219   6.755   4.982 -0.8834 -0.5328 -0.5721
 9226TIP3    H149169   2.181   6.701   5.052 -0.6369  0.3716  0.2771
 9226TIP3    H249170   2.144   6.788   4.934 -1.1218 -0.0641  0.1053
 9227TIP3   OH249171   0.296   1.891   3.903 -0.3081 -0.6229  0.4345
 9227TIP3    H149172   0.315   1.982   3.922 -1.2929 -0.3563  0.1780
 9227TIP3    H249173   0.342   1.842   3.971  0.1502  0.0567  0.6273
 9228TIP3   OH249174   5.054   5.443  14.871  0.1984  0.3468  0.5670
 9228TIP3    H149175   5.071   5.394  14.791 -0.8176  1.4278 -0.3343
 9228TIP3    H249176   5.049   5.535  14.844 -1.9771  0.5821  1.5392
 9229TIP3   OH249177   0.719   5.770  13.309  0.3966 -0.1963  1.1049
 9229TIP3    H149178   0.677   5.847  13.349  0.8635  0.6487  0.0248
 9229TIP3    H249179   0.743   5.799  13.221 -0.8317 -2.0775  0.0905
 9230TIP3   OH249180   2.219   3.882  12.403 -0.1821 -0.0871  0.0008
 9230TIP3    H149181   2.312   3.895  12.419 -0.2749  0.0267  0.4652
 9230TIP3    H249182   2.175   3.933  12.472 -0.5865 -0.0841 -0.2521
 9231TIP3   OH249183   1.514   1.928   6.825  0.4250  0.1445  0.2698
 9231TIP3    H149184   1.519   1.878   6.906  3.6045  0.7720  0.5984
 9231TIP3    H249185   1.595   1.906   6.778 -0.5407  1.0701 -1.9457
 9232TIP3   OH249186   5.931   5.841  15.655  0.0125  0.0155  0.0925
 9232TIP3    H149187   5.954   5.914  15.713  0.9492 -0.0803 -0.1534
 9232TIP3    H249188   5.866   5.791  15.705  2.2636 -1.2236  1.9787
 9233TIP3   OH249189   6.352   2.047  14.688 -0.2816  0.0537  0.0207
 9233TIP3    H149190   6.262   2.072  14.669 -1.0529  0.4919  3.5272
 9233TIP3    H249191   6.363   1.961  14.648 -2.1424  0.1386 -0.7448
 9234TIP3   OH249192   4.755   0.471  11.699 -0.4128  0.1996  0.6520
 9234TIP3    H149193   4.689   0.402  11.692 -0.1087 -0.1977  1.5728
 9234TIP3    H249194   4.829   0.429  11.742 -0.2436  1.1252  1.2887
 9235TIP3   OH249195   1.320   3.139   0.298  0.1781  0.3559  0.1758
 9235TIP3    H149196   1.324   3.058   0.248  0.1965  0.9745 -0.8473
 9235TIP3    H249197   1.378   3.199   0.252 -0.1890  1.0981  0.6548
 9236TIP3   OH249198   4.049   2.135  16.190  0.7183 -0.6835 -0.0584
 9236TIP3    H149199   4.043   2.198  16.117 -1.2727  2.5537  2.5607
 9236TIP3    H249200   4.125   2.164  16.241  0.3280 -0.9518  0.6948
 9237TIP3   OH249201   3.302   5.160  15.647  0.0985  0.1367 -0.1406
 9237TIP3    H149202   3.243   5.209  15.590 -0.4016 -0.0346  0.2215
 9237TIP3    H249203   3.284   5.194  15.735 -0.0384 -0.4745  0.0739
 9238TIP3   OH249204   2.940   5.584   2.295 -0.0151 -0.2760  0.0587
 9238TIP3    H149205   2.876   5.655   2.289 -1.9435 -1.9774 -0.8166
 9238TIP3    H249206   2.988   5.601   2.376 -2.1263  0.6758  1.1758
 9239TIP3   OH249207   1.572   3.985   6.282 -0.2376  0.0052  0.1194
 9239TIP3    H149208   1.590   3.899   6.320  1.7419  0.3820  0.1257
 9239TIP3    H249209   1.479   4.000   6.299 -0.3365 -1.5983  1.1770
 9240TIP3   OH249210   1.887   0.729   5.545  0.3370  0.0600  0.5404
 9240TIP3    H149211   1.908   0.817   5.577  0.2423  1.0605 -1.9555
 9240TIP3    H249212   1.805   0.740   5.496  0.9136 -1.1663 -0.7658
 9241TIP3   OH249213   2.871   4.049  10.997 -0.3580  0.4664 -0.1633
 9241TIP3    H149214   2.886   4.059  10.903  1.4228 -0.5623 -0.0318
 9241TIP3    H249215   2.786   4.090  11.012 -0.4053  1.1935 -2.1098
 9242TIP3   OH249216   3.419   1.867  12.669  0.5356  0.2017  0.1577
 9242TIP3    H149217   3.477   1.894  12.598  0.8294 -1.2857 -0.1945
 9242TIP3    H249218   3.363   1.800  12.631 -1.3567  1.4825  0.5342
 9243TIP3   OH249219   5.988   5.684  15.362  0.7474 -0.0716 -0.3611
 9243TIP3    H149220   5.977   5.729  15.446  1.2368  0.8907 -0.7908
 9243TIP3    H249221   5.901   5.654  15.340  0.4301  0.5146  0.0426
 9244TIP3   OH249222   5.355   6.393  12.319 -0.1181 -0.0477  0.2398
 9244TIP3    H149223   5.356   6.475  12.269  0.5503 -0.2287 -0.0515
 9244TIP3    H249224   5.272   6.396  12.367 -0.3817  0.5196 -0.2301
 9245TIP3   OH249225   5.056   1.128   3.988  0.5560 -0.2644  0.2569
 9245TIP3    H149226   4.978   1.112   3.935  0.3886  1.3194 -0.0272
 9245TIP3    H249227   5.100   1.043   3.992 -0.0065 -0.6707 -1.4667
 9246TIP3   OH249228   1.500   3.528   0.447 -0.3287  0.2238  0.7529
 9246TIP3    H149229   1.546   3.521   0.364 -1.8042 -2.2597  0.0423
 9246TIP3    H249230   1.563   3.498   0.513  0.7919  2.0590  0.5874
 9247TIP3   OH249231   0.280   4.255  16.929  0.3571  0.5283  0.5210
 9247TIP3    H149232   0.334   4.237  17.006 -0.5218  0.7864  1.2216
 9247TIP3    H249233   0.216   4.319  16.960 -0.6113 -0.0868 -0.1677
 9248TIP3   OH249234   1.562   1.566   4.277 -0.1809  0.0428 -0.3675
 9248TIP3    H149235   1.543   1.636   4.340 -1.7529  0.0404 -0.8073
 9248TIP3    H249236   1.489   1.568   4.216  2.1017  1.2255 -3.3418
 9249TIP3   OH249237   4.576   0.522   2.266  0.2324  0.1134 -0.3368
 9249TIP3    H149238   4.575   0.547   2.358 -2.9765 -0.9494  0.0342
 9249TIP3    H249239   4.638   0.583   2.225  0.5911  1.6076  2.2223
 9250TIP3   OH249240   3.988   4.479  14.211  0.1462 -0.0429  0.5583
 9250TIP3    H149241   3.992   4.560  14.262 -1.1074  0.2041  0.2992
 9250TIP3    H249242   3.994   4.508  14.120 -0.0762 -0.2568  0.4750
 9251TIP3   OH249243   4.753   0.498  12.827 -0.1941  0.2570  0.3055
 9251TIP3    H149244   4.803   0.454  12.895 -1.0027  0.6885  1.2050
 9251TIP3    H249245   4.663   0.469  12.841 -0.5849  1.4223  0.2945
 9252TIP3   OH249246   2.123   6.125  15.741  0.5006  0.5492  0.1359
 9252TIP3    H149247   2.207   6.165  15.719  0.3395  1.4485  1.0385
 9252TIP3    H249248   2.061   6.199  15.740  0.1897  0.3487  1.8443
 9253TIP3   OH249249   3.853   0.856  10.635  0.0768 -0.3592 -0.1828
 9253TIP3    H149250   3.834   0.914  10.561 -0.2193  0.0228  0.1848
 9253TIP3    H249251   3.945   0.873  10.657  0.1522 -0.4432 -0.4395
 9254TIP3   OH249252   6.194   2.206   4.647  0.1639  0.1169 -0.1468
 9254TIP3    H149253   6.160   2.149   4.716 -1.7034  1.3443  0.0075
 9254TIP3    H249254   6.281   2.171   4.628  0.1003 -1.1986  1.7253
 9255TIP3   OH249255   3.553   3.260  15.353  0.0997 -0.3439 -0.0493
 9255TIP3    H149256   3.579   3.208  15.429  0.1440 -0.1905  0.0417
 9255TIP3    H249257   3.462   3.235  15.337  0.1096 -0.4230  0.0163
 9256TIP3   OH249258   0.511   2.590   2.055  0.4805 -0.2595  0.1962
 9256TIP3    H149259   0.462   2.646   2.115 -1.3342 -0.0381 -1.3844
 9256TIP3    H249260   0.505   2.503   2.093 -3.6957 -0.8195 -1.1736
 9257TIP3   OH249261   2.954   0.323   3.525 -0.0897 -0.7945  0.1686
 9257TIP3    H149262   2.891   0.380   3.481  0.3993  0.8596  1.5118
 9257TIP3    H249263   3.038   0.343   3.484 -0.2673 -2.5728 -1.2113
 9258TIP3   OH249264   5.784   6.000   4.050 -0.0686 -0.5266  0.6411
 9258TIP3    H149265   5.719   6.018   4.117 -1.7190 -2.1533 -0.4085
 9258TIP3    H249266   5.838   5.930   4.087 -0.9082 -1.3470  0.3636
 9259TIP3   OH249267   6.022   2.023   3.050 -0.3776 -0.0840 -0.4833
 9259TIP3    H149268   5.937   2.067   3.055 -0.4788  0.0936 -2.8097
 9259TIP3    H249269   6.019   1.975   2.967  1.8882  0.0972 -0.7184
 9260TIP3   OH249270   5.910   2.452  14.857  0.1193 -0.2339 -0.7010
 9260TIP3    H149271   5.823   2.415  14.843 -0.2238  0.0510  0.5666
 9260TIP3    H249272   5.954   2.387  14.912  1.0125 -0.7563 -1.9628
 9261TIP3   OH249273   0.813   0.169  16.595  0.4537  0.5292  0.5607
 9261TIP3    H149274   0.805   0.228  16.520 -2.3761 -0.5622 -0.1507
 9261TIP3    H249275   0.896   0.124  16.581  0.2543  0.7227 -1.6926
 9262TIP3   OH249276   5.160   0.175  15.122 -0.0751 -0.2274 -0.2222
 9262TIP3    H149277   5.221   0.234  15.166  0.3987  0.1763 -1.3706
 9262TIP3    H249278   5.077   0.222  15.122 -0.6236 -1.0702  1.9708
 9263TIP3   OH249279   5.595   4.214   0.924 -0.6492  0.1188  0.5100
 9263TIP3    H149280   5.680   4.176   0.900 -0.6940 -0.0148  0.5592
 9263TIP3    H249281   5.596   4.215   1.020 -0.6511  0.2376  0.5092
 9264TIP3   OH249282   3.349   1.685  11.874  0.4024  0.5128  0.0039
 9264TIP3    H149283   3.335   1.720  11.961  0.4424 -0.9907  0.6426
 9264TIP3    H249284   3.441   1.703  11.854  0.0341  2.1415 -0.3555
 9265TIP3   OH249285   4.120   3.851  13.294 -0.0633 -0.6976 -1.0390
 9265TIP3    H149286   4.214   3.868  13.286 -0.2424 -0.3716 -2.7970
 9265TIP3    H249287   4.091   3.909  13.365  0.5467  1.4706 -2.4704
 9266TIP3   OH249288   3.522   1.890   3.028  0.5148  0.0796 -0.1007
 9266TIP3    H149289   3.590   1.865   3.091  0.1957 -0.3436  0.0830
 9266TIP3    H249290   3.483   1.807   3.000 -1.4165  0.3780  1.4572
 9267TIP3   OH249291   5.215   1.085  12.434  0.6355  0.4182 -0.2492
 9267TIP3    H149292   5.207   1.078  12.529 -0.0296  0.0073 -0.3233
 9267TIP3    H249293   5.205   0.995  12.403 -1.5176  0.7885 -0.8417
 9268TIP3   OH249294   2.399   1.844   3.464  0.6106 -0.2014 -0.4900
 9268TIP3    H149295   2.494   1.848   3.454  0.5765 -1.4490 -1.5656
 9268TIP3    H249296   2.380   1.905   3.535  2.3096 -0.6435  0.3945
 9269TIP3   OH249297   1.769   6.050   6.311 -0.2632  0.2612  0.1509
 9269TIP3    H149298   1.761   6.068   6.405 -1.0502  2.8625 -0.3491
 9269TIP3    H249299   1.702   5.983   6.294 -2.3206  2.0018  0.9408
 9270TIP3   OH249300   4.869   3.734  13.625  0.6386  0.7139  0.3770
 9270TIP3    H149301   4.831   3.821  13.633 -0.5214  0.1992  0.8476
 9270TIP3    H249302   4.803   3.676  13.663  2.5040 -0.1387  2.5326
 9271TIP3   OH249303   0.343   0.898  13.328  0.2880  0.0509 -0.0431
 9271TIP3    H149304   0.316   0.832  13.264 -1.4220 -0.8235  1.5193
 9271TIP3    H249305   0.438   0.886  13.334  0.2296 -1.1736 -0.9812
 9272TIP3   OH249306   2.918   2.983   4.435 -0.5819 -0.1441 -0.2300
 9272TIP3    H149307   2.932   3.009   4.344  0.8710 -0.7693 -0.2235
 9272TIP3    H249308   2.930   3.063   4.485 -0.7193  0.0757 -0.5486
 9273TIP3   OH249309   1.646   1.669   5.923 -0.1658 -0.3262  0.5510
 9273TIP3    H149310   1.699   1.622   5.987 -0.9006 -0.0814  1.3453
 9273TIP3    H249311   1.556   1.650   5.947 -0.4966 -1.8092 -1.5590
 9274TIP3   OH249312   4.986   4.552   4.926  0.0126  0.1620  0.0960
 9274TIP3    H149313   4.945   4.467   4.910  0.9667 -0.6644  1.6821
 9274TIP3    H249314   5.058   4.556   4.863  0.3783 -0.5537  0.4472
 9275TIP3   OH249315   6.563   4.268  11.796 -0.3938  0.0360 -0.0071
 9275TIP3    H149316   6.586   4.339  11.737 -1.5104  0.2877 -0.1549
 9275TIP3    H249317   6.644   4.219  11.807 -0.0414  0.2828 -1.3472
 9276TIP3   OH249318   3.076   1.223   2.409 -0.0130  0.0958  0.0490
 9276TIP3    H149319   3.077   1.158   2.339 -0.7431  0.5685 -0.4223
 9276TIP3    H249320   3.022   1.185   2.478 -1.3848  0.6426 -0.6909
 9277TIP3   OH249321   2.985   1.113   4.492 -0.2095 -0.3145 -0.6704
 9277TIP3    H149322   2.978   1.131   4.586  1.4366  0.9411 -0.7544
 9277TIP3    H249323   3.051   1.174   4.461  0.1257 -1.5272 -2.4469
 9278TIP3   OH249324   3.041   1.665  16.873  0.4125  0.8838  0.1522
 9278TIP3    H149325   3.108   1.733  16.879  0.9409  0.5062 -1.1535
 9278TIP3    H249326   3.074   1.593  16.927  0.8919  0.8414 -0.1950
 9279TIP3   OH249327   1.991   5.876  11.755  0.1292 -0.2108  0.1865
 9279TIP3    H149328   2.065   5.935  11.743 -1.2439  1.3615 -0.8848
 9279TIP3    H249329   1.985   5.827  11.673  0.0826 -0.4516  0.3316
 9280TIP3   OH249330   3.512   1.786   0.108  1.1484  0.1948  0.0062
 9280TIP3    H149331   3.423   1.796   0.142  0.0919 -2.5970 -1.5922
 9280TIP3    H249332   3.553   1.723   0.166  1.4122 -0.0014 -0.3878
 9281TIP3   OH249333   2.692   1.230  15.238  0.0828  0.0304 -0.4947
 9281TIP3    H149334   2.703   1.269  15.324 -1.8379 -1.5464  0.5417
 9281TIP3    H249335   2.768   1.172  15.228  0.6677  0.7225 -0.1941
 9282TIP3   OH249336   1.834   5.977  10.905  0.4815  0.3717 -0.2049
 9282TIP3    H149337   1.830   5.916  10.979  2.3484 -0.1726 -0.4889
 9282TIP3    H249338   1.908   5.945  10.852  0.0531  1.5526 -1.5835
 9283TIP3   OH249339   3.192   6.474   5.823 -0.0468 -0.2943  0.2480
 9283TIP3    H149340   3.100   6.489   5.801 -0.0340 -0.2741  0.2086
 9283TIP3    H249341   3.198   6.379   5.838  0.3397 -0.6436 -1.7469
 9284TIP3   OH249342   1.325   1.883  16.673  0.1974 -0.6470 -0.3656
 9284TIP3    H149343   1.290   1.857  16.588  1.3788 -0.2313 -0.9961
 9284TIP3    H249344   1.355   1.973  16.660 -2.8512  0.7907  1.4769
 9285TIP3   OH249345   6.630   0.963  12.191  0.4617 -0.0596  0.3222
 9285TIP3    H149346   6.541   0.959  12.228 -0.1304  2.4545 -0.5935
 9285TIP3    H249347   6.669   0.879  12.214 -2.0901 -1.2029  0.8999
 9286TIP3   OH249348   6.789   0.099   1.603 -0.4959 -0.3248 -0.0200
 9286TIP3    H149349   6.823   0.128   1.688  1.1935  0.7843 -1.0210
 9286TIP3    H249350   6.773   0.005   1.614 -1.8023  0.0577  1.9634
 9287TIP3   OH249351   1.965   4.590   2.019 -0.1459  0.7881 -0.8098
 9287TIP3    H149352   1.981   4.662   2.080  1.1520 -0.5464  0.5016
 9287TIP3    H249353   1.870   4.582   2.017 -0.2488  1.5180  0.2610
 9288TIP3   OH249354   6.770   1.701   0.530  0.0569 -0.1308 -0.2544
 9288TIP3    H149355   6.698   1.735   0.477 -0.4844 -0.6737  0.1260
 9288TIP3    H249356   6.842   1.763   0.515 -0.2858  0.0683 -1.1199
 9289TIP3   OH249357   5.459   5.926   1.106 -0.3502 -0.3830 -0.4136
 9289TIP3    H149358   5.402   5.963   1.038 -1.4936 -3.7058 -1.4832
 9289TIP3    H249359   5.400   5.873   1.160  1.4561 -2.7712 -0.6450
 9290TIP3   OH249360   1.667   0.679  13.713 -0.0677  0.1061  0.2205
 9290TIP3    H149361   1.693   0.771  13.716  0.4907 -0.0496  0.3167
 9290TIP3    H249362   1.736   0.634  13.762 -0.1639 -0.4008 -0.1121
 9291TIP3   OH249363   2.419   3.311  15.620 -0.3226 -0.2837 -0.3109
 9291TIP3    H149364   2.390   3.397  15.588 -0.0119 -0.0338  0.0627
 9291TIP3    H249365   2.399   3.250  15.549  0.5364  0.2802 -1.0574
 9292TIP3   OH249366   0.850   3.833   3.578 -0.1471 -0.0442  0.1035
 9292TIP3    H149367   0.832   3.901   3.644 -1.3278  0.0646 -0.3007
 9292TIP3    H249368   0.941   3.809   3.593  0.4853  2.0169 -0.0757
 9293TIP3   OH249369   4.548   1.770  13.119 -0.0390  0.1226 -0.1068
 9293TIP3    H149370   4.521   1.752  13.209 -1.1881  0.6517 -0.3253
 9293TIP3    H249371   4.617   1.835  13.127 -0.5257  0.5943  0.3859
 9294TIP3   OH249372   5.940   6.144   0.056 -0.2055 -0.2118 -0.4080
 9294TIP3    H149373   5.975   6.227   0.023  1.5420 -0.5793  0.3689
 9294TIP3    H249374   5.867   6.169   0.113 -0.5214  0.6907 -1.1871
 9295TIP3   OH249375   3.995   4.422  10.635 -0.1215  0.4647 -0.3619
 9295TIP3    H149376   3.949   4.502  10.611 -1.9781  0.0145  1.3991
 9295TIP3    H249377   3.932   4.352  10.619  0.8990 -0.4876 -0.3534
 9296TIP3   OH249378   2.813   3.511   2.751 -0.4747 -0.0505 -0.3669
 9296TIP3    H149379   2.904   3.510   2.722 -0.4275  1.7299 -0.4123
 9296TIP3    H249380   2.812   3.572   2.825 -1.4291 -0.9672  0.4132
 9297TIP3   OH249381   0.427   5.949   4.786  0.4468  0.7234  0.6922
 9297TIP3    H149382   0.488   5.910   4.849  1.6530 -1.0032 -1.4047
 9297TIP3    H249383   0.484   5.988   4.720 -0.6440 -0.9984 -1.3674
 9298TIP3   OH249384   4.080   1.225   5.202  0.1536  0.3363 -0.3560
 9298TIP3    H149385   4.110   1.265   5.120  1.6987 -2.6533 -1.4027
 9298TIP3    H249386   4.125   1.274   5.271  1.8807  0.5056 -1.5473
 9299TIP3   OH249387   2.038   0.360  15.249  0.1443  0.2930  0.0968
 9299TIP3    H149388   2.127   0.351  15.216 -0.3405 -0.5301 -1.0395
 9299TIP3    H249389   2.016   0.452  15.234 -0.4831 -0.2814 -3.0879
 9300TIP3   OH249390   0.056   4.969  14.534  0.1674 -0.3892  0.2929
 9300TIP3    H149391   0.119   5.017  14.479 -1.0328 -0.9407 -1.6644
 9300TIP3    H249392   0.107   4.896  14.568  0.9559 -0.0411 -0.0883
 9301TIP3   OH249393   0.795   3.809  15.302  0.0011 -0.6094 -0.8171
 9301TIP3    H149394   0.758   3.789  15.388  2.5299  0.7969  0.7133
 9301TIP3    H249395   0.783   3.728  15.252 -2.9925 -0.9444  0.2337
 9302TIP3   OH249396   5.202   4.372   4.426  0.1702  0.0138 -0.1630
 9302TIP3    H149397   5.128   4.311   4.427 -0.3684  0.6583  0.7660
 9302TIP3    H249398   5.182   4.432   4.354 -0.6365  0.6682  0.5838
 9303TIP3   OH249399   2.296   5.084  10.910  0.0843  0.5902  0.3324
 9303TIP3    H149400   2.344   5.042  10.981  0.9360 -0.9662 -1.1014
 9303TIP3    H249401   2.337   5.170  10.900  0.4685  0.5103  1.2006
 9304TIP3   OH249402   1.938   1.466  13.609  0.4047  0.3302 -0.0766
 9304TIP3    H149403   1.883   1.537  13.642  0.6077  1.0261 -1.1841
 9304TIP3    H249404   1.946   1.405  13.683 -2.9756 -0.5080 -0.2237
 9305TIP3   OH249405   5.037   4.591  16.732  0.0711 -0.1723 -0.1542
 9305TIP3    H149406   4.952   4.557  16.706 -0.1433 -0.6135  1.0488
 9305TIP3    H249407   5.070   4.637  16.655 -0.6567 -1.1453 -1.0625
 9306TIP3   OH249408   1.758   0.522   4.240  0.1206 -0.1843 -0.0300
 9306TIP3    H149409   1.686   0.459   4.228  0.6033 -0.6350 -0.6724
 9306TIP3    H249410   1.725   0.584   4.305 -1.0939 -0.0067 -0.7721
 9307TIP3   OH249411   3.546   6.847  16.677  0.2661 -0.1862 -0.2307
 9307TIP3    H149412   3.624   6.821  16.628  0.1888  1.2031 -1.1237
 9307TIP3    H249413   3.574   6.921  16.730 -0.1386 -0.4915  0.4267
 9308TIP3   OH249414   2.213   3.957   4.337 -0.5758 -0.1437  0.2582
 9308TIP3    H149415   2.128   3.916   4.355 -0.9917  0.3573 -0.5096
 9308TIP3    H249416   2.192   4.032   4.281  0.3974 -0.1182 -0.0909
 9309TIP3   OH249417   6.735   6.732   3.613  0.3097  0.3159 -0.0418
 9309TIP3    H149418   6.737   6.639   3.590  2.0131  0.4375 -0.4911
 9309TIP3    H249419   6.713   6.777   3.531 -3.4461  0.2273  0.7302
 9310TIP3   OH249420   3.219   4.179  12.367 -0.1980 -0.0936  0.1101
 9310TIP3    H149421   3.200   4.098  12.321  1.5621 -0.2937 -0.3479
 9310TIP3    H249422   3.283   4.224  12.312 -2.1167  2.2945 -0.3414
 9311TIP3   OH249423   4.049   1.784  15.036 -0.2319 -0.0770 -1.0414
 9311TIP3    H149424   4.101   1.858  15.066  0.0735  0.4140 -2.6722
 9311TIP3    H249425   3.978   1.824  14.986 -1.0905 -0.8320 -0.4560
 9312TIP3   OH249426   4.206   3.551   4.354 -0.1427 -0.0003  0.1499
 9312TIP3    H149427   4.162   3.567   4.438 -2.3813 -2.9475 -0.2906
 9312TIP3    H249428   4.280   3.494   4.377 -0.1790 -0.0199  0.2194
 9313TIP3   OH249429   4.131   4.174  14.218  0.1019 -0.3837  0.2029
 9313TIP3    H149430   4.226   4.175  14.208 -0.0013 -0.7751 -0.9814
 9313TIP3    H249431   4.107   4.266  14.227  0.5792 -0.2693  0.3413
 9314TIP3   OH249432   2.766   1.436  13.622 -0.0453  0.1968  0.0329
 9314TIP3    H149433   2.730   1.498  13.685  0.2419  1.6222 -1.1402
 9314TIP3    H249434   2.693   1.413  13.565 -0.6902 -2.2627  1.6678
 9315TIP3   OH249435   4.469   1.118  12.370  0.2970  0.5791  0.4370
 9315TIP3    H149436   4.386   1.090  12.410  0.7919  0.4333  1.3906
 9315TIP3    H249437   4.446   1.136  12.278 -1.0494  1.7662  0.9693
 9316TIP3   OH249438   1.994   6.527  13.658 -0.2737 -0.3555  0.6556
 9316TIP3    H149439   2.011   6.565  13.571 -0.0596 -2.0811 -0.1103
 9316TIP3    H249440   2.077   6.539  13.705  0.7214 -2.1367 -0.4998
 9317TIP3   OH249441   5.250   3.219   5.396 -0.0274 -0.4074  0.6324
 9317TIP3    H149442   5.193   3.192   5.468  1.1436 -1.6851  1.1177
 9317TIP3    H249443   5.193   3.224   5.320 -1.3532  1.2509  1.6691
 9318TIP3   OH249444   0.463   2.203   2.401 -0.1930 -0.3159  0.4130
 9318TIP3    H149445   0.522   2.128   2.392  0.8287  0.1918  2.3560
 9318TIP3    H249446   0.377   2.169   2.375  0.3381 -2.0129  0.7495
 9319TIP3   OH249447   3.256   1.128   0.673  0.6501  0.0415 -0.1577
 9319TIP3    H149448   3.339   1.115   0.719  0.8366  3.3536  0.7365
 9319TIP3    H249449   3.247   1.224   0.667 -1.2978 -0.1823 -3.5934
 9320TIP3   OH249450   0.966   3.401  12.434 -0.2901  0.2465 -0.1395
 9320TIP3    H149451   1.009   3.484  12.414  1.1334 -0.1256  1.1325
 9320TIP3    H249452   0.879   3.408  12.394  0.9397  1.0010 -2.9416
 9321TIP3   OH249453   1.006   4.069  15.787  0.2491 -0.0001 -0.0622
 9321TIP3    H149454   1.011   4.040  15.878 -0.6008 -1.5449 -0.4809
 9321TIP3    H249455   0.917   4.105  15.779  0.3865  0.2990 -0.2403
 9322TIP3   OH249456   4.936   3.825  11.419  0.1329 -0.6760  0.1892
 9322TIP3    H149457   4.843   3.845  11.410  0.2945  1.1784  1.8203
 9322TIP3    H249458   4.941   3.765  11.493  0.2447 -0.4573  0.3615
 9323TIP3   OH249459   2.744   1.090   5.037 -0.1556  0.0585  0.2468
 9323TIP3    H149460   2.702   1.050   4.961  0.0895  0.5466 -0.1519
 9323TIP3    H249461   2.673   1.101   5.100 -0.8041  1.4582 -0.6552
 9324TIP3   OH249462   0.437   6.271   2.932 -0.3119 -0.3818  0.4565
 9324TIP3    H149463   0.482   6.204   2.882  0.9300  0.1542  0.8015
 9324TIP3    H249464   0.400   6.330   2.866 -0.7268 -0.9578  0.1664
 9325TIP3   OH249465   0.270   4.575  16.803 -0.1155  0.1294 -0.2495
 9325TIP3    H149466   0.217   4.632  16.860  1.4466  0.1366  1.2932
 9325TIP3    H249467   0.360   4.591  16.831  0.5669 -1.2311 -1.5438
 9326TIP3   OH249468   0.416   1.820  11.613 -0.4601 -0.0944  0.1557
 9326TIP3    H149469   0.495   1.787  11.655 -0.4073 -0.3724 -0.1571
 9326TIP3    H249470   0.354   1.833  11.685 -0.1509  0.0635  0.3919
 9327TIP3   OH249471   0.871   6.190   3.878  0.2235 -0.3562  0.6713
 9327TIP3    H149472   0.967   6.197   3.877  0.4773 -2.9286  0.6456
 9327TIP3    H249473   0.846   6.207   3.787  0.7021 -0.2851  0.5463
 9328TIP3   OH249474   5.516   0.403  16.935  0.1548  0.0342  0.5641
 9328TIP3    H149475   5.579   0.408  17.008 -1.0324 -1.3563  1.7457
 9328TIP3    H249476   5.548   0.330  16.882 -1.6531 -2.3319  2.4861
 9329TIP3   OH249477   6.860   2.924  10.580  0.1445 -0.0603 -0.2591
 9329TIP3    H149478   6.777   2.908  10.536 -0.2648 -2.2124  1.1207
 9329TIP3    H249479   6.913   2.973  10.517 -1.1416 -1.1850 -2.2756
 9330TIP3   OH249480   2.286   4.199  13.913 -0.0406  0.3019 -0.1594
 9330TIP3    H149481   2.266   4.206  14.007 -1.4189  1.4977 -0.5108
 9330TIP3    H249482   2.228   4.131  13.881 -1.0082  1.2680 -0.5004
 9331TIP3   OH249483   4.140   2.257  13.283 -0.5724 -0.1414  0.2199
 9331TIP3    H149484   4.100   2.178  13.321  1.1917 -1.2147 -0.0028
 9331TIP3    H249485   4.192   2.224  13.209  3.3840  0.5408  2.3736
 9332TIP3   OH249486   3.243   0.750   4.027 -0.3523 -0.2061  0.3371
 9332TIP3    H149487   3.318   0.691   4.018 -0.2406 -0.2497  1.4443
 9332TIP3    H249488   3.185   0.706   4.088 -0.8053  0.3047  0.2780
 9333TIP3   OH249489   4.826   0.584  12.368  0.3632  0.1972 -0.0741
 9333TIP3    H149490   4.830   0.675  12.338 -2.0401  0.8408  1.2479
 9333TIP3    H249491   4.819   0.591  12.463  1.3315 -1.4718  0.1587
 9334TIP3   OH249492   5.094   3.205  16.452 -0.0571 -0.0162  0.0972
 9334TIP3    H149493   5.136   3.251  16.379  1.0979 -0.5992  0.3663
 9334TIP3    H249494   5.065   3.122  16.413  0.7823 -0.4355  0.3281
 9335TIP3   OH249495   0.392   6.285   0.419 -0.2542 -0.1942  0.4073
 9335TIP3    H149496   0.417   6.204   0.376  0.9571  0.0790  0.5795
 9335TIP3    H249497   0.311   6.311   0.374 -0.5185 -1.3505  0.1855
 9336TIP3   OH249498   0.816   6.295  13.254  0.2614  0.1818  0.0826
 9336TIP3    H149499   0.834   6.205  13.229  0.5436  0.7661 -1.9744
 9336TIP3    H249500   0.899   6.327  13.289 -0.3508 -0.8857  2.7890
 9337TIP3   OH249501   3.092   1.338   5.414  0.8493  0.0250  0.2255
 9337TIP3    H149502   3.007   1.382   5.408  1.0921  0.3351 -2.5845
 9337TIP3    H249503   3.088   1.269   5.347  2.7046 -0.1350  0.2291
 9338TIP3   OH249504   6.282   3.374  15.157  0.0061 -0.4327 -0.5292
 9338TIP3    H149505   6.331   3.292  15.163  1.7719  0.5079 -1.2380
 9338TIP3    H249506   6.299   3.406  15.069  1.3096  1.8228  0.4430
 9339TIP3   OH249507   0.114   4.420   0.028 -0.3005  0.1016 -0.7452
 9339TIP3    H149508   0.109   4.506  -0.013  3.1055 -1.1886 -4.4701
 9339TIP3    H249509   0.177   4.431   0.099  0.4701  0.6346 -1.4917
 9340TIP3   OH249510   4.958   1.204  13.286  0.1790  0.3613 -0.1775
 9340TIP3    H149511   4.962   1.254  13.204  0.7941  1.4149  0.4669
 9340TIP3    H249512   4.989   1.266  13.352  1.2544 -0.9816  0.6167
 9341TIP3   OH249513   4.489   1.960  16.231  0.5375 -0.5060 -1.1734
 9341TIP3    H149514   4.573   1.933  16.269  0.8654  0.2802 -1.3217
 9341TIP3    H249515   4.447   1.878  16.206  0.4255 -1.0488  0.6126
 9342TIP3   OH249516   5.586   5.575  12.105  0.2461  0.0358 -0.2107
 9342TIP3    H149517   5.621   5.505  12.160 -0.0542  1.0169  1.2804
 9342TIP3    H249518   5.529   5.530  12.042  0.6760 -1.1222  0.2020
 9343TIP3   OH249519   0.500   3.757  15.277 -0.1791  0.5435  0.5443
 9343TIP3    H149520   0.541   3.826  15.330 -2.9254  1.4507  1.6937
 9343TIP3    H249521   0.415   3.793  15.253 -0.5543 -1.3808 -1.3091
 9344TIP3   OH249522   3.280   3.575  13.251 -0.2636 -0.0225 -0.0173
 9344TIP3    H149523   3.336   3.637  13.299  0.7458 -1.1638  0.3554
 9344TIP3    H249524   3.316   3.574  13.162 -0.6858  0.4020 -0.1921
 9345TIP3   OH249525   4.442   5.296  14.271  0.4655  0.1968 -0.4021
 9345TIP3    H149526   4.406   5.339  14.349  1.2032 -0.4678  0.3352
 9345TIP3    H249527   4.430   5.359  14.200  1.3602  1.5553  0.6017
 9346TIP3   OH249528   4.479   6.844  16.933  0.5041 -0.0034 -0.0472
 9346TIP3    H149529   4.546   6.904  16.901  0.7471 -0.7628 -1.0043
 9346TIP3    H249530   4.409   6.901  16.965  0.5906  0.7868 -1.2248
 9347TIP3   OH249531   3.879   2.818   3.174  0.3364  0.1434 -0.3192
 9347TIP3    H149532   3.787   2.843   3.165  0.5003  0.0678 -2.9382
 9347TIP3    H249533   3.880   2.723   3.162  0.7729  0.1754 -0.5645
 9348TIP3   OH249534   6.670   2.054   1.936  0.2996  0.4634 -0.0228
 9348TIP3    H149535   6.588   2.084   1.896  0.1362  1.4809  1.0079
 9348TIP3    H249536   6.668   2.091   2.024  0.7359 -1.5486  0.8818
 9349TIP3   OH249537   0.479   1.217   5.591 -0.5972 -0.4782  0.1776
 9349TIP3    H149538   0.424   1.153   5.637 -1.0094 -0.4932 -0.3272
 9349TIP3    H249539   0.419   1.289   5.569 -0.4204 -0.4968 -0.3840
 9350TIP3   OH249540   6.682   1.955  12.647  0.5877 -0.0534 -0.3659
 9350TIP3    H149541   6.690   2.047  12.672  0.5193  0.0357 -0.6626
 9350TIP3    H249542   6.723   1.950  12.561  0.5192 -0.2858 -0.3875
 9351TIP3   OH249543   6.767   2.321   1.819  0.3379 -0.7060 -0.4585
 9351TIP3    H149544   6.843   2.368   1.785 -0.0781  0.9426  0.7738
 9351TIP3    H249545   6.794   2.290   1.905 -0.7733  1.1566  0.6392
 9352TIP3   OH249546   0.980   6.382  13.903  0.0815 -0.5904  0.6055
 9352TIP3    H149547   0.978   6.363  13.809 -0.0578 -1.6472  0.8046
 9352TIP3    H249548   0.925   6.460  13.913  2.0712  1.0534 -0.4873
 9353TIP3   OH249549   5.113   2.129  11.617 -0.4556  0.1578 -0.4504
 9353TIP3    H149550   5.176   2.196  11.592 -0.8680  0.7621  0.1143
 9353TIP3    H249551   5.029   2.163  11.587 -0.9237  0.7666  1.4598
 9354TIP3   OH249552   0.031   1.869   3.940  0.0556  0.3250 -0.3047
 9354TIP3    H149553   0.020   1.946   3.995 -1.3943  0.2615 -0.4544
 9354TIP3    H249554   0.124   1.868   3.917  0.2179  1.6546  0.2302
 9355TIP3   OH249555   3.929   2.546  13.712 -0.4978  0.0745 -0.3538
 9355TIP3    H149556   3.849   2.522  13.664  0.4198 -0.5582 -1.6102
 9355TIP3    H249557   4.000   2.506  13.662  0.6773  1.2255  0.3420
 9356TIP3   OH249558   6.118   0.296  12.303 -0.6202  0.0143  0.0572
 9356TIP3    H149559   6.065   0.347  12.241  0.5909  1.7914  0.3952
 9356TIP3    H249560   6.158   0.362  12.359  1.4673 -1.2894  0.1931
 9357TIP3   OH249561   1.375   1.275  16.437  0.3919 -0.3242  0.0477
 9357TIP3    H149562   1.350   1.205  16.497  2.1933 -0.6949  0.4216
 9357TIP3    H249563   1.382   1.352  16.492 -1.6975  0.2495 -0.3841
 9358TIP3   OH249564   1.978   4.118   5.789  0.1119 -0.1143  0.1106
 9358TIP3    H149565   1.976   4.024   5.808  0.1960 -0.1291  0.0469
 9358TIP3    H249566   2.071   4.139   5.784  0.0920 -0.0657 -0.0629
 9359TIP3   OH249567   5.253   0.749   5.607 -0.6855 -0.2857  0.1014
 9359TIP3    H149568   5.188   0.770   5.674  0.1353  1.2872  0.4510
 9359TIP3    H249569   5.258   0.827   5.552  0.5563 -0.5471 -0.2064
 9360TIP3   OH249570   0.615   6.747   0.550  0.2431 -0.2495 -0.2199
 9360TIP3    H149571   0.709   6.744   0.534  0.2208  1.2186 -0.7678
 9360TIP3    H249572   0.597   6.837   0.577 -0.9493 -0.6072  0.2676
 9361TIP3   OH249573   3.866   0.371  14.622  0.1032 -0.3823  0.1912
 9361TIP3    H149574   3.848   0.389  14.714  0.3553 -2.1056  0.6184
 9361TIP3    H249575   3.945   0.422  14.603  0.0422 -0.0015  0.9246
 9362TIP3   OH249576   3.386   6.372  16.220 -0.2555 -0.3796 -0.3335
 9362TIP3    H149577   3.446   6.381  16.147  1.0760 -2.7018  0.3788
 9362TIP3    H249578   3.310   6.327  16.183  0.1079 -0.9101 -0.4401
 9363TIP3   OH249579   6.583   4.525   0.895 -0.0024 -0.2533  0.2644
 9363TIP3    H149580   6.649   4.588   0.865 -1.5019  1.6604  0.7993
 9363TIP3    H249581   6.598   4.517   0.989 -0.6373  0.3433  0.4227
 9364TIP3   OH249582   1.164   1.015   3.490 -0.1319  0.1004 -0.1433
 9364TIP3    H149583   1.229   0.963   3.538 -0.1476  1.1257  1.0595
 9364TIP3    H249584   1.123   0.953   3.429  0.1172 -1.1967  0.9509
 9365TIP3   OH249585   3.426   1.482  12.489  0.0490 -0.4160 -0.0124
 9365TIP3    H149586   3.378   1.557  12.453 -0.2069 -0.4056  0.3436
 9365TIP3    H249587   3.378   1.459  12.569  1.3238  0.3576  1.0248
 9366TIP3   OH249588   1.882   1.688   0.497 -0.1720 -0.0403 -0.2262
 9366TIP3    H149589   1.797   1.684   0.453 -0.7507  0.9221  0.7557
 9366TIP3    H249590   1.860   1.700   0.590  1.0436  0.6199 -0.0121
 9367TIP3   OH249591   6.238   3.778   4.343 -0.0243  0.5001  0.3374
 9367TIP3    H149592   6.259   3.685   4.349 -0.7944  0.3066  0.1263
 9367TIP3    H249593   6.175   3.784   4.272 -0.0055  1.1841  0.3690
 9368TIP3   OH249594   5.812   0.355  16.580  0.3834  0.1378  0.1049
 9368TIP3    H149595   5.811   0.354  16.484  1.4296 -0.8919  0.0721
 9368TIP3    H249596   5.859   0.435  16.603  1.1344 -0.1726 -0.2954
 9369TIP3   OH249597   1.797   5.521  14.215 -0.2769 -0.9821  1.1223
 9369TIP3    H149598   1.735   5.541  14.285  0.2885  1.2899  1.0487
 9369TIP3    H249599   1.858   5.594  14.215 -1.1647 -0.0158 -2.7566
 9370TIP3   OH249600   4.431   4.220   2.815  0.6596 -0.1696  0.0492
 9370TIP3    H149601   4.360   4.206   2.753  0.5739  1.7077 -0.3286
 9370TIP3    H249602   4.417   4.308   2.848  0.6088 -1.1347  2.8914
 9371TIP3   OH249603   5.359   4.664   1.629 -0.3069  0.2206  0.1697
 9371TIP3    H149604   5.435   4.685   1.574  0.3227  0.6536  1.1785
 9371TIP3    H249605   5.283   4.678   1.572  0.1492  3.4213  0.1712
 9372TIP3   OH249606   1.867   5.404   3.109 -0.2579 -0.1553 -0.2177
 9372TIP3    H149607   1.882   5.336   3.174 -0.8287  0.3225  0.4222
 9372TIP3    H249608   1.911   5.481   3.143  1.8551 -0.6068 -1.7569
 9373TIP3   OH249609   4.672   5.800   4.848  0.3442  0.1984  0.6116
 9373TIP3    H149610   4.732   5.831   4.915  0.5185 -1.6766  1.3822
 9373TIP3    H249611   4.586   5.831   4.877  0.3226 -1.1109  2.1049
 9374TIP3   OH249612   5.539   5.183   0.416  0.3746 -0.5082  0.3227
 9374TIP3    H149613   5.514   5.220   0.501 -0.8250  0.2977 -0.3578
 9374TIP3    H249614   5.572   5.257   0.366 -1.7301 -0.3263 -0.9335
 9375TIP3   OH249615   0.268   1.165   4.261  0.0757 -0.0858 -0.1230
 9375TIP3    H149616   0.219   1.181   4.181  0.0392 -0.5517 -0.1998
 9375TIP3    H249617   0.359   1.166   4.234  0.0908  0.4396 -0.0445
 9376TIP3   OH249618   1.202   2.299   5.689  0.0525  0.0292  0.4289
 9376TIP3    H149619   1.115   2.300   5.729 -2.4542  1.2989 -4.2337
 9376TIP3    H249620   1.233   2.389   5.698 -1.1441  0.6863 -1.3694
 9377TIP3   OH249621   5.159   0.333  14.156 -0.2306  0.2539  0.5993
 9377TIP3    H149622   5.144   0.372  14.069 -0.9935 -1.7799 -0.2450
 9377TIP3    H249623   5.241   0.284  14.146 -1.3979 -1.7377  0.3230
 9378TIP3   OH249624   0.095   2.274  10.739 -0.2410 -0.3763  0.5467
 9378TIP3    H149625   0.033   2.336  10.776  1.7738  1.0287  1.7763
 9378TIP3    H249626   0.147   2.244  10.814  1.4941 -0.3764 -0.5911
 9379TIP3   OH249627   1.495   0.550   2.482 -0.2298 -0.2482 -0.0404
 9379TIP3    H149628   1.405   0.575   2.464 -0.2799 -0.3653  0.0470
 9379TIP3    H249629   1.490   0.457   2.507  0.1221 -0.8132 -1.8802
 9380TIP3   OH249630   0.895   4.827   6.588 -0.2080 -0.2560 -0.1155
 9380TIP3    H149631   0.904   4.889   6.661  0.7911  1.3757 -1.5565
 9380TIP3    H249632   0.863   4.880   6.515 -1.1677 -1.8526 -0.9075
 9381TIP3   OH249633   6.670   2.521   2.458  0.1778  0.8894  0.1074
 9381TIP3    H149634   6.658   2.528   2.553 -0.1786 -1.2607  0.2766
 9381TIP3    H249635   6.762   2.540   2.444  0.2301  1.2481  0.8834
 9382TIP3   OH249636   1.723   1.192   2.844 -0.7053 -0.5355  0.0916
 9382TIP3    H149637   1.696   1.277   2.808  0.3192 -0.8844 -1.6380
 9382TIP3    H249638   1.805   1.211   2.889  1.2784 -1.0229 -3.0169
 9383TIP3   OH249639   4.620   3.105  11.838 -0.2566 -0.1092  0.0042
 9383TIP3    H149640   4.615   3.197  11.862 -0.5821  0.4499 -2.0120
 9383TIP3    H249641   4.698   3.073  11.882  0.1019  1.2432  0.4031
 9384TIP3   OH249642   0.504   4.321  12.528  0.2101  0.6680 -0.4331
 9384TIP3    H149643   0.436   4.366  12.478  0.0164 -1.6777 -2.4581
 9384TIP3    H249644   0.584   4.369  12.508 -0.1608  0.8311 -1.6133
 9385TIP3   OH249645   5.713   3.092  13.124 -0.5142 -0.3118 -0.4249
 9385TIP3    H149646   5.750   3.134  13.047 -0.1231 -0.7851 -0.4984
 9385TIP3    H249647   5.627   3.133  13.135  0.6651  2.0928  0.7916
 9386TIP3   OH249648   0.068   6.541   5.151  0.5324 -0.3896 -0.2643
 9386TIP3    H149649  -0.005   6.602   5.146 -0.1740 -1.2003 -0.1972
 9386TIP3    H249650   0.051   6.477   5.081 -0.0062 -1.8244  1.1280
 9387TIP3   OH249651   4.924   2.586  16.041 -0.0131 -0.1034 -0.3583
 9387TIP3    H149652   4.906   2.660  16.098  0.1205 -1.1524  1.0965
 9387TIP3    H249653   4.845   2.578  15.987 -0.5086  0.3813  0.2814
 9388TIP3   OH249654   5.777   2.221  10.982  0.3005 -0.2514 -0.1450
 9388TIP3    H149655   5.808   2.308  10.957 -0.1232  0.2909  1.1244
 9388TIP3    H249656   5.855   2.166  10.980  0.8859  0.5204  0.5513
 9389TIP3   OH249657   2.340   0.629   5.838  0.8733  0.4521 -0.0427
 9389TIP3    H149658   2.267   0.568   5.848  0.9955  0.4428  0.8683
 9389TIP3    H249659   2.315   0.706   5.889 -0.4962  2.3657 -3.3124
 9390TIP3   OH249660   0.144   0.321   5.054  0.2260  0.2932 -0.4938
 9390TIP3    H149661   0.208   0.380   5.095 -1.9099  1.5008  1.3516
 9390TIP3    H249662   0.061   0.369   5.059 -0.9008 -1.2774 -2.6359
 9391TIP3   OH249663   0.485   4.290   5.323 -0.1165  0.2008 -0.6398
 9391TIP3    H149664   0.543   4.259   5.253  0.0281 -0.1572 -0.3671
 9391TIP3    H249665   0.545   4.321   5.391 -0.2182 -0.9938  0.0156
 9392TIP3   OH249666   4.542   0.717  12.364  0.3792 -0.3134  1.0020
 9392TIP3    H149667   4.574   0.807  12.359  0.3946 -0.2744  1.7109
 9392TIP3    H249668   4.599   0.674  12.428 -0.2061 -0.5774  1.3582
 9393TIP3   OH249669   1.774   1.059   0.221  0.0562  0.0170  0.3634
 9393TIP3    H149670   1.870   1.057   0.224  0.0555  0.9062  1.8480
 9393TIP3    H249671   1.754   1.130   0.160  0.3400 -0.0254  0.2163
 9394TIP3   OH249672   5.406   5.200  16.685  0.2457 -0.2584 -0.6637
 9394TIP3    H149673   5.393   5.294  16.695  0.7102 -0.2157 -0.4269
 9394TIP3    H249674   5.320   5.161  16.701  0.5471 -0.0736  1.8659
 9395TIP3   OH249675   2.617   5.252   6.700 -1.1034 -0.6901 -0.1346
 9395TIP3    H149676   2.690   5.283   6.647 -1.1377 -0.5194 -0.0830
 9395TIP3    H249677   2.577   5.332   6.734 -2.4228 -0.6783 -1.6222
 9396TIP3   OH249678   4.585   6.241   3.216 -0.2838 -0.0731  0.4013
 9396TIP3    H149679   4.502   6.236   3.168  0.2844 -1.3020 -0.5040
 9396TIP3    H249680   4.616   6.330   3.201 -2.0562  0.8711  1.8663
 9397TIP3   OH249681   5.548   2.210   2.898 -0.2848  0.3361  0.1652
 9397TIP3    H149682   5.528   2.294   2.940 -1.4224  0.3212 -0.3262
 9397TIP3    H249683   5.475   2.153   2.922  0.2957 -0.4140  0.1912
 9398TIP3   OH249684   6.765   1.507  11.699 -0.1530  0.0322  0.0116
 9398TIP3    H149685   6.741   1.415  11.714 -0.1871 -0.2845 -1.7978
 9398TIP3    H249686   6.692   1.557  11.736  0.4211 -0.5587  2.1456
 9399TIP3   OH249687   4.976   3.885   4.103 -0.1517 -0.6360  0.5957
 9399TIP3    H149688   5.026   3.846   4.176 -0.9581 -0.7582  1.0949
 9399TIP3    H249689   4.980   3.979   4.119  0.5424 -0.5935  0.2151
 9400TIP3   OH249690   3.651   0.685  16.581  0.2456  0.2587  0.1167
 9400TIP3    H149691   3.607   0.634  16.513  0.0281 -1.0987  1.2146
 9400TIP3    H249692   3.701   0.751  16.533 -1.9077  1.0394 -1.2498
 9401TIP3   OH249693   6.359   1.131  12.500  0.5604  0.0552  0.2855
 9401TIP3    H149694   6.331   1.109  12.589  0.3682  1.4548  0.5848
 9401TIP3    H249695   6.431   1.193  12.511 -0.0637  0.9539 -0.5255
 9402TIP3   OH249696   5.157   2.910   5.401  0.0859  0.5107  0.7163
 9402TIP3    H149697   5.142   2.880   5.491 -2.5818  0.2113  0.2565
 9402TIP3    H249698   5.083   2.967   5.382  0.0964 -0.1581 -1.5980
 9403TIP3   OH249699   6.658   1.566  12.778  0.3462  0.4229  0.0397
 9403TIP3    H149700   6.585   1.519  12.818 -0.6313  1.1760 -0.7989
 9403TIP3    H249701   6.724   1.499  12.763 -1.1281 -0.8033 -1.4356
 9404TIP3   OH249702   5.968   2.224   4.484  0.4568  0.0679  0.1954
 9404TIP3    H149703   6.021   2.208   4.563  1.4327 -0.0159 -0.4625
 9404TIP3    H249704   5.982   2.316   4.464  0.5702 -0.0223 -0.1404
 9405TIP3   OH249705   4.241   1.845   3.386 -0.1826  0.7201  0.2557
 9405TIP3    H149706   4.295   1.815   3.459 -0.3273 -0.0075  0.0677
 9405TIP3    H249707   4.301   1.897   3.332  0.7010 -1.2008 -0.6724
 9406TIP3   OH249708   3.891   4.233   3.186  0.1848  0.3111 -0.3174
 9406TIP3    H149709   3.935   4.154   3.218 -2.4480 -2.1677 -2.3203
 9406TIP3    H249710   3.853   4.273   3.264  1.4287 -0.4548  0.7143
 9407TIP3   OH249711   2.630   2.058  15.057  0.2752 -0.2597  0.2212
 9407TIP3    H149712   2.539   2.087  15.066 -0.3670 -2.2196  0.5453
 9407TIP3    H249713   2.663   2.106  14.981 -0.5361  1.5882  0.9664
 9408TIP3   OH249714   5.277   2.787  11.900  0.2223  0.1519 -0.1398
 9408TIP3    H149715   5.306   2.841  11.974  0.8293 -0.0170 -0.2528
 9408TIP3    H249716   5.181   2.786  11.908  0.3254 -1.5105  1.8516
 9409TIP3   OH249717   5.882   0.450  14.179  0.1281  0.0182  0.0269
 9409TIP3    H149718   5.809   0.456  14.242  0.4689  0.0915  0.4217
 9409TIP3    H249719   5.892   0.539  14.146 -0.1662 -0.0557 -0.2635
 9410TIP3   OH249720   6.153   2.074  11.746 -0.2075  0.7695  0.5653
 9410TIP3    H149721   6.166   1.997  11.801 -0.9068  0.5088  0.3697
 9410TIP3    H249722   6.110   2.041  11.668 -2.0176  1.5756  1.1593
 9411TIP3   OH249723   4.508   0.093  15.059  0.2120  0.2836  0.3143
 9411TIP3    H149724   4.582   0.134  15.104 -0.7587  1.1931  1.1357
 9411TIP3    H249725   4.516   0.000  15.081  1.3473  0.2874  0.0175
 9412TIP3   OH249726   4.970   2.674   5.440 -0.5599 -0.0629 -0.0824
 9412TIP3    H149727   4.969   2.732   5.516  1.8421  0.9249 -0.6844
 9412TIP3    H249728   4.969   2.734   5.365  1.4029 -0.7676 -0.7296
 9413TIP3   OH249729   4.067   2.891  13.017 -0.6638 -0.3767 -0.2409
 9413TIP3    H149730   4.060   2.860  12.927  0.7301  0.4612 -0.6666
 9413TIP3    H249731   4.129   2.831  13.058 -0.2764  0.0268 -0.2246
 9414TIP3   OH249732   5.994   6.288   3.903  0.0576 -0.6371  0.1545
 9414TIP3    H149733   6.009   6.337   3.822  0.7629 -2.3635 -0.8173
 9414TIP3    H249734   5.991   6.197   3.876 -3.9669 -1.0863  1.5080
 9415TIP3   OH249735   4.252   2.598  11.148  0.2745  0.1170  0.0141
 9415TIP3    H149736   4.215   2.656  11.215  1.9866  0.9725  0.2679
 9415TIP3    H249737   4.212   2.628  11.066  1.4916  2.0488  0.0709
 9416TIP3   OH249738   6.832   5.842   0.143 -0.3981 -0.4054  0.2873
 9416TIP3    H149739   6.819   5.896   0.065 -3.3960 -2.7046 -1.0363
 9416TIP3    H249740   6.878   5.764   0.111 -1.9907 -1.5418  0.6116
 9417TIP3   OH249741   0.164   1.692  16.334  0.0935 -0.2947  0.0887
 9417TIP3    H149742   0.213   1.651  16.405 -0.3342 -0.4851  0.2807
 9417TIP3    H249743   0.077   1.652  16.338 -1.6879  3.2281  2.7688
 9418TIP3   OH249744   4.422   5.915   2.821  0.1800  0.3434  0.3890
 9418TIP3    H149745   4.448   5.991   2.874 -1.5308  1.7034 -0.6471
 9418TIP3    H249746   4.405   5.846   2.885  0.3035  1.2791  1.4605
 9419TIP3   OH249747   0.944   3.179   5.031  0.5687  0.1814  0.4782
 9419TIP3    H149748   0.989   3.156   5.113  1.5597  0.8799  0.1550
 9419TIP3    H249749   1.006   3.153   4.962 -0.1729 -0.2173 -0.0410
 9420TIP3   OH249750   1.461   2.448  10.919 -0.3350  0.2341  0.6469
 9420TIP3    H149751   1.496   2.421  10.834 -0.8083 -0.3852  0.6424
 9420TIP3    H249752   1.407   2.525  10.901 -0.9760 -0.2931  0.2789
 9421TIP3   OH249753   5.076   5.268  13.032 -0.8927  0.1198  0.5309
 9421TIP3    H149754   5.118   5.225  12.957 -1.5905  1.7743 -0.9023
 9421TIP3    H249755   4.987   5.232  13.033 -0.8195 -0.0600  0.7162
 9422TIP3   OH249756   0.849   4.462  16.178 -0.6253 -0.5817 -0.0091
 9422TIP3    H149757   0.810   4.379  16.151 -0.6254 -0.5248 -0.1831
 9422TIP3    H249758   0.873   4.449  16.270 -1.4236 -0.4859  0.2194
 9423TIP3   OH249759   5.647   2.523   4.285 -0.1938 -0.2352 -0.7180
 9423TIP3    H149760   5.699   2.593   4.323 -1.3549 -0.0698  0.6654
 9423TIP3    H249761   5.599   2.486   4.359 -1.5476 -0.7842 -1.8155
 9424TIP3   OH249762   4.766   0.733  14.023 -0.4374 -0.1531 -1.2463
 9424TIP3    H149763   4.742   0.826  14.013 -0.4705 -0.1237 -0.9045
 9424TIP3    H249764   4.852   0.726  13.981 -0.0680  0.2081 -0.5722
 9425TIP3   OH249765   6.438   1.241   1.164  0.4247 -0.1954  0.0323
 9425TIP3    H149766   6.407   1.151   1.148 -0.0936 -0.2703  1.3323
 9425TIP3    H249767   6.519   1.247   1.114 -0.0325 -1.0667 -0.8573
 9426TIP3   OH249768   1.211   0.898   2.453 -0.3719  0.4703  0.0863
 9426TIP3    H149769   1.260   0.868   2.530  1.4061  2.3092 -0.2272
 9426TIP3    H249770   1.277   0.907   2.384 -1.3546  1.8570 -0.7426
 9427TIP3   OH249771   3.230   3.778   5.900  0.1571 -0.1736 -0.4662
 9427TIP3    H149772   3.222   3.749   5.991  0.8260 -0.2823 -0.4347
 9427TIP3    H249773   3.307   3.836   5.900 -0.0998  0.1743 -0.8780
 9428TIP3   OH249774   5.211   2.930  13.351  0.4453 -0.4352  0.1752
 9428TIP3    H149775   5.158   2.884  13.415  2.7942 -2.8576  0.5551
 9428TIP3    H249776   5.278   2.975  13.403  0.9247 -0.4084 -0.4536
 9429TIP3   OH249777   6.529   3.420   1.237  0.3309  0.2670  0.3854
 9429TIP3    H149778   6.454   3.423   1.296 -0.3450 -0.1254 -0.4390
 9429TIP3    H249779   6.537   3.509   1.202  0.8816  0.5621  1.2287
 9430TIP3   OH249780   0.571   6.317  16.400  0.2729 -0.1527 -0.2033
 9430TIP3    H149781   0.492   6.359  16.367 -0.1539 -0.6842  0.1144
 9430TIP3    H249782   0.623   6.297  16.322  0.5074  0.9959 -0.3522
 9431TIP3   OH249783   0.941   4.728  12.571  0.1533 -0.0736  0.4143
 9431TIP3    H149784   0.929   4.823  12.568 -1.1867 -0.2543 -1.0333
 9431TIP3    H249785   1.016   4.711  12.513  0.0940  0.0508  0.3021
 9432TIP3   OH249786   3.772   0.577   4.302  0.2180  0.8042  0.5179
 9432TIP3    H149787   3.780   0.670   4.323  0.4584  0.9339 -0.1269
 9432TIP3    H249788   3.847   0.536   4.344  0.2884  0.9500  0.5342
 9433TIP3   OH249789   0.520   0.001   3.935  0.6505 -0.0930 -0.0538
 9433TIP3    H149790   0.573   0.066   3.980  0.5207 -0.3292  0.4517
 9433TIP3    H249791   0.580  -0.072   3.919  0.9431  0.3832 -1.1425
 9434TIP3   OH249792   4.944   1.349  16.396  0.0102  0.1496 -0.0359
 9434TIP3    H149793   4.962   1.431  16.352  2.0772 -0.5247 -0.5495
 9434TIP3    H249794   4.923   1.288  16.325 -2.2384  0.3336  0.3866
 9435TIP3   OH249795   4.124   5.819   4.266  0.3149 -0.1587 -0.2567
 9435TIP3    H149796   4.154   5.760   4.196  1.5963 -0.5082  0.5558
 9435TIP3    H249797   4.203   5.837   4.317 -0.6042  0.0672  1.1197
 9436TIP3   OH249798   3.398   1.385   0.353  0.5471  0.6110  0.4238
 9436TIP3    H149799   3.405   1.418   0.263  2.3121 -0.0244  0.2738
 9436TIP3    H249800   3.367   1.295   0.344  0.9468  0.4702  0.4167
 9437TIP3   OH249801   2.919   5.468  16.334  0.3709 -0.0012  0.1644
 9437TIP3    H149802   3.009   5.482  16.362  0.1643  2.3569 -0.1668
 9437TIP3    H249803   2.873   5.439  16.413  1.2293 -0.4118  0.5188
 9438TIP3   OH249804   2.680   4.463   5.375  0.1644 -0.1323  0.3814
 9438TIP3    H149805   2.696   4.420   5.459 -0.5422  0.6284  0.9192
 9438TIP3    H249806   2.673   4.391   5.312 -1.4921 -0.8621  1.3374
 9439TIP3   OH249807   2.887   4.802   5.405  0.1614  0.2636  0.0269
 9439TIP3    H149808   2.957   4.828   5.465 -0.0161 -1.6359  1.1637
 9439TIP3    H249809   2.821   4.763   5.462 -2.0965  2.4127 -0.9675
 9440TIP3   OH249810   4.135   0.456   3.955  0.4299 -0.0834 -0.1850
 9440TIP3    H149811   4.156   0.364   3.972  1.0523  0.4105  2.1621
 9440TIP3    H249812   4.045   0.455   3.922  0.2704 -1.5206  0.2440
 9441TIP3   OH249813   5.696   4.345  13.836  0.0991  0.1147 -0.4654
 9441TIP3    H149814   5.675   4.436  13.856  0.8694  0.3212 -0.5766
 9441TIP3    H249815   5.734   4.311  13.917  3.2294  0.9503 -1.4532
 9442TIP3   OH249816   4.701   5.051   2.461 -0.2147  0.2210  0.1906
 9442TIP3    H149817   4.630   5.042   2.398  1.4496 -0.2277 -1.7291
 9442TIP3    H249818   4.674   5.121   2.519 -1.1857  1.7071 -1.9489
 9443TIP3   OH249819   3.441   1.871   5.653  0.5275  0.0029  0.3186
 9443TIP3    H149820   3.435   1.886   5.558  1.0326 -0.0427  0.2807
 9443TIP3    H249821   3.523   1.911   5.679 -0.0498  0.8309  0.9056
 9444TIP3   OH249822   6.005   6.557  12.493  0.5448  0.0679  0.2498
 9444TIP3    H149823   6.094   6.546  12.460  0.5580  1.2772 -0.1848
 9444TIP3    H249824   5.994   6.652  12.500 -0.3662 -0.0927  1.2516
 9445TIP3   OH249825   4.041   1.783  11.531 -0.1951 -0.5028  0.3322
 9445TIP3    H149826   4.074   1.722  11.596  1.7499 -0.9745 -1.0028
 9445TIP3    H249827   3.987   1.729  11.472 -1.3018 -0.2281  1.0638
 9446TIP3   OH249828   3.217   6.636   0.376 -0.0756 -0.1900  0.3936
 9446TIP3    H149829   3.198   6.687   0.297 -0.2353 -1.7857 -0.6458
 9446TIP3    H249830   3.300   6.672   0.409  0.5038 -0.1280 -1.0675
 9447TIP3   OH249831   1.417   5.087  12.131 -0.0026 -0.2185  0.2765
 9447TIP3    H149832   1.444   5.162  12.185 -0.3139  1.6724 -2.0026
 9447TIP3    H249833   1.498   5.040  12.113  0.4717  0.5049  0.4592
 9448TIP3   OH249834   3.979   5.066   4.365 -0.4628 -0.2513  0.2788
 9448TIP3    H149835   3.900   5.046   4.416 -0.8847 -0.9186 -0.5919
 9448TIP3    H249836   4.052   5.038   4.420 -0.8493 -0.0043  0.9298
 9449TIP3   OH249837   1.239   5.388  13.156 -0.0560  0.0857 -0.6657
 9449TIP3    H149838   1.318   5.400  13.208 -0.5136  1.0528 -0.1707
 9449TIP3    H249839   1.265   5.329  13.085  1.2353  0.8212 -0.8209
 9450TIP3   OH249840   6.597   1.790  14.696  0.6384 -0.5647 -0.3245
 9450TIP3    H149841   6.618   1.808  14.604 -1.1566 -1.0481 -0.8824
 9450TIP3    H249842   6.506   1.820  14.705  1.1245  0.4691  1.6009
 9451TIP3   OH249843   1.428   5.100   5.577 -0.4932 -0.2315  0.0749
 9451TIP3    H149844   1.345   5.086   5.624 -2.2328  0.9668 -2.4004
 9451TIP3    H249845   1.435   5.024   5.519  0.4542 -0.5870  0.6394
 9452TIP3   OH249846   1.321   6.863   4.523  0.0558 -0.0285  0.2675
 9452TIP3    H149847   1.258   6.842   4.591  0.4970 -0.9307  0.4079
 9452TIP3    H249848   1.374   6.933   4.561 -2.0628  2.1811 -0.5933
 9453TIP3   OH249849   2.258   6.089   5.357  0.3721  0.1490  0.4289
 9453TIP3    H149850   2.306   6.013   5.389 -0.2434  0.6616  2.7614
 9453TIP3    H249851   2.189   6.052   5.302  0.6394 -0.9075  0.7903
 9454TIP3   OH249852   0.194   0.513  11.004 -0.5474  0.3949 -0.1338
 9454TIP3    H149853   0.238   0.516  11.089 -1.9243  0.5900  0.6120
 9454TIP3    H249854   0.251   0.460  10.948 -0.2225 -0.8019  1.2797
 9455TIP3   OH249855   2.618   4.101   2.272  0.4697  0.3854 -0.2644
 9455TIP3    H149856   2.545   4.039   2.273  1.3600 -0.6841  1.0053
 9455TIP3    H249857   2.586   4.174   2.218 -0.9909 -0.6836 -0.9151
 9456TIP3   OH249858   1.040   5.510  10.824  0.3365 -0.1642 -0.4729
 9456TIP3    H149859   1.108   5.557  10.776  1.0577 -1.4595 -0.7607
 9456TIP3    H249860   0.990   5.465  10.757 -1.0065  0.9714 -0.2870
 9457TIP3   OH249861   4.340   2.806   4.671 -0.5162 -0.2267  0.0838
 9457TIP3    H149862   4.315   2.873   4.607 -0.2197  1.5340  1.7228
 9457TIP3    H249863   4.412   2.759   4.630 -0.7403  0.4447 -1.1218
 9458TIP3   OH249864   5.571   3.991   5.327 -0.2280  0.5020  0.0197
 9458TIP3    H149865   5.486   4.011   5.367 -2.2260 -0.6031 -3.3021
 9458TIP3    H249866   5.589   4.066   5.270  2.1943  1.6922  2.0997
 9459TIP3   OH249867   4.181   3.571   3.117 -0.6393 -0.1112  0.6348
 9459TIP3    H149868   4.127   3.601   3.044 -1.6084 -0.9661  0.9631
 9459TIP3    H249869   4.221   3.490   3.085 -0.4141 -0.0488  0.7616
 9460TIP3   OH249870   0.507   0.132  11.645  0.5319  0.4036 -0.4744
 9460TIP3    H149871   0.546   0.057  11.689 -1.2069 -1.0810 -1.3526
 9460TIP3    H249872   0.531   0.120  11.553 -0.3691  0.4963 -0.7312
 9461TIP3   OH249873   5.303   5.443   4.627 -0.0017 -0.2274 -0.5800
 9461TIP3    H149874   5.307   5.389   4.706 -1.9204 -0.1900 -0.4095
 9461TIP3    H249875   5.347   5.525   4.651  0.4732 -0.6689  0.0617
 9462TIP3   OH249876   0.087   3.727   5.626 -0.2447  0.1251 -0.1162
 9462TIP3    H149877  -0.004   3.754   5.615  0.2663  2.0538  0.0531
 9462TIP3    H249878   0.085   3.632   5.616 -2.6480 -0.1958  2.3135
 9463TIP3   OH249879   1.817   2.914   3.902  0.4493 -1.1128 -0.4210
 9463TIP3    H149880   1.745   2.966   3.864  0.9567 -0.5595 -0.6406
 9463TIP3    H249881   1.851   2.863   3.829  1.0095 -0.5257 -0.5786
 9464TIP3   OH249882   4.243   3.980   2.127  0.1600  1.2757 -0.5760
 9464TIP3    H149883   4.321   3.983   2.072  1.0883 -0.5374  0.5660
 9464TIP3    H249884   4.262   4.040   2.199  0.4886  0.8684 -0.3216
 9465TIP3   OH249885   0.223   6.578  14.773 -0.3469  0.0344 -0.3353
 9465TIP3    H149886   0.237   6.524  14.695  0.2320 -0.8601  0.3735
 9465TIP3    H249887   0.305   6.627  14.782 -0.9944  1.3609 -1.1824
 9466TIP3   OH249888   5.981   5.591   4.129  0.3219  0.1501  0.3191
 9466TIP3    H149889   6.036   5.543   4.067  0.2074 -1.0130  1.0860
 9466TIP3    H249890   5.953   5.525   4.193 -1.7185  0.7503  0.1335
 9467TIP3   OH249891   3.843   1.449   4.514  0.3047 -0.6763  0.4394
 9467TIP3    H149892   3.908   1.445   4.584  1.2493 -3.0071 -0.4862
 9467TIP3    H249893   3.794   1.367   4.523 -0.3223 -0.4724 -0.9289
 9468TIP3   OH249894   6.032   2.442   0.268 -0.4175  0.1184 -0.3917
 9468TIP3    H149895   6.022   2.510   0.334 -0.5683 -0.9092  0.6745
 9468TIP3    H249896   5.976   2.470   0.196 -2.7965 -0.3058  1.2079
 9469TIP3   OH249897   3.060   5.069   5.204 -0.3748  0.4831  0.1263
 9469TIP3    H149898   2.993   5.115   5.154 -1.8397 -1.8309 -0.1743
 9469TIP3    H249899   3.137   5.070   5.147 -1.5786 -0.8498 -1.6353
 9470TIP3   OH249900   6.324   1.496   0.494  0.4240  0.3422  0.3533
 9470TIP3    H149901   6.333   1.407   0.527 -1.3476  0.5253  1.4152
 9470TIP3    H249902   6.298   1.548   0.570  0.2746  1.5467 -0.4911
 9471TIP3   OH249903   2.161   3.365  14.486 -0.1465  0.3821 -0.2493
 9471TIP3    H149904   2.093   3.301  14.463 -1.5415  1.8834 -0.5170
 9471TIP3    H249905   2.215   3.372  14.408 -1.9407  1.8696 -1.4203
 9472TIP3   OH249906   2.496   0.583  15.676 -0.0110 -0.2874  0.1169
 9472TIP3    H149907   2.456   0.634  15.747  1.1493  3.9940 -1.9374
 9472TIP3    H249908   2.443   0.604  15.599  0.5988 -2.2721 -0.9188
 9473TIP3   OH249909   0.763   0.879  12.787  0.1355 -0.3373  0.4254
 9473TIP3    H149910   0.675   0.903  12.817  0.7167  2.5573  0.1627
 9473TIP3    H249911   0.822   0.920  12.851  1.2930  1.2019 -1.5006
 9474TIP3   OH249912   1.815   4.309  11.116  0.2422  0.4464 -0.0552
 9474TIP3    H149913   1.801   4.275  11.027  1.3067 -0.8951  0.2624
 9474TIP3    H249914   1.819   4.404  11.104 -2.2152  0.4969 -1.0542
 9475TIP3   OH249915   1.643   3.604   1.398  0.0070 -0.3107  0.0641
 9475TIP3    H149916   1.721   3.660   1.408 -2.0143  3.3256 -2.1404
 9475TIP3    H249917   1.671   3.533   1.341  1.8780  0.4645 -0.0439
 9476TIP3   OH249918   3.332   6.511   0.030  0.2036 -0.0910  0.4697
 9476TIP3    H149919   3.350   6.471  -0.055  0.0842 -0.5629  0.6617
 9476TIP3    H249920   3.367   6.599   0.023  0.2031 -0.1296 -0.0671
 9477TIP3   OH249921   2.811   1.314   3.442  0.2380  0.2559 -0.4801
 9477TIP3    H149922   2.836   1.243   3.501 -0.4492  0.2078 -0.2370
 9477TIP3    H249923   2.831   1.281   3.355  1.1334  0.2711 -0.2951
 9478TIP3   OH249924   0.471   6.193  10.810 -0.7052  0.0681 -0.1980
 9478TIP3    H149925   0.536   6.123  10.816 -0.1827  0.5788  0.3978
 9478TIP3    H249926   0.434   6.185  10.723 -1.8796 -1.9941  0.4240
 9479TIP3   OH249927   2.445   2.776  12.277  0.0411 -0.4753  0.0763
 9479TIP3    H149928   2.471   2.835  12.207 -0.0544 -1.7614 -1.0883
 9479TIP3    H249929   2.439   2.690  12.235  0.7795 -1.4343  1.8269
 9480TIP3   OH249930   3.322   6.375   5.145  0.1915  0.3127 -0.0366
 9480TIP3    H149931   3.277   6.345   5.066  1.7545 -0.6603 -0.5964
 9480TIP3    H249932   3.286   6.462   5.161 -0.8116  0.1561 -1.2995
 9481TIP3   OH249933   6.560   4.888  12.957 -0.4914  0.0844  0.0277
 9481TIP3    H149934   6.633   4.861  12.900 -1.8379 -0.6319 -1.4586
 9481TIP3    H249935   6.570   4.982  12.966  1.5661 -0.1925  1.2806
 9482TIP3   OH249936   3.152   4.127   1.227  0.0421  0.5606  0.0481
 9482TIP3    H149937   3.092   4.099   1.295 -0.1845 -1.3258 -0.8637
 9482TIP3    H249938   3.098   4.134   1.148  1.0985 -2.4707 -1.1033
 9483TIP3   OH249939   0.648   4.115  14.372 -0.6008 -0.3026  0.3671
 9483TIP3    H149940   0.635   4.051  14.442 -0.5299 -1.3154 -0.5169
 9483TIP3    H249941   0.636   4.065  14.291 -0.2529  0.7434 -0.3561
 9484TIP3   OH249942   3.866   3.918   2.747  0.5232  0.2741  0.3278
 9484TIP3    H149943   3.920   3.864   2.689 -0.1797  0.2284 -0.2871
 9484TIP3    H249944   3.804   3.857   2.787 -0.4498  0.6427 -0.5726
 9485TIP3   OH249945   0.820   0.082   3.390 -0.4966  0.0799 -0.5775
 9485TIP3    H149946   0.776   0.157   3.431 -1.1422 -1.0025  0.8034
 9485TIP3    H249947   0.750   0.021   3.368  0.1661 -1.3218  0.9085
 9486TIP3   OH249948   1.739   3.101   1.839  0.3438  0.2504  0.1164
 9486TIP3    H149949   1.712   3.182   1.795  2.6195 -0.4394 -3.0015
 9486TIP3    H249950   1.831   3.117   1.862  0.7440 -1.3096 -0.3123
 9487TIP3   OH249951   1.988   5.469   5.263  0.4995 -0.0229 -0.7047
 9487TIP3    H149952   2.024   5.554   5.286 -2.4192  0.3536  3.3987
 9487TIP3    H249953   2.031   5.408   5.323 -1.8094 -0.3458  0.7162
 9488TIP3   OH249954   3.249   4.258   0.501  0.0415  0.1684 -0.2129
 9488TIP3    H149955   3.223   4.339   0.544  0.1254  0.0231  0.1085
 9488TIP3    H249956   3.194   4.191   0.541  0.0181  0.0558 -0.4329
 9489TIP3   OH249957   5.988   4.114  12.530  0.2748  0.3653 -0.0551
 9489TIP3    H149958   5.995   4.196  12.578 -2.1123  0.1276  0.8424
 9489TIP3    H249959   6.074   4.073  12.539  1.1480  2.1946  0.4763
 9490TIP3   OH249960   4.051   2.143   6.193 -0.0890  0.2268  0.3925
 9490TIP3    H149961   4.061   2.051   6.216  2.3253 -0.1878 -1.8861
 9490TIP3    H249962   3.979   2.144   6.130 -1.3130  0.2255  1.7366
 9491TIP3   OH249963   1.658   5.753  13.386 -0.3302 -0.8667  0.2759
 9491TIP3    H149964   1.733   5.705  13.421  0.3269 -0.5407 -0.6331
 9491TIP3    H249965   1.670   5.843  13.418 -0.5328 -0.8940  0.4293
 9492TIP3   OH249966   1.075   6.353  13.349  0.0224 -0.1334 -0.5310
 9492TIP3    H149967   1.101   6.295  13.278  1.4541 -0.0028 -0.1396
 9492TIP3    H249968   1.106   6.309  13.428 -0.0209  0.5497 -0.1259
 9493TIP3   OH249969   4.029   2.477   6.006  0.1329  0.0020  0.3023
 9493TIP3    H149970   4.050   2.563   5.969 -2.4001  0.5703  0.0420
 9493TIP3    H249971   3.934   2.479   6.020 -0.1358 -3.0466 -0.4623
 9494TIP3   OH249972   5.328   2.674   3.065 -0.3718 -0.5468 -0.1723
 9494TIP3    H149973   5.388   2.747   3.082 -1.0064  0.3810 -1.7054
 9494TIP3    H249974   5.246   2.716   3.038 -1.6868 -1.7975  1.6446
 9495TIP3   OH249975   1.952   2.233  11.435  0.2389 -0.3084  0.2324
 9495TIP3    H149976   1.959   2.327  11.414  0.0831 -0.1739  0.7820
 9495TIP3    H249977   2.031   2.214  11.486  0.7037 -0.6774 -0.6024
 9496TIP3   OH249978   2.000   2.227  15.821  0.1970 -0.6007 -0.1465
 9496TIP3    H149979   1.984   2.177  15.901 -0.0288  1.2640  1.0445
 9496TIP3    H249980   2.061   2.295  15.847 -0.1242  0.2450 -1.4839
 9497TIP3   OH249981   6.180   0.407   6.628  0.2702  0.2959 -0.0633
 9497TIP3    H149982   6.143   0.481   6.579  0.7992  1.2053  0.8781
 9497TIP3    H249983   6.244   0.447   6.687  0.5274 -0.9164  0.5022
 9498TIP3   OH249984   1.505   2.451  15.367  0.3549 -0.1603  0.3257
 9498TIP3    H149985   1.586   2.420  15.328  0.5658 -0.4426  0.9682
 9498TIP3    H249986   1.437   2.433  15.302  0.9242  0.8949 -0.5949
 9499TIP3   OH249987   6.319   2.223   6.205  0.3640 -0.3232  0.5039
 9499TIP3    H149988   6.266   2.202   6.281 -0.1536 -2.7692 -0.4697
 9499TIP3    H249989   6.360   2.307   6.227  0.8236 -1.2789  3.7876
 9500TIP3   OH249990   0.075   5.721   3.885  0.5830  0.1309 -0.0963
 9500TIP3    H149991   0.119   5.744   3.803  0.3300  0.5241 -0.1265
 9500TIP3    H249992   0.145   5.712   3.949  0.7153  0.7235 -0.1493
 9501TIP3   OH249993   2.155   6.577   5.581  0.5829  0.1654 -0.4789
 9501TIP3    H149994   2.248   6.586   5.558  0.2775 -0.3391 -1.9681
 9501TIP3    H249995   2.136   6.484   5.566 -0.6717  0.6675 -2.1864
 9502TIP3   OH249996   5.960   1.920  14.011 -0.0597  0.2179  0.3270
 9502TIP3    H149997   6.045   1.963  14.000 -0.1644  0.4471  0.4030
 9502TIP3    H249998   5.942   1.927  14.105  0.8152 -1.7059  0.6879
 9503TIP3   OH249999   2.468   0.426   4.425  0.6027  0.4340  0.4320
 9503TIP3    H150000   2.493   0.503   4.374  0.9777  0.5044  0.7235
 9503TIP3    H250001   2.490   0.352   4.368 -0.6113  0.5503 -0.2347
 9504TIP3   OH250002   1.045   2.965  12.752  0.3861  0.4413 -0.6469
 9504TIP3    H150003   1.085   2.877  12.755 -2.1240 -0.7623 -0.1133
 9504TIP3    H250004   1.031   2.987  12.844 -2.0452 -0.1352 -0.8256
 9505TIP3   OH250005   3.443   3.020  13.206  0.2025  0.0430 -0.0947
 9505TIP3    H150006   3.381   3.065  13.149  0.0747 -1.6661 -1.3847
 9505TIP3    H250007   3.519   3.078  13.210 -0.1065  0.5592 -1.3384
 9506TIP3   OH250008   1.214   0.738  11.803 -0.4249  0.9337 -0.4452
 9506TIP3    H150009   1.166   0.753  11.722 -0.9078  0.1720 -0.3007
 9506TIP3    H250010   1.178   0.803  11.864 -1.2167  0.4263 -0.3612
 9507TIP3   OH250011   4.817   3.389   5.261 -0.2649  0.1964  0.0713
 9507TIP3    H150012   4.776   3.309   5.294  1.9074 -0.4472  1.4499
 9507TIP3    H250013   4.831   3.443   5.339 -1.0629  1.6499 -0.7512
 9508TIP3   OH250014   0.318   0.135   5.765 -0.0357 -0.1074 -0.0573
 9508TIP3    H150015   0.232   0.095   5.777  0.0007 -0.6579 -1.4630
 9508TIP3    H250016   0.336   0.180   5.848 -1.6730  0.0346  0.2380
 9509TIP3   OH250017   0.409   1.132   2.883  0.3386 -0.2123 -0.2904
 9509TIP3    H150018   0.337   1.191   2.864 -0.2981 -0.3583  1.5119
 9509TIP3    H250019   0.429   1.090   2.799 -1.7846 -0.2931 -0.8043
 9510TIP3   OH250020   2.250   5.217  16.181 -0.2986 -0.3956 -0.6756
 9510TIP3    H150021   2.158   5.201  16.204 -0.2155  0.2359  0.1662
 9510TIP3    H250022   2.300   5.182  16.255  0.0970 -0.1656 -0.8273
 9511TIP3   OH250023   2.487   3.489  10.507 -0.2824  0.1250  0.0969
 9511TIP3    H150024   2.400   3.480  10.544  0.3725 -2.7298  1.1940
 9511TIP3    H250025   2.479   3.454  10.418 -0.6365  1.6844 -0.5051
 9512TIP3   OH250026   6.709   4.747   1.378 -0.0792  0.3299 -0.7339
 9512TIP3    H150027   6.781   4.749   1.441 -0.7701 -0.1949  0.0901
 9512TIP3    H250028   6.707   4.836   1.341  1.8304  0.0022 -1.7757
 9513TIP3   OH250029   3.238   1.424   1.809 -0.0832  0.5505  0.2198
 9513TIP3    H150030   3.193   1.436   1.893 -0.3102 -0.3714  0.2415
 9513TIP3    H250031   3.331   1.432   1.831 -0.0151 -1.6692  0.9606
 9514TIP3   OH250032   5.394   4.952   4.496 -0.2426  0.0988  0.2220
 9514TIP3    H150033   5.327   4.902   4.543 -0.2698  1.1241  1.3115
 9514TIP3    H250034   5.416   4.896   4.421 -0.9117 -1.1327  0.8958
 9515TIP3   OH250035   3.730   5.174  10.999 -0.0401  0.2087 -0.4282
 9515TIP3    H150036   3.805   5.221  10.961  1.7092  2.5202  4.8891
 9515TIP3    H250037   3.769   5.096  11.039 -1.5663 -1.5328 -2.1634
 9516TIP3   OH250038   2.165   3.971  13.081 -0.2448 -0.0926  1.0139
 9516TIP3    H150039   2.151   4.061  13.111  2.1159  1.0351 -0.9604
 9516TIP3    H250040   2.184   3.922  13.160  0.0116  1.4876  1.9726
 9517TIP3   OH250041   1.496   6.767  14.772 -0.3151 -0.1921 -0.6112
 9517TIP3    H150042   1.548   6.845  14.794  0.0052 -1.0033  1.7980
 9517TIP3    H250043   1.434   6.758  14.845  0.0941 -2.5361 -0.4789
 9518TIP3   OH250044   6.547   0.365   3.080 -0.1993 -0.1991 -0.0211
 9518TIP3    H150045   6.580   0.383   2.992 -0.3576  1.1208  0.1756
 9518TIP3    H250046   6.485   0.435   3.098 -1.8287 -1.6711  0.3122
 9519TIP3   OH250047   4.781   4.181   2.676  0.5394 -0.7404  0.1382
 9519TIP3    H150048   4.771   4.219   2.763 -1.5579 -2.0438  0.5465
 9519TIP3    H250049   4.800   4.255   2.619  1.6130  0.1827  1.6325
 9520TIP3   OH250050   2.672   2.441  16.814 -0.3413 -0.3918 -0.2121
 9520TIP3    H150051   2.714   2.427  16.729 -1.3087  2.0215 -1.1721
 9520TIP3    H250052   2.717   2.518  16.850  0.2815 -1.5785  1.6654
 9521TIP3   OH250053   2.615   6.114   4.547 -0.0879 -0.6883 -0.5611
 9521TIP3    H150054   2.595   6.204   4.571 -2.9145 -1.7454  1.6620
 9521TIP3    H250055   2.676   6.121   4.475  1.0145  2.9686  0.5378
 9522TIP3   OH250056   5.965   6.442  13.961  0.5859 -0.7635  0.3496
 9522TIP3    H150057   5.951   6.372  14.025  0.7771  0.0427  1.2953
 9522TIP3    H250058   6.052   6.477  13.983  0.4789 -0.2130 -0.0884
 9523TIP3   OH250059   2.961   2.144   5.747  0.4962  0.0290  0.4716
 9523TIP3    H150060   2.968   2.081   5.674  0.0562 -1.3763  1.6051
 9523TIP3    H250061   2.868   2.162   5.754  0.6428  1.0397 -0.0049
 9524TIP3   OH250062   5.026   2.978  12.249 -0.1948  0.2733 -0.4119
 9524TIP3    H150063   4.983   2.893  12.263 -0.3693  0.1980 -1.3703
 9524TIP3    H250064   4.984   3.036  12.312 -1.6302  0.1695 -1.2273
 9525TIP3   OH250065   0.665   3.857  12.995 -0.1201 -0.8671  0.2196
 9525TIP3    H150066   0.608   3.808  13.053 -1.5537 -0.1316 -0.5066
 9525TIP3    H250067   0.705   3.791  12.938 -0.2748 -1.3902  0.7124
 9526TIP3   OH250068   1.890   5.566  15.695  0.2246  0.3422  0.1072
 9526TIP3    H150069   1.921   5.638  15.641  0.3366  0.3427  0.1734
 9526TIP3    H250070   1.968   5.514  15.713  0.2344  0.4994  0.5085
 9527TIP3   OH250071   3.579   4.488   5.903  0.3031 -0.1969  0.2774
 9527TIP3    H150072   3.540   4.514   5.986 -0.5761  0.0681 -0.2014
 9527TIP3    H250073   3.672   4.479   5.921  0.1219 -0.1229  1.2812
 9528TIP3   OH250074   0.374   2.259   5.122  0.6325  0.3668  0.4958
 9528TIP3    H150075   0.422   2.231   5.044 -1.1014 -0.9216 -0.1745
 9528TIP3    H250076   0.441   2.295   5.180  2.1506  0.1200 -1.0372
 9529TIP3   OH250077   5.135   3.620  13.734 -0.0169  0.1786  0.3630
 9529TIP3    H150078   5.199   3.670  13.784  1.8127 -0.4089 -1.2505
 9529TIP3    H250079   5.096   3.685  13.674  1.3900 -0.0268 -0.8134
 9530TIP3   OH250080   3.418   4.226  11.959 -0.3447  0.3986 -0.1380
 9530TIP3    H150081   3.513   4.233  11.971  0.0140 -1.5751 -1.2948
 9530TIP3    H250082   3.398   4.136  11.986 -1.7825  0.6106 -0.4654
 9531TIP3   OH250083   0.152   4.537   3.127  0.7873  0.4587  0.9182
 9531TIP3    H150084   0.199   4.455   3.113  0.9230  0.8249 -1.1430
 9531TIP3    H250085   0.060   4.514   3.113  0.7977  0.5922  0.6249
 9532TIP3   OH250086   5.986   2.323   3.702 -0.1627  0.0441  0.5727
 9532TIP3    H150087   6.062   2.321   3.644  0.3253 -1.1143  1.2239
 9532TIP3    H250088   6.022   2.314   3.790 -1.0261 -0.1234  0.9232
 9533TIP3   OH250089   1.055   3.611   2.651 -0.4898  0.2887  0.2870
 9533TIP3    H150090   1.144   3.584   2.632 -0.3705  0.8271  0.0434
 9533TIP3    H250091   1.001   3.557   2.593 -0.4510 -1.0481  1.4345
 9534TIP3   OH250092   5.467   1.022  16.611  0.2549 -0.5094 -0.2823
 9534TIP3    H150093   5.379   0.987  16.625  0.3249 -0.8460 -0.6800
 9534TIP3    H250094   5.462   1.065  16.526 -0.0657  1.1986  0.5526
 9535TIP3   OH250095   1.549   6.419   0.694  0.2320 -0.3766 -0.2853
 9535TIP3    H150096   1.518   6.509   0.705  1.2280 -0.2859  2.1942
 9535TIP3    H250097   1.476   6.375   0.649 -0.9764  1.2459 -0.0154
 9536TIP3   OH250098   5.195   4.083  11.041 -0.3261  0.1055  0.1107
 9536TIP3    H150099   5.286   4.065  11.067 -0.5312 -0.0970  0.7068
 9536TIP3    H250100   5.148   4.090  11.124 -0.9912 -0.4759 -0.2155
 9537TIP3   OH250101   2.852   6.834  16.925 -0.2874  0.4071 -0.1865
 9537TIP3    H150102   2.935   6.878  16.909 -0.5133  0.9291  0.0667
 9537TIP3    H250103   2.848   6.823  17.020  0.9648 -2.5160 -0.3568
 9538TIP3   OH250104   5.670   1.667  16.266 -0.1301 -0.0410  0.2310
 9538TIP3    H150105   5.724   1.742  16.241 -0.8646 -0.1839 -2.0256
 9538TIP3    H250106   5.689   1.653  16.358  2.2287  1.0835 -0.0281
 9539TIP3   OH250107   3.282   2.590  13.197 -0.5816 -0.3850  0.3895
 9539TIP3    H150108   3.342   2.516  13.200 -1.7750 -1.4716 -1.1895
 9539TIP3    H250109   3.245   2.589  13.109 -0.8654  1.9301  0.4022
 9540TIP3   OH250110   2.007   6.681   5.856 -0.2539 -0.0405  0.1524
 9540TIP3    H150111   2.044   6.739   5.922  1.8275 -2.6126  1.4159
 9540TIP3    H250112   1.912   6.685   5.871  0.0285  0.9439  1.9402
 9541TIP3   OH250113   3.248   2.926  12.243 -0.2018 -0.0184 -0.3804
 9541TIP3    H150114   3.252   2.968  12.329 -0.9219  0.5222 -0.5966
 9541TIP3    H250115   3.202   2.990  12.188 -1.3039 -1.0740 -0.7328
 9542TIP3   OH250116   1.960   6.779   5.398  0.4234 -0.2889 -0.5384
 9542TIP3    H150117   1.976   6.855   5.342  1.6533 -0.8362 -0.9783
 9542TIP3    H250118   1.951   6.705   5.337 -0.5760 -0.5361 -0.1096
 9543TIP3   OH250119   6.635   5.985   2.222  0.4921  0.5175  0.4966
 9543TIP3    H150120   6.719   5.942   2.235  0.0641 -0.0809  1.3840
 9543TIP3    H250121   6.655   6.060   2.166  1.2691 -0.7591 -1.0088
 9544TIP3   OH250122   3.361   4.487  14.593  0.2388 -0.8390  0.2314
 9544TIP3    H150123   3.384   4.395  14.576 -1.5896 -1.8496  2.5803
 9544TIP3    H250124   3.438   4.522  14.637  1.0596 -1.1365 -0.9128
 9545TIP3   OH250125   4.709   5.036  11.828  0.0760 -0.3266  0.2730
 9545TIP3    H150126   4.769   5.073  11.763  0.8134 -0.9138  0.5930
 9545TIP3    H250127   4.717   5.094  11.904 -0.8081  0.3758 -0.1610
 9546TIP3   OH250128   4.837   2.819   2.754  0.1559 -0.6028  0.0268
 9546TIP3    H150129   4.893   2.885   2.796  0.0211 -0.8364  0.5789
 9546TIP3    H250130   4.801   2.768   2.826 -1.1385 -0.1763 -0.2841
 9547TIP3   OH250131   4.607   0.754   1.766  0.1138  0.2190 -0.1188
 9547TIP3    H150132   4.578   0.730   1.678  2.5715 -0.7537 -0.7368
 9547TIP3    H250133   4.678   0.817   1.752 -0.4706  1.2595  1.2571
 9548TIP3   OH250134   4.351   6.318  12.969  0.1269 -0.5613  0.0761
 9548TIP3    H150135   4.406   6.249  13.005  1.1858  0.6193  0.8129
 9548TIP3    H250136   4.315   6.281  12.888  2.3839 -1.2229 -0.6960
 9549TIP3   OH250137   6.700   0.867   4.143 -0.2483  0.0770 -0.2274
 9549TIP3    H150138   6.696   0.823   4.058  0.1116  0.0777 -0.2468
 9549TIP3    H250139   6.792   0.862   4.168 -0.0418  1.4920 -0.5851
 9550TIP3   OH250140   0.980   5.086   0.958 -0.5529  0.3356 -0.3914
 9550TIP3    H150141   1.069   5.112   0.936 -0.4325  0.7251  0.4706
 9550TIP3    H250142   0.967   5.001   0.916 -0.0813  0.6740 -1.2336
 9551TIP3   OH250143   5.458   4.707   0.744 -0.3455 -0.2392 -0.0061
 9551TIP3    H150144   5.445   4.786   0.797 -1.5230 -0.0496 -0.5471
 9551TIP3    H250145   5.392   4.646   0.776  2.3358 -2.1265  2.3768
 9552TIP3   OH250146   2.475   0.483   4.121  0.1711  0.4718 -0.0716
 9552TIP3    H150147   2.401   0.423   4.108  0.1558  0.7598 -1.3964
 9552TIP3    H250148   2.434   0.567   4.142  0.1736  0.2380  0.9066
 9553TIP3   OH250149   6.828   3.402   3.438 -0.3180  0.1048 -0.2237
 9553TIP3    H150150   6.786   3.414   3.353  1.1679  0.6185 -0.9176
 9553TIP3    H250151   6.869   3.486   3.457  0.4796 -0.4007  0.3641
 9554TIP3   OH250152   3.492   5.101   1.403 -0.3159 -0.2042 -0.2295
 9554TIP3    H150153   3.533   5.171   1.352 -0.2130 -0.6790 -0.8067
 9554TIP3    H250154   3.454   5.042   1.338  0.5152 -1.2480  0.2008
 9555TIP3   OH250155   1.733   5.977  13.518  0.6590  0.1864 -0.4580
 9555TIP3    H150156   1.742   6.071  13.504 -0.8024  0.1779 -1.7498
 9555TIP3    H250157   1.741   5.965  13.612 -0.0854  1.7164 -0.1851
 9556TIP3   OH250158   3.368   5.154   1.949  0.5300 -0.2087 -0.2233
 9556TIP3    H150159   3.420   5.174   2.027  0.5121 -1.0044  0.0017
 9556TIP3    H250160   3.285   5.123   1.984  0.8306 -1.4134 -0.5264
 9557TIP3   OH250161   4.815   2.114  16.633 -1.0033 -0.1338  0.7550
 9557TIP3    H150162   4.826   2.145  16.723 -1.0319 -1.9943  1.4443
 9557TIP3    H250163   4.721   2.103  16.623 -1.0666  0.8171  0.2084
 9558TIP3   OH250164   2.156   4.569  14.004 -0.0668 -0.0924 -0.1753
 9558TIP3    H150165   2.136   4.503  13.938  1.2195 -1.4740  0.7539
 9558TIP3    H250166   2.241   4.604  13.978 -0.8438  1.4589 -0.8042
 9559TIP3   OH250167   6.314   5.220  13.951 -0.1114 -0.1453  0.2531
 9559TIP3    H150168   6.368   5.295  13.927 -0.1446 -0.3984 -0.6441
 9559TIP3    H250169   6.304   5.170  13.870 -0.7986 -0.6703  0.6459
 9560TIP3   OH250170   3.351   1.050   3.436  0.4710  0.7496 -0.3198
 9560TIP3    H150171   3.258   1.063   3.417  0.7029  0.6384 -1.6260
 9560TIP3    H250172   3.352   0.980   3.501 -0.2991 -1.2738 -2.3450
 9561TIP3   OH250173   5.870   6.298   4.171 -0.5551 -0.3403 -0.1358
 9561TIP3    H150174   5.886   6.277   4.080  1.1805 -3.3096  0.7171
 9561TIP3    H250175   5.789   6.251   4.193 -2.3028  2.2529 -0.6223
 9562TIP3   OH250176   0.937   3.612   3.975  0.5740 -0.0476 -0.4464
 9562TIP3    H150177   0.856   3.658   3.953 -0.5576 -1.1078  1.2401
 9562TIP3    H250178   0.999   3.681   3.995  0.0104  0.7813 -1.4316
 9563TIP3   OH250179   5.676   6.164   4.307  0.3283 -0.3220  0.1965
 9563TIP3    H150180   5.600   6.127   4.350  0.1749  0.5406  0.6939
 9563TIP3    H250181   5.748   6.149   4.368  0.3328 -0.1118  0.2429
 9564TIP3   OH250182   2.005   2.376  13.390  0.2686  0.2676 -0.4128
 9564TIP3    H150183   2.067   2.400  13.321  0.3826  1.6395  0.1348
 9564TIP3    H250184   1.938   2.444  13.387  0.5315  0.6297  1.1371
 9565TIP3   OH250185   6.095   2.722   3.648 -0.4036  0.6155  0.2654
 9565TIP3    H150186   6.122   2.707   3.738 -0.6420 -0.9217  0.1163
 9565TIP3    H250187   6.011   2.768   3.655 -1.3849 -1.1812  0.9002
 9566TIP3   OH250188   1.273   0.617   5.435  0.0260  0.0026  0.2622
 9566TIP3    H150189   1.295   0.579   5.350  1.7677  0.1729  0.6035
 9566TIP3    H250190   1.297   0.709   5.427 -2.1537  0.6185  0.1534
 9567TIP3   OH250191   6.292   6.431   1.848  0.3532  0.1409  0.0072
 9567TIP3    H150192   6.239   6.400   1.922 -0.3057 -0.0873 -0.5467
 9567TIP3    H250193   6.243   6.506   1.814 -0.2843 -0.8032 -1.2573
 9568TIP3   OH250194   4.049   5.599  15.849  0.5573 -0.4015  0.6402
 9568TIP3    H150195   3.958   5.628  15.859  0.4217 -0.2184 -0.9016
 9568TIP3    H250196   4.071   5.560  15.934 -0.0014  2.0886  2.0173
 9569TIP3   OH250197   3.051   2.727  12.231  0.4944 -0.2432 -0.3928
 9569TIP3    H150198   3.123   2.790  12.228  0.1003  0.3687  1.5601
 9569TIP3    H250199   3.062   2.674  12.152  2.0340  0.9610 -1.0401
 9570TIP3   OH250200   0.105   1.018  11.746  0.0133 -0.2349  0.4221
 9570TIP3    H150201   0.112   1.069  11.826  0.4075 -2.4148  1.8562
 9570TIP3    H250202   0.165   0.944  11.759  0.1671 -0.6222 -1.9311
 9571TIP3   OH250203   3.191   6.668   4.352  0.2344 -0.3763  0.2480
 9571TIP3    H150204   3.131   6.725   4.400  0.0690  1.1969 -1.6895
 9571TIP3    H250205   3.260   6.726   4.321  0.4011 -1.3273 -1.2883
 9572TIP3   OH250206   4.276   3.346   0.484 -0.2291 -0.0209  0.0759
 9572TIP3    H150207   4.262   3.253   0.497 -1.9724 -0.1682 -2.1820
 9572TIP3    H250208   4.223   3.389   0.551  0.0104 -0.6458  0.6698
 9573TIP3   OH250209   6.170   3.065   4.002 -0.5661  0.2572  0.1483
 9573TIP3    H150210   6.192   3.123   3.929 -1.2552  1.4465  0.8521
 9573TIP3    H250211   6.247   3.009   4.012 -0.0562  0.7578 -0.8411
 9574TIP3   OH250212   6.211   2.473   0.576  0.3149 -0.2102 -0.3613
 9574TIP3    H150213   6.300   2.491   0.607 -0.0422  1.1893 -0.0726
 9574TIP3    H250214   6.167   2.558   0.580 -0.8515 -0.7577 -1.1134
 9575TIP3   OH250215   1.166   5.254   3.449  0.3460  0.0645 -0.1477
 9575TIP3    H150216   1.200   5.208   3.525 -0.5881 -1.2268 -0.4854
 9575TIP3    H250217   1.159   5.188   3.381 -1.6744  0.4963 -0.4437
 9576TIP3   OH250218   6.309   6.605  16.194 -0.2569  0.2877 -0.0711
 9576TIP3    H150219   6.222   6.621  16.158 -0.5837 -1.5582 -0.2143
 9576TIP3    H250220   6.363   6.676  16.159 -1.6116  1.2428 -0.2904
 9577TIP3   OH250221   5.380   4.924   2.307 -0.2570  0.6845 -0.1609
 9577TIP3    H150222   5.351   4.974   2.230 -3.0122  1.5772  1.2845
 9577TIP3    H250223   5.433   4.986   2.358 -0.5942  0.9501 -0.1291
 9578TIP3   OH250224   4.997   3.986  10.397  0.1931  0.2090 -0.3407
 9578TIP3    H150225   4.933   4.055  10.410 -0.7079 -0.8921  1.3667
 9578TIP3    H250226   4.963   3.936  10.322  0.6533  1.3371 -1.3386
 9579TIP3   OH250227   3.976   6.644   0.810  0.1106 -0.3226 -0.3125
 9579TIP3    H150228   3.983   6.593   0.730 -1.0678 -1.0419  0.0154
 9579TIP3    H250229   3.909   6.709   0.792 -0.0956 -0.4291  0.0521
 9580TIP3   OH250230   6.171   0.503  11.572  0.2069  0.2132 -0.7271
 9580TIP3    H150231   6.204   0.420  11.536 -0.6011 -0.3706 -0.1528
 9580TIP3    H250232   6.162   0.559  11.495  2.4631  0.4021 -0.9215
 9581TIP3   OH250233   4.558   1.201   4.070 -0.2369 -0.1828  0.0929
 9581TIP3    H150234   4.549   1.148   3.992 -2.6831  0.8231 -0.4139
 9581TIP3    H250235   4.512   1.283   4.049  1.2744  1.1587  1.6808
 9582TIP3   OH250236   2.267   5.759   2.566 -0.5223  0.7488  0.2308
 9582TIP3    H150237   2.282   5.710   2.647 -1.0786 -0.7402 -0.5190
 9582TIP3    H250238   2.185   5.724   2.532  0.2131  0.5940 -1.4888
 9583TIP3   OH250239   2.960   3.952  15.230 -0.2945  0.4272 -0.0497
 9583TIP3    H150240   3.031   3.959  15.294  0.3956 -2.2348 -0.4214
 9583TIP3    H250241   3.004   3.937  15.147 -1.2721 -0.0541 -0.4928
 9584TIP3   OH250242   2.387   6.016   1.574  0.6527  0.1822 -0.1259
 9584TIP3    H150243   2.389   6.019   1.669  1.4449  0.1694 -0.1313
 9584TIP3    H250244   2.332   6.090   1.548 -2.1669 -1.5747  0.3934
 9585TIP3   OH250245   1.640   0.311  16.235 -0.2021 -0.3386 -0.2462
 9585TIP3    H150246   1.724   0.356  16.246 -0.6489  0.2129  1.2242
 9585TIP3    H250247   1.649   0.262  16.153  2.6195 -2.6143  1.2187
 9586TIP3   OH250248   5.494   0.470   5.438  0.9446  0.1916  0.3696
 9586TIP3    H150249   5.567   0.467   5.500  1.6950 -0.9231 -0.5379
 9586TIP3    H250250   5.417   0.486   5.493  1.8884  1.7786  1.3025
 9587TIP3   OH250251   6.506   6.803   4.758 -0.0307 -0.4754  0.2515
 9587TIP3    H150252   6.520   6.881   4.811 -1.0796  0.3917 -0.6865
 9587TIP3    H250253   6.593   6.777   4.730  0.2117  2.1787 -1.8707
 9588TIP3   OH250254   5.628   3.147  15.182 -0.0427 -0.6534  0.6713
 9588TIP3    H150255   5.686   3.071  15.172  0.1959 -0.2624 -1.5045
 9588TIP3    H250256   5.670   3.201  15.248  1.1557 -1.2055  0.3920
 9589TIP3   OH250257   6.692   4.035   3.994 -0.3110  0.7681  0.3241
 9589TIP3    H150258   6.650   3.957   4.030 -0.4043 -0.0914 -1.5390
 9589TIP3    H250259   6.643   4.108   4.032  0.0391 -0.0083  2.4405
 9590TIP3   OH250260   0.102   0.753   6.104  0.3326 -0.0104  0.2885
 9590TIP3    H150261   0.166   0.790   6.043  1.2346 -1.8318  0.0416
 9590TIP3    H250262   0.127   0.787   6.189  2.7201 -1.8841  0.4535
 9591TIP3   OH250263   3.205   1.280  13.017  0.7451  0.1467 -0.3534
 9591TIP3    H150264   3.197   1.240  13.104 -0.6722  0.4284 -0.3284
 9591TIP3    H250265   3.263   1.221  12.969  0.2649 -0.9034  0.2982
 9592TIP3   OH250266   4.065   4.703  13.515  0.2075 -0.4389 -0.0350
 9592TIP3    H150267   4.130   4.763  13.554  0.5324 -1.0154  0.3201
 9592TIP3    H250268   3.983   4.726  13.558  0.3193 -0.2145  0.0632
 9593TIP3   OH250269   1.914   3.308  15.105 -0.1671  0.3377  0.1112
 9593TIP3    H150270   1.851   3.237  15.096  0.3441 -0.2945  1.3169
 9593TIP3    H250271   1.931   3.335  15.015 -0.0154 -1.3917 -0.4287
 9594TIP3   OH250272   2.148   5.374   0.142  0.1278  0.2429 -0.7165
 9594TIP3    H150273   2.223   5.380   0.201 -1.3266 -0.2972  1.3167
 9594TIP3    H250274   2.128   5.465   0.120 -1.4046  0.8600  2.5894
 9595TIP3   OH250275   4.983   3.500   2.455  0.0367  0.2771  0.0400
 9595TIP3    H150276   4.951   3.477   2.368  0.8632  0.5843 -0.3531
 9595TIP3    H250277   4.944   3.586   2.473 -1.8308 -0.6940  0.8780
 9596TIP3   OH250278   5.944   6.634  16.522  0.1678  0.1476  0.4962
 9596TIP3    H150279   6.038   6.651  16.519  0.1708  0.3100  1.3539
 9596TIP3    H250280   5.913   6.683  16.598 -1.0210  2.0485 -1.1171
 9597TIP3   OH250281   4.526   2.955   1.105 -0.0274 -0.4388 -0.0792
 9597TIP3    H150282   4.521   3.026   1.168 -0.0035 -0.2443 -0.2955
 9597TIP3    H250283   4.453   2.898   1.128  1.8530 -2.1192  2.2094
 9598TIP3   OH250284   6.665   4.298   4.155  0.5858 -0.5421 -0.0111
 9598TIP3    H150285   6.663   4.385   4.196 -0.7509  0.1684 -1.4595
 9598TIP3    H250286   6.633   4.238   4.222  1.2003  0.1127  0.8991
 9599TIP3   OH250287   5.100   3.880  13.680  0.2497  0.1015  0.3795
 9599TIP3    H150288   5.166   3.940  13.646 -0.6757  0.4130 -0.9301
 9599TIP3    H250289   5.026   3.889  13.620 -0.0946 -1.9974  0.4080
 9600TIP3   OH250290   1.279   3.264   3.737 -0.3078  0.6041  0.1966
 9600TIP3    H150291   1.219   3.333   3.764 -1.7912 -0.6035  0.1213
 9600TIP3    H250292   1.341   3.307   3.678 -1.8236  1.6496 -0.6802
 9601TIP3   OH250293   1.580   5.954   4.674 -0.4828  0.0676  0.2095
 9601TIP3    H150294   1.588   5.925   4.583  1.9165 -0.1408  0.4167
 9601TIP3    H250295   1.550   6.045   4.667  2.0559  0.9300 -1.0078
 9602TIP3   OH250296   3.452   5.365  11.853  0.5724 -0.5063  0.1594
 9602TIP3    H150297   3.404   5.303  11.908  1.1023 -0.6838  0.4230
 9602TIP3    H250298   3.450   5.447  11.903 -3.0410  0.7306 -1.6170
 9603TIP3   OH250299   1.722   3.663   5.936  0.1458 -0.4176  0.1360
 9603TIP3    H150300   1.658   3.722   5.976 -0.6172  0.5627 -2.3104
 9603TIP3    H250301   1.736   3.594   6.001 -3.2804 -0.6049  0.8459
 9604TIP3   OH250302   3.547   3.390  14.616 -0.2549 -0.7337 -0.1322
 9604TIP3    H150303   3.511   3.352  14.535  0.5657  0.0961 -0.9149
 9604TIP3    H250304   3.519   3.482  14.613 -0.5319 -0.7861  0.7269
 9605TIP3   OH250305   6.076   4.861  13.018  0.3229 -0.0497 -0.0581
 9605TIP3    H150306   6.160   4.815  13.020 -0.1646 -0.9359  0.4033
 9605TIP3    H250307   6.099   4.952  13.035  1.1071 -0.4067  0.9213
 9606TIP3   OH250308   2.187   0.923  15.886  0.1237  0.0235  0.2983
 9606TIP3    H150309   2.124   0.942  15.816  1.7336  0.1157 -1.1982
 9606TIP3    H250310   2.145   0.956  15.965 -0.6237  2.4579 -1.0026
 9607TIP3   OH250311   1.157   1.113   3.819  0.0396  0.2004 -0.2882
 9607TIP3    H150312   1.163   1.199   3.861  0.2659 -0.1592  0.4415
 9607TIP3    H250313   1.248   1.091   3.799 -0.1530  0.9824 -2.3042
 9608TIP3   OH250314   5.972   2.976   2.599 -0.2514  0.1921 -0.7942
 9608TIP3    H150315   6.043   3.040   2.585 -1.4410  1.7456 -0.0694
 9608TIP3    H250316   6.017   2.893   2.613  1.6253  1.5292  1.9901
 9609TIP3   OH250317   2.292   1.686   0.713  0.7026 -0.2149  0.0655
 9609TIP3    H150318   2.363   1.747   0.696  1.4226 -1.2288 -0.6327
 9609TIP3    H250319   2.253   1.669   0.627 -2.3298  2.5320  0.6773
 9610TIP3   OH250320   3.726   1.220  12.305  0.5149  0.1558 -0.1321
 9610TIP3    H150321   3.751   1.201  12.214 -1.3693 -1.7498 -0.3384
 9610TIP3    H250322   3.718   1.315  12.307  1.5192  0.3218 -1.6961
 9611TIP3   OH250323   6.115   3.145  14.863  0.0925 -0.2962  0.1876
 9611TIP3    H150324   6.137   3.115  14.775  2.0621  1.2316  0.0813
 9611TIP3    H250325   6.092   3.238  14.851  0.5233 -0.0340  1.2904
 9612TIP3   OH250326   5.579   5.290   3.919  0.0708 -0.2917 -0.0138
 9612TIP3    H150327   5.664   5.325   3.946  0.4515 -1.5084  0.4230
 9612TIP3    H250328   5.584   5.288   3.824  0.1524  0.5400 -0.0388
 9613TIP3   OH250329   2.059   2.262   5.061 -0.2192  0.3062 -0.6355
 9613TIP3    H150330   2.086   2.214   4.983  0.9844  1.5274 -1.0297
 9613TIP3    H250331   2.135   2.257   5.120 -0.5895  0.5606 -0.1250
 9614TIP3   OH250332   4.737   2.376  12.819  0.1338 -0.2231  0.1349
 9614TIP3    H150333   4.820   2.330  12.806  0.0460 -0.4397  0.3405
 9614TIP3    H250334   4.721   2.420  12.735  1.3029  1.2070  0.6292
 9615TIP3   OH250335   3.547   2.397  11.041 -0.1783 -0.3427  0.2232
 9615TIP3    H150336   3.578   2.434  10.959 -0.3185 -1.5621 -0.4117
 9615TIP3    H250337   3.467   2.445  11.061 -0.5817 -0.5767 -0.7861
 9616TIP3   OH250338   6.390   1.389  16.993  1.1647 -0.9403  0.1798
 9616TIP3    H150339   6.345   1.311  17.027 -0.7010  0.3966  0.9629
 9616TIP3    H250340   6.332   1.462  17.016  2.8015  0.6887 -0.6075
 9617TIP3   OH250341   2.176   1.840   2.900 -0.6456  0.3401 -0.3463
 9617TIP3    H150342   2.250   1.790   2.867 -0.1405  1.1012 -0.4047
 9617TIP3    H250343   2.188   1.928   2.862  0.4093  1.5162  2.4220
 9618TIP3   OH250344   1.644   1.571  11.532  0.5893 -0.3509 -0.0501
 9618TIP3    H150345   1.656   1.665  11.519  1.5295 -0.6429 -1.3700
 9618TIP3    H250346   1.584   1.545  11.463  0.5156 -0.7818  0.1753
 9619TIP3   OH250347   0.976   1.385  11.482 -0.2744 -0.4530  0.3679
 9619TIP3    H150348   0.975   1.420  11.571 -2.0740 -0.2686  0.3297
 9619TIP3    H250349   0.997   1.461  11.427 -1.8197  0.0844  0.4671
 9620TIP3   OH250350   1.483   2.683  12.975  0.0924  0.5658 -0.2941
 9620TIP3    H150351   1.451   2.593  12.971  2.0663 -0.3508  1.7388
 9620TIP3    H250352   1.550   2.688  12.907 -1.3524  1.1879 -1.7410
 9621TIP3   OH250353   3.933   3.960  10.463 -0.2230 -0.6387  0.3894
 9621TIP3    H150354   4.016   3.924  10.496 -1.1528 -1.5357  1.8457
 9621TIP3    H250355   3.889   3.886  10.422 -0.1640 -0.0820 -0.7080
 9622TIP3   OH250356   5.062   0.130   0.231  0.3941 -0.5298 -0.5338
 9622TIP3    H150357   5.025   0.204   0.280  2.4518 -1.5427  2.8715
 9622TIP3    H250358   5.000   0.058   0.248  1.2340 -0.9473  0.9675
 9623TIP3   OH250359   2.916   2.062   2.576  0.0793  0.4885  0.0502
 9623TIP3    H150360   2.916   2.158   2.583  1.6166  0.4299  1.7596
 9623TIP3    H250361   2.904   2.032   2.666  0.2530 -0.9113 -0.3779
 9624TIP3   OH250362   2.012   0.068  15.795 -0.2198 -0.2586 -0.2854
 9624TIP3    H150363   2.022   0.139  15.731 -0.2956 -0.6188 -0.7052
 9624TIP3    H250364   1.920   0.041  15.786  0.0825 -1.1322 -0.9071
 9625TIP3   OH250365   1.678   5.483   4.484  0.0568 -0.3787  0.8461
 9625TIP3    H150366   1.587   5.466   4.463 -0.3984  0.5701  1.9009
 9625TIP3    H250367   1.689   5.577   4.466  0.7844 -0.4585  0.8467
 9626TIP3   OH250368   0.833   4.273  15.445 -0.3716 -0.0698 -0.5302
 9626TIP3    H150369   0.835   4.271  15.540  3.9715 -0.1108 -0.4155
 9626TIP3    H250370   0.860   4.363  15.423 -0.1834 -0.3969 -1.6788
 9627TIP3   OH250371   1.636   0.424   0.151  0.0223  0.2235  0.0930
 9627TIP3    H150372   1.550   0.456   0.177 -0.2294 -0.4215  0.0605
 9627TIP3    H250373   1.639   0.333   0.182  0.5580  0.1309 -0.2053
 9628TIP3   OH250374   4.430   5.656  11.812 -0.4441 -0.4594  0.1160
 9628TIP3    H150375   4.356   5.641  11.753  0.4875  0.9579 -1.4953
 9628TIP3    H250376   4.410   5.740  11.854 -0.5288 -0.8897  0.9637
 9629TIP3   OH250377   0.189   1.720  16.064  0.0066 -0.0560  0.2555
 9629TIP3    H150378   0.106   1.741  16.022  0.1410 -1.9822 -1.1178
 9629TIP3    H250379   0.166   1.704  16.156 -0.7793  1.3580  0.3329
 9630TIP3   OH250380   5.564   6.186  12.156  0.0767 -0.2074 -0.5434
 9630TIP3    H150381   5.483   6.215  12.198 -0.3742 -1.1026 -0.7829
 9630TIP3    H250382   5.613   6.143  12.226  0.6020  0.7993 -0.2682
 9631TIP3   OH250383   2.449   1.489  16.031 -0.0439  0.3877 -0.3173
 9631TIP3    H150384   2.379   1.508  16.094 -2.1182 -0.9466 -2.0598
 9631TIP3    H250385   2.473   1.398  16.048  0.2027  0.3809 -0.7025
 9632TIP3   OH250386   2.849   6.559   3.299  0.1913 -0.1957 -0.1445
 9632TIP3    H150387   2.881   6.591   3.214  2.8220 -1.2835  0.3748
 9632TIP3    H250388   2.758   6.590   3.302  1.2557  3.6834 -1.4318
 9633TIP3   OH250389   1.738   5.771   1.985  0.8381  0.0581 -0.3571
 9633TIP3    H150390   1.821   5.813   1.963  0.6340  0.5975 -0.1217
 9633TIP3    H250391   1.694   5.758   1.900  0.5277  1.1257 -0.3714
 9634TIP3   OH250392   6.590   5.276   3.468  0.4569 -0.2873 -0.0299
 9634TIP3    H150393   6.632   5.304   3.387 -1.3208 -2.6975 -1.9344
 9634TIP3    H250394   6.627   5.189   3.485 -0.2618 -0.4213  0.9305
 9635TIP3   OH250395   3.609   0.702  15.594 -0.3890  0.0610 -0.0648
 9635TIP3    H150396   3.613   0.666  15.505  0.3888 -1.3164  0.4988
 9635TIP3    H250397   3.572   0.789  15.583 -0.5889 -0.2044 -1.7079
 9636TIP3   OH250398   6.314   2.408   5.964  0.0209 -0.0219  0.0179
 9636TIP3    H150399   6.312   2.316   5.991 -0.5991 -0.1195 -0.3140
 9636TIP3    H250400   6.365   2.452   6.031 -1.5222 -0.2346  1.4175
 9637TIP3   OH250401   0.360   4.655  11.362  0.0792 -0.3335 -0.1070
 9637TIP3    H150402   0.354   4.649  11.267  0.1379 -0.0837 -0.1283
 9637TIP3    H250403   0.445   4.695  11.378 -0.9105  1.9641 -0.0645
 9638TIP3   OH250404   3.360   5.172  13.304 -0.2963  0.5984  0.0631
 9638TIP3    H150405   3.332   5.222  13.227  0.2025 -0.2243 -0.6669
 9638TIP3    H250406   3.439   5.127  13.277  0.1218  0.6072  1.1946
 9639TIP3   OH250407   5.979   2.082   0.627 -0.3621  0.7728  0.1464
 9639TIP3    H150408   6.017   2.088   0.539 -0.4520  0.9235  0.1184
 9639TIP3    H250409   6.049   2.043   0.680 -0.5838 -0.0832 -0.1654
 9640TIP3   OH250410   1.093   4.735   5.034  0.0683 -0.1514 -0.1035
 9640TIP3    H150411   1.002   4.706   5.027  0.7807 -2.3485 -1.1188
 9640TIP3    H250412   1.139   4.688   4.965  1.8243  1.7353 -0.3378
 9641TIP3   OH250413   4.031   5.382   5.898  0.2717  0.3844  0.4612
 9641TIP3    H150414   4.093   5.359   5.967  0.2942  0.4506  0.4625
 9641TIP3    H250415   4.084   5.427   5.832  0.1138  0.9752  0.7337
 9642TIP3   OH250416   0.695   1.993   2.961 -0.0446 -0.4135  0.2386
 9642TIP3    H150417   0.696   2.070   2.905  0.0122 -0.7638 -0.2498
 9642TIP3    H250418   0.748   2.017   3.037  1.0462 -0.4097 -0.5032
 9643TIP3   OH250419   4.984   1.897   4.153 -0.2232 -0.0053  0.6958
 9643TIP3    H150420   4.895   1.924   4.175 -0.4562  1.1902 -1.4684
 9643TIP3    H250421   4.974   1.810   4.113 -0.7238  0.9091 -1.2954
 9644TIP3   OH250422   5.314   5.125   2.120  0.4177  0.1704  0.3105
 9644TIP3    H150423   5.376   5.120   2.047  2.9745  0.9237  2.3229
 9644TIP3    H250424   5.247   5.187   2.090  0.5098 -0.7287 -1.9632
 9645TIP3   OH250425   0.782   0.071  14.434 -0.3466 -0.0579 -0.4007
 9645TIP3    H150426   0.783  -0.010  14.383  1.5048 -1.4004  1.5922
 9645TIP3    H250427   0.857   0.122  14.401 -0.4871  0.0839 -0.5042
 9646TIP3   OH250428   3.631   0.893   1.563  0.7951  0.6747  0.0872
 9646TIP3    H150429   3.581   0.884   1.482 -0.8623  0.2244  1.1116
 9646TIP3    H250430   3.615   0.811   1.610  1.2471  1.1652  1.1242
 9647TIP3   OH250431   4.116   0.870   5.679 -0.3059  0.1519 -0.2919
 9647TIP3    H150432   4.206   0.901   5.690 -0.1112 -0.7396  0.8042
 9647TIP3    H250433   4.082   0.921   5.606  1.3801 -0.1346 -1.3259
 9648TIP3   OH250434   5.142   1.264   4.725  0.0022  0.5941 -0.2472
 9648TIP3    H150435   5.072   1.204   4.700  0.0715  0.3567  0.1341
 9648TIP3    H250436   5.223   1.220   4.698  0.1805 -0.3106  1.6541
 9649TIP3   OH250437   2.347   1.998   1.681 -0.4329  0.3579  0.3384
 9649TIP3    H150438   2.278   1.969   1.740  0.1494 -1.4752  0.1686
 9649TIP3    H250439   2.418   2.027   1.738 -0.4074 -0.0847  0.5325
 9650TIP3   OH250440   0.804   5.845  14.976  0.8268 -0.0690  0.5418
 9650TIP3    H150441   0.732   5.894  15.017  0.2220  0.2373 -0.8281
 9650TIP3    H250442   0.883   5.886  15.010  0.3734  2.8404 -1.5547
 9651TIP3   OH250443   0.180   4.653   5.688  0.5514 -0.2935  0.0889
 9651TIP3    H150444   0.096   4.696   5.701 -0.0208 -0.8338 -1.5419
 9651TIP3    H250445   0.166   4.563   5.721  0.3248 -0.5302 -0.6459
 9652TIP3   OH250446   5.415   5.299  15.590  0.3492  0.3770  0.3162
 9652TIP3    H150447   5.380   5.349  15.516 -0.5486  0.1896  0.6077
 9652TIP3    H250448   5.443   5.366  15.653 -0.2874  0.5232  0.4486
 9653TIP3   OH250449   1.378   1.050   1.893 -0.4029  0.2241 -0.1912
 9653TIP3    H150450   1.352   1.062   1.802 -1.5766  0.8200  0.2018
 9653TIP3    H250451   1.300   1.012   1.935 -0.4028  1.3272  0.8643
 9654TIP3   OH250452   2.047   0.708  12.881 -0.3436 -0.1876  0.3771
 9654TIP3    H150453   2.143   0.712  12.879 -0.3545  0.1821  0.4742
 9654TIP3    H250454   2.027   0.644  12.949 -0.1566 -0.8779 -0.2078
 9655TIP3   OH250455   2.488   5.691   3.401 -0.0440 -0.3603  0.3071
 9655TIP3    H150456   2.573   5.648   3.397  0.5609  0.8921 -1.8951
 9655TIP3    H250457   2.504   5.771   3.450  0.2667  0.2775 -0.8131
 9656TIP3   OH250458   3.460   3.826   0.816  0.2708 -0.0253  0.0377
 9656TIP3    H150459   3.512   3.839   0.737  1.1031 -1.0588  0.3911
 9656TIP3    H250460   3.380   3.877   0.801  0.8926  0.6774 -0.9905
 9657TIP3   OH250461   0.497   6.064  13.880 -0.1655  0.0179  0.1096
 9657TIP3    H150462   0.511   6.085  13.973  0.2953 -2.4187  0.6639
 9657TIP3    H250463   0.582   6.080  13.839 -0.3316  0.9661  0.1153
 9658TIP3   OH250464   3.504   2.435  12.421 -0.7100  0.2265 -0.2306
 9658TIP3    H150465   3.586   2.431  12.471 -0.9034  0.0820  0.0780
 9658TIP3    H250466   3.503   2.354  12.371 -0.1049  0.7567 -1.1268
 9659TIP3   OH250467   3.984   5.900  13.395  0.6883 -0.2467  0.0951
 9659TIP3    H150468   4.027   5.895  13.480  0.9441 -0.7278 -0.0584
 9659TIP3    H250469   3.982   5.994  13.374  2.1502 -0.2335 -0.1335
 9660TIP3   OH250470   6.474   6.635  16.618  0.0849  0.0206  0.0424
 9660TIP3    H150471   6.484   6.730  16.612 -0.9439  0.3437  2.2846
 9660TIP3    H250472   6.551   6.606  16.666  0.3788 -0.2978 -0.6083
 9661TIP3   OH250473   2.319   4.498  14.780  0.2280  0.0026 -0.0390
 9661TIP3    H150474   2.304   4.573  14.838  1.8205  1.5077 -1.4399
 9661TIP3    H250475   2.387   4.447  14.825  0.8774  0.7277 -0.1639
 9662TIP3   OH250476   3.081   4.792  10.968  0.3442  0.0659 -0.1170
 9662TIP3    H150477   3.018   4.781  10.897 -0.2824  1.1127  0.2562
 9662TIP3    H250478   3.026   4.805  11.046  0.9908  2.5397 -0.0238
 9663TIP3   OH250479   5.195   6.680  13.611  0.2902 -0.5271  0.0685
 9663TIP3    H150480   5.170   6.772  13.600  1.5438 -0.1904 -0.1759
 9663TIP3    H250481   5.221   6.674  13.703  1.9600 -0.1578 -0.3519
 9664TIP3   OH250482   0.498   4.100   3.032  0.0148  0.6426 -0.2641
 9664TIP3    H150483   0.513   4.036   2.963  0.2703  1.0461 -0.5892
 9664TIP3    H250484   0.430   4.158   2.997 -1.2790 -0.2856  0.6013
 9665TIP3   OH250485   4.672   6.456   3.970  0.3985  0.2622  0.3896
 9665TIP3    H150486   4.694   6.515   3.897  1.4783 -1.7369 -1.0141
 9665TIP3    H250487   4.756   6.433   4.008  0.1597 -1.4575 -0.0354
 9666TIP3   OH250488   3.790   2.800   5.906  0.8989  0.2100 -0.0387
 9666TIP3    H150489   3.881   2.783   5.881  1.0276  1.7923 -0.7431
 9666TIP3    H250490   3.753   2.847   5.832 -0.3851 -0.0094  0.4361
 9667TIP3   OH250491   0.510   2.990  17.008 -0.1236  0.1379 -0.1505
 9667TIP3    H150492   0.519   3.038  17.090 -1.0922  1.7446 -0.9497
 9667TIP3    H250493   0.521   3.056  16.940 -0.0921 -1.0336 -1.3199
 9668TIP3   OH250494   6.411   1.953  10.923 -0.7054  0.5254 -0.1179
 9668TIP3    H150495   6.420   1.920  11.012 -1.8641  1.0221  0.2095
 9668TIP3    H250496   6.426   1.877  10.867  1.4321  0.5022  0.4296
 9669TIP3   OH250497   1.166   6.027  12.908  0.5400 -0.7898 -0.5619
 9669TIP3    H150498   1.129   6.015  12.821 -1.2721  1.8663 -0.2789
 9669TIP3    H250499   1.234   6.094  12.897  0.3941 -0.5345  0.0309
 9670TIP3   OH250500   1.710   3.546  12.930 -0.1648 -0.4452  0.1013
 9670TIP3    H150501   1.706   3.615  12.863 -0.9726  0.0126  0.5997
 9670TIP3    H250502   1.645   3.573  12.996  0.4340 -1.0132  0.9445
 9671TIP3   OH250503   5.955   4.078   5.319  0.2085  0.1296  0.0290
 9671TIP3    H150504   6.030   4.061   5.262  1.5632 -0.4391  1.8858
 9671TIP3    H250505   5.929   3.992   5.351  0.4185  0.5393  1.3766
 9672TIP3   OH250506   2.395   4.511   6.597 -0.1571 -0.4392 -0.0080
 9672TIP3    H150507   2.356   4.424   6.604  0.5698 -0.7421  0.3617
 9672TIP3    H250508   2.383   4.534   6.505  0.8892 -1.5394 -0.4529
 9673TIP3   OH250509   3.602   1.500  11.648  0.1299 -0.3529 -0.0164
 9673TIP3    H150510   3.633   1.464  11.565 -1.4998  0.7822 -1.1728
 9673TIP3    H250511   3.507   1.490  11.644 -0.2048  2.0275  0.5687
 9674TIP3   OH250512   5.911   3.403  15.073 -0.0495  0.2629  0.0117
 9674TIP3    H150513   5.844   3.348  15.033  1.8063 -1.5052 -0.8552
 9674TIP3    H250514   5.929   3.470  15.007  0.6722 -0.6846 -0.7910
 9675TIP3   OH250515   5.099   0.089   4.399  0.1491  0.4211 -0.0445
 9675TIP3    H150516   5.063   0.006   4.430  1.9815 -0.5531 -0.4074
 9675TIP3    H250517   5.106   0.077   4.304 -0.4994  1.3956 -0.2331
 9676TIP3   OH250518   1.614   6.037  11.538  0.0337 -0.3406 -0.2679
 9676TIP3    H150519   1.523   6.010  11.547  0.3202 -0.7914  1.9217
 9676TIP3    H250520   1.613   6.104  11.469 -2.2227  0.8149  0.7801
 9677TIP3   OH250521   2.690   2.223  14.411 -0.0338 -0.3626  0.2125
 9677TIP3    H150522   2.776   2.202  14.375 -0.3418  0.4614 -1.0832
 9677TIP3    H250523   2.675   2.157  14.479  0.7918 -1.6768 -0.8453
 9678TIP3   OH250524   4.649   2.325  11.436  0.1346  0.1543 -0.5078
 9678TIP3    H150525   4.618   2.412  11.460  2.1709  1.1143 -1.1166
 9678TIP3    H250526   4.658   2.328  11.341 -1.0353 -1.2129 -0.7005
 9679TIP3   OH250527   1.164   0.568  15.173  0.6983 -0.1291 -0.1068
 9679TIP3    H150528   1.235   0.624  15.140  0.5169  0.4280  0.4429
 9679TIP3    H250529   1.090   0.588  15.116  1.2911 -1.6187 -1.4904
 9680TIP3   OH250530   4.336   0.402  13.960  0.2488  0.6488 -0.2136
 9680TIP3    H150531   4.379   0.488  13.960  0.1086  0.7418 -1.5162
 9680TIP3    H250532   4.343   0.372  14.051  1.9077  1.2450 -0.0954
 9681TIP3   OH250533   2.984   5.954   3.437 -0.4381  0.5781  0.0054
 9681TIP3    H150534   2.957   5.939   3.528  0.8074  0.5839  0.3869
 9681TIP3    H250535   2.991   5.867   3.399 -3.4797  0.6097 -0.8949
 9682TIP3   OH250536   5.642   0.849   2.339  0.0054  0.1320 -1.0035
 9682TIP3    H150537   5.547   0.854   2.350 -0.1416 -0.3933 -1.9027
 9682TIP3    H250538   5.675   0.829   2.426 -0.5681  1.8450 -0.3649
 9683TIP3   OH250539   2.347   2.253  15.691  0.4448 -0.0794  0.2332
 9683TIP3    H150540   2.428   2.303  15.705 -0.2062  0.9954  0.2254
 9683TIP3    H250541   2.294   2.269  15.768  0.1730 -0.6735  0.1771
 9684TIP3   OH250542   0.553   3.242  11.863  0.1827 -0.3826  0.4502
 9684TIP3    H150543   0.504   3.161  11.879 -0.4704 -0.0585  0.1117
 9684TIP3    H250544   0.488   3.303  11.830  0.7932  0.0988  0.1299
 9685TIP3   OH250545   0.247   4.731  11.601  0.3109 -0.5457  0.3252
 9685TIP3    H150546   0.251   4.727  11.506 -1.9058 -0.3727  0.1751
 9685TIP3    H250547   0.258   4.824  11.622  0.2764 -0.5151  0.2051
 9686TIP3   OH250548   4.691   5.522  11.460  0.3571 -0.2512  0.0194
 9686TIP3    H150549   4.664   5.603  11.503  2.3352  1.5617 -1.8416
 9686TIP3    H250550   4.697   5.546  11.367  2.4277 -2.0793 -0.3948
 9687TIP3   OH250551   1.052   3.866   4.564 -0.1819  0.1555 -0.0708
 9687TIP3    H150552   1.112   3.829   4.628  1.1919  0.4874 -1.1192
 9687TIP3    H250553   1.015   3.790   4.519  0.9534 -0.0240 -0.7312
 9688TIP3   OH250554   5.119   5.308   3.289  0.7607 -0.3121 -0.1999
 9688TIP3    H150555   5.127   5.217   3.319 -1.6033 -0.2837  0.7153
 9688TIP3    H250556   5.058   5.303   3.215  1.7997  0.3835 -1.1356
 9689TIP3   OH250557   5.465   6.704   2.249 -0.3125  0.1324 -0.2357
 9689TIP3    H150558   5.485   6.695   2.156 -1.2453 -1.0531 -0.3434
 9689TIP3    H250559   5.382   6.751   2.251  1.1382  2.9595  0.1464
 9690TIP3   OH250560   2.654   2.443  14.909 -0.0081 -0.4451 -0.0554
 9690TIP3    H150561   2.577   2.488  14.943  0.6694  0.4591  0.3381
 9690TIP3    H250562   2.619   2.378  14.848 -1.0313  0.9603 -1.0534
 9691TIP3   OH250563   3.484   6.741  17.012  0.2499  0.0305 -0.9233
 9691TIP3    H150564   3.466   6.835  17.014  0.6133  0.1640  2.3747
 9691TIP3    H250565   3.537   6.728  16.933 -0.4417  2.4322 -1.8691
 9692TIP3   OH250566   4.473   3.088  11.139 -0.2371 -0.6183 -0.4392
 9692TIP3    H150567   4.453   2.999  11.167  1.0343 -0.8093 -0.0591
 9692TIP3    H250568   4.443   3.091  11.048  0.3550 -1.6783 -0.6898
 9693TIP3   OH250569   5.679   6.164   0.540 -0.0905 -0.1190  0.0372
 9693TIP3    H150570   5.629   6.085   0.555 -1.5376  0.2343 -2.3637
 9693TIP3    H250571   5.635   6.231   0.591 -0.9539 -0.2004 -0.5836
 9694TIP3   OH250572   0.127   0.813  17.005  0.1615  0.3247  0.2708
 9694TIP3    H150573   0.179   0.737  16.978  0.0356 -0.5207  2.2251
 9694TIP3    H250574   0.180   0.855  17.074 -1.3570 -0.1713  1.8233
 9695TIP3   OH250575   4.083   5.797   0.663 -0.7569  0.6394  0.5557
 9695TIP3    H150576   4.142   5.737   0.708 -1.2291 -0.3149 -0.0640
 9695TIP3    H250577   4.113   5.795   0.572 -1.0192  1.0508  0.4585
 9696TIP3   OH250578   6.229   4.246   6.428 -0.4926  0.2300 -0.2814
 9696TIP3    H150579   6.266   4.310   6.368 -0.9814 -0.4612 -1.3462
 9696TIP3    H250580   6.273   4.164   6.406  0.9640  0.3651  1.8298
 9697TIP3   OH250581   3.103   4.406   2.435  0.1726  0.0028 -0.5646
 9697TIP3    H150582   3.096   4.493   2.396 -1.2073  0.4209  0.5503
 9697TIP3    H250583   3.193   4.379   2.417  1.2607  2.4839  0.7413
 9698TIP3   OH250584   4.923   3.291   5.890  0.2544  0.2312 -0.0742
 9698TIP3    H150585   4.882   3.312   5.974  1.2882 -0.2764  0.5737
 9698TIP3    H250586   5.000   3.240   5.913  0.7726  0.4176 -1.3205
 9699TIP3   OH250587   2.442   3.332   1.800 -0.2486 -0.0445 -0.6471
 9699TIP3    H150588   2.504   3.403   1.782  1.6279 -1.1686  0.9717
 9699TIP3    H250589   2.496   3.262   1.837 -2.7308 -0.3145  2.9118
 9700TIP3   OH250590   6.178   0.998  15.302  0.2875 -0.3499 -0.0878
 9700TIP3    H150591   6.230   0.929  15.342  3.1937  0.6825 -1.8108
 9700TIP3    H250592   6.203   1.078  15.348 -1.7465 -0.1278  0.7374
 9701TIP3   OH250593   3.970   3.657   1.848 -0.1415 -0.5016 -0.0305
 9701TIP3    H150594   4.051   3.681   1.892 -0.2030 -1.1732  0.4728
 9701TIP3    H250595   3.901   3.702   1.896 -0.1223 -0.4461 -0.0552
 9702TIP3   OH250596   5.702   6.145  13.975  0.0271 -0.0827 -0.2680
 9702TIP3    H150597   5.644   6.086  14.023  0.7453 -0.5763  0.0099
 9702TIP3    H250598   5.653   6.227  13.969 -1.0643 -0.7520 -0.8229
 9703TIP3   OH250599   1.630   5.147   5.061 -0.3439 -0.3495  0.0288
 9703TIP3    H150600   1.668   5.188   5.139  0.6381  0.0959 -0.6493
 9703TIP3    H250601   1.537   5.138   5.080 -0.1420 -0.0920  1.1787
 9704TIP3   OH250602   6.008   4.395  13.748  0.3420 -0.0747 -0.2263
 9704TIP3    H150603   5.940   4.430  13.690 -1.7414 -0.9432  1.5646
 9704TIP3    H250604   6.086   4.447  13.728 -1.6355  3.1153 -0.2084
 9705TIP3   OH250605   1.185   6.344  14.612  0.0792 -0.2261 -0.0399
 9705TIP3    H150606   1.233   6.426  14.611 -0.2019 -0.0171  1.2430
 9705TIP3    H250607   1.251   6.277  14.628  0.1134 -0.0734  0.4745
 9706TIP3   OH250608   0.428   3.827   3.066  0.6991 -0.5082  0.5827
 9706TIP3    H150609   0.509   3.830   3.015  0.3358  0.0541  0.0257
 9706TIP3    H250610   0.365   3.784   3.009 -0.1144  1.4403 -0.0655
 9707TIP3   OH250611   3.570   4.512  14.798 -0.4155  0.2708  0.7179
 9707TIP3    H150612   3.655   4.528  14.759 -0.5307 -0.7844  0.0146
 9707TIP3    H250613   3.588   4.458  14.875 -0.5762 -1.2624 -0.2984
 9708TIP3   OH250614   3.886   0.627   0.236 -0.1870 -0.3210  0.2019
 9708TIP3    H150615   3.814   0.569   0.209 -1.0586 -0.3841  2.4386
 9708TIP3    H250616   3.965   0.585   0.202 -1.1147 -0.5453 -1.8544
 9709TIP3   OH250617   4.030   3.456  10.971 -0.4520 -0.5802  0.4946
 9709TIP3    H150618   4.015   3.467  10.877 -0.3562 -1.1175  0.4087
 9709TIP3    H250619   4.115   3.413  10.976 -1.1359 -1.9739  0.7412
 9710TIP3   OH250620   5.827   0.422  14.749 -0.4835  0.7376 -0.7227
 9710TIP3    H150621   5.736   0.390  14.749 -0.4114  0.4968  0.3797
 9710TIP3    H250622   5.878   0.347  14.719 -0.7233  1.1854 -2.3638
 9711TIP3   OH250623   4.671   2.121   0.013 -0.1248  0.2849 -0.2106
 9711TIP3    H150624   4.605   2.128   0.081 -0.2210 -0.6895 -0.1980
 9711TIP3    H250625   4.696   2.029   0.012 -1.2259 -0.0770 -2.5087
 9712TIP3   OH250626   0.011   0.893  16.074 -0.1077 -0.1124  0.2254
 9712TIP3    H150627  -0.074   0.936  16.065 -0.8052 -1.8006 -4.1886
 9712TIP3    H250628  -0.011   0.805  16.107 -0.7631 -1.5466 -3.4461
 9713TIP3   OH250629   1.562   2.541   1.750 -0.1038  0.0201  0.3320
 9713TIP3    H150630   1.655   2.559   1.737 -0.1466  0.2111  0.2988
 9713TIP3    H250631   1.520   2.626   1.748 -0.2348 -0.0314  0.7093
 9714TIP3   OH250632   6.181   4.348   1.950  0.0969  0.1979 -0.6484
 9714TIP3    H150633   6.093   4.311   1.960 -0.1720  0.7689 -0.8758
 9714TIP3    H250634   6.211   4.317   1.865  0.6992 -1.1775  0.0288
 9715TIP3   OH250635   2.094   6.238  12.285 -0.0777 -0.0452 -0.0372
 9715TIP3    H150636   2.155   6.273  12.221  0.1584 -1.0923 -0.4026
 9715TIP3    H250637   2.112   6.288  12.365 -0.8953  1.7953 -0.9584
 9716TIP3   OH250638   6.402   2.116   1.888  0.0338 -0.8150  0.1287
 9716TIP3    H150639   6.403   2.190   1.950  0.9977  0.2837 -1.1429
 9716TIP3    H250640   6.333   2.139   1.826 -0.3300 -1.4859  0.2806
 9717TIP3   OH250641   4.993   3.057  14.435  0.7628 -0.6727 -0.0320
 9717TIP3    H150642   5.071   3.005  14.418  0.8401 -0.1838 -1.2351
 9717TIP3    H250643   4.986   3.117  14.360  0.9216  1.3734  1.4991
 9718TIP3   OH250644   0.341   3.143  15.363  0.6377  0.4890 -0.9073
 9718TIP3    H150645   0.306   3.232  15.358  3.1269  1.6730  0.7508
 9718TIP3    H250646   0.268   3.087  15.338 -0.9723  2.9888 -2.1754
 9719TIP3   OH250647   3.158   5.261  13.116  0.2258  0.4362  0.3848
 9719TIP3    H150648   3.223   5.218  13.061  1.3328 -0.5357  2.3438
 9719TIP3    H250649   3.175   5.355  13.105  0.9629  0.2336 -0.2713
 9720TIP3   OH250650   4.354   2.713   5.644  0.2856 -0.3663  0.4370
 9720TIP3    H150651   4.369   2.760   5.726 -0.9092  0.0826  0.4109
 9720TIP3    H250652   4.398   2.768   5.578 -0.3202  0.2570  0.5339
 9721TIP3   OH250653   3.010   2.148  14.172 -0.8012  0.0527  0.1629
 9721TIP3    H150654   2.942   2.081  14.181 -2.3089  1.5369  0.5200
 9721TIP3    H250655   3.065   2.137  14.249 -0.9801 -0.8330  0.1710
 9722TIP3   OH250656   3.367   0.889   4.299 -0.2930 -0.5389 -0.0443
 9722TIP3    H150657   3.426   0.920   4.231 -0.3508 -1.6260 -0.6171
 9722TIP3    H250658   3.310   0.826   4.255 -0.4824 -1.0984  0.9548
 9723TIP3   OH250659   0.104   6.469  12.281 -0.0372 -0.2267  0.1978
 9723TIP3    H150660   0.092   6.564  12.277  0.3518 -0.0898  1.7433
 9723TIP3    H250661   0.096   6.448  12.374  0.4418 -1.6387 -0.0599
 9724TIP3   OH250662   2.345   3.477  16.168  0.5338  0.2569 -0.3732
 9724TIP3    H150663   2.271   3.496  16.111 -0.3660 -0.9110  0.3551
 9724TIP3    H250664   2.405   3.428  16.112 -0.1573 -0.5251 -0.4533
 9725TIP3   OH250665   5.431   1.600  14.816  0.8090 -0.4569  0.3444
 9725TIP3    H150666   5.358   1.571  14.871  0.0613 -0.7825 -0.7963
 9725TIP3    H250667   5.504   1.544  14.842  0.8126  0.1502  1.7975
 9726TIP3   OH250668   5.091   0.842   6.328 -0.1330 -0.4940 -0.1149
 9726TIP3    H150669   5.083   0.815   6.237 -1.6258  0.4711 -0.2907
 9726TIP3    H250670   5.003   0.869   6.354  0.4241  0.0261  1.3716
 9727TIP3   OH250671   3.526   1.724  15.832 -0.7413 -0.3464  0.5232
 9727TIP3    H150672   3.564   1.812  15.835 -1.7620  0.0936  0.8185
 9727TIP3    H250673   3.534   1.698  15.740  1.2444 -0.7314  0.7438
 9728TIP3   OH250674   5.583   1.930  14.314 -0.2876  0.3729 -0.1547
 9728TIP3    H150675   5.637   1.877  14.372  1.1601  0.2796 -1.5172
 9728TIP3    H250676   5.493   1.900  14.331  0.4777 -2.9813 -1.2044
 9729TIP3   OH250677   5.062   0.487  10.409 -0.2015 -0.4689 -0.1892
 9729TIP3    H150678   5.004   0.461  10.480 -0.9287  1.5843  0.0454
 9729TIP3    H250679   5.132   0.422  10.409  0.4689  0.0808  3.1798
 9730TIP3   OH250680   2.546   1.552  12.917  0.1827  0.9193 -0.0766
 9730TIP3    H150681   2.541   1.601  12.835  0.2764  0.6756 -0.2268
 9730TIP3    H250682   2.627   1.503  12.911 -0.6116 -0.3870 -0.5562
 9731TIP3   OH250683   2.182   1.243  12.320  0.2312  0.0392 -0.3118
 9731TIP3    H150684   2.230   1.183  12.263 -0.8547  0.2408 -1.4966
 9731TIP3    H250685   2.248   1.306  12.350  0.9768 -0.5313 -0.7359
 9732TIP3   OH250686   6.190   4.056  15.938  0.1571 -0.1741 -0.6700
 9732TIP3    H150687   6.171   4.080  15.847 -0.5464  0.3298 -0.4040
 9732TIP3    H250688   6.164   3.964  15.944  0.9809 -0.4555 -1.1820
 9733TIP3   OH250689   3.782   4.028  11.170  0.2196 -0.1274  0.2417
 9733TIP3    H150690   3.767   4.090  11.241  0.8535  0.8805 -0.4711
 9733TIP3    H250691   3.697   4.021  11.126  0.3674  1.0301 -0.2682
 9734TIP3   OH250692   6.766   2.027  14.200 -0.1579  0.7431  0.0093
 9734TIP3    H150693   6.740   2.053  14.112  0.7154  0.4438 -0.3370
 9734TIP3    H250694   6.691   2.052  14.255 -2.3461 -2.3003 -1.2797
 9735TIP3   OH250695   2.149   0.592   6.388 -0.2725 -0.6496 -0.0568
 9735TIP3    H150696   2.102   0.519   6.429  0.5590 -0.8070  0.6519
 9735TIP3    H250697   2.148   0.571   6.295  0.0776 -1.6543  0.1490
 9736TIP3   OH250698   1.916   6.203   4.633 -0.1339 -0.7205 -0.2049
 9736TIP3    H150699   1.894   6.252   4.554  1.8502 -0.1697 -0.4722
 9736TIP3    H250700   1.937   6.271   4.698 -0.2101 -1.1993  0.3311
 9737TIP3   OH250701   3.334   0.290   1.090 -0.4850 -0.2181  0.1363
 9737TIP3    H150702   3.293   0.330   1.168 -1.7281 -0.3968 -0.3938
 9737TIP3    H250703   3.284   0.326   1.017  0.1679 -0.6615 -0.5344
 9738TIP3   OH250704   1.945   1.476  11.375  0.1726  0.1682  0.0344
 9738TIP3    H150705   1.908   1.422  11.445  1.5915 -0.5211  0.2815
 9738TIP3    H250706   1.942   1.419  11.298  1.4823 -0.2135  0.2482
 9739TIP3   OH250707   5.697   5.018   2.167  0.0873 -0.3568 -0.8858
 9739TIP3    H150708   5.699   4.931   2.205  2.7009 -0.4232 -0.9992
 9739TIP3    H250709   5.762   5.068   2.217  1.5633  0.3357 -3.3136
 9740TIP3   OH250710   0.105   3.855  14.969 -0.2298  0.3029  0.5541
 9740TIP3    H150711   0.106   3.760  14.952  1.0577  0.5827 -1.3301
 9740TIP3    H250712   0.063   3.892  14.892 -0.0155  1.3214  0.9192
 9741TIP3   OH250713   0.702   3.873  16.960  0.2196  1.0170 -0.1970
 9741TIP3    H150714   0.755   3.804  16.920  0.3832  0.3978  1.0248
 9741TIP3    H250715   0.612   3.846  16.944  0.2634 -0.1760  1.3193
 9742TIP3   OH250716   2.626   3.534   1.805  0.4978  0.4163  0.5259
 9742TIP3    H150717   2.592   3.568   1.888  1.8599  0.2350  1.1835
 9742TIP3    H250718   2.715   3.504   1.826  0.4008 -0.8351 -0.6988
 9743TIP3   OH250719   6.645   2.505  13.503  0.8019  0.2158 -0.8859
 9743TIP3    H150720   6.718   2.534  13.558  0.0602  1.9123 -0.7039
 9743TIP3    H250721   6.677   2.513  13.413  1.6258 -1.4324 -0.7709
 9744TIP3   OH250722   6.623   6.315  14.098 -0.2209  0.4949  0.4002
 9744TIP3    H150723   6.585   6.401  14.114  0.4376  0.7327  0.7215
 9744TIP3    H250724   6.717   6.328  14.108 -0.2307 -0.8508  3.5554
 9745TIP3   OH250725   3.454   1.532  15.240 -0.2121  0.1181  0.4663
 9745TIP3    H150726   3.449   1.448  15.194  2.5423 -0.1682  0.4956
 9745TIP3    H250727   3.458   1.597  15.170 -0.0000  0.0059  0.3711
 9746TIP3   OH250728   4.918   3.003   2.217  0.4132 -0.6088  0.0610
 9746TIP3    H150729   4.872   3.053   2.285 -0.6877  2.2262 -2.5239
 9746TIP3    H250730   4.858   2.933   2.194 -1.7205  1.5278 -1.4587
 9747TIP3   OH250731   3.074   1.119   0.409 -1.1337 -0.7001 -0.3603
 9747TIP3    H150732   3.048   1.211   0.422  0.3426 -0.0048 -1.9001
 9747TIP3    H250733   3.170   1.121   0.409 -1.0100 -2.6029  1.6015
 9748TIP3   OH250734   1.496   4.601  11.652  0.7100 -0.3341 -0.0969
 9748TIP3    H150735   1.443   4.523  11.668  0.5660 -0.2500 -0.1512
 9748TIP3    H250736   1.434   4.674  11.661  1.2874 -0.0523  2.1484
 9749TIP3   OH250737   3.322   6.267   5.400  0.1092 -0.0292 -0.1277
 9749TIP3    H150738   3.352   6.291   5.312 -0.9295 -0.0235 -0.4953
 9749TIP3    H250739   3.235   6.306   5.407  2.2397  5.2259  3.1249
 9750TIP3   OH250740   3.064   6.255   2.849  0.3824 -0.0301 -0.3595
 9750TIP3    H150741   2.976   6.218   2.857  0.2600 -0.5494 -2.9494
 9750TIP3    H250742   3.089   6.278   2.938 -2.0970 -0.4925  0.5434
 9751TIP3   OH250743   6.433   2.212  15.969  0.1515 -0.1724 -0.6828
 9751TIP3    H150744   6.504   2.265  15.933 -0.6765  0.3866 -1.5572
 9751TIP3    H250745   6.456   2.200  16.062  1.4349 -0.1245 -0.9797
 9752TIP3   OH250746   6.212   0.765   2.307  0.0144 -0.2118  0.1494
 9752TIP3    H150747   6.248   0.726   2.386  0.0018  0.2736  0.3980
 9752TIP3    H250748   6.284   0.765   2.244 -0.5280 -2.5371 -0.5699
 9753TIP3   OH250749   1.920   4.773   0.694  0.6433  0.7769  0.2205
 9753TIP3    H150750   1.864   4.727   0.757  0.9098  0.9184  0.5662
 9753TIP3    H250751   1.931   4.711   0.622 -1.4446  1.4155 -0.7070
 9754TIP3   OH250752   0.346   5.728  15.078 -0.5584 -0.2621 -0.1262
 9754TIP3    H150753   0.351   5.685  15.164 -0.0297 -0.7637 -0.4010
 9754TIP3    H250754   0.412   5.798  15.083  0.9245 -1.5674 -0.8156
 9755TIP3   OH250755   2.603   5.481   2.663 -0.7288 -0.2666 -0.2532
 9755TIP3    H150756   2.657   5.460   2.587 -1.1820  0.2555 -0.7298
 9755TIP3    H250757   2.533   5.416   2.662 -1.0528  0.0771 -0.6217
 9756TIP3   OH250758   0.082   3.610   3.571 -0.1770 -0.3519  0.0403
 9756TIP3    H150759   0.150   3.568   3.518 -0.5298  0.0199 -0.7307
 9756TIP3    H250760   0.117   3.608   3.660  2.1540  2.2736 -0.6473
 9757TIP3   OH250761   6.469   3.393   0.841 -0.0805  0.1517  0.1329
 9757TIP3    H150762   6.527   3.333   0.889  1.9805  2.0339  0.1204
 9757TIP3    H250763   6.460   3.469   0.898  0.0880  1.2317 -1.2222
 9758TIP3   OH250764   6.475   1.833  12.976 -0.1875 -0.4897  0.3752
 9758TIP3    H150765   6.398   1.782  12.950 -1.7244  2.3448 -1.0880
 9758TIP3    H250766   6.539   1.815  12.907 -0.6782 -0.5192 -0.0842
 9759TIP3   OH250767   4.577   3.689   4.383  0.1737 -0.1747 -0.4334
 9759TIP3    H150768   4.550   3.667   4.294  1.5611 -0.3160 -0.8338
 9759TIP3    H250769   4.506   3.745   4.416 -1.6517 -2.2246 -0.6682
 9760TIP3   OH250770   4.922   0.705   4.546 -0.1254 -0.0892  0.1457
 9760TIP3    H150771   4.918   0.611   4.560 -4.0723 -0.4567 -2.0768
 9760TIP3    H250772   4.949   0.741   4.631 -1.1796 -3.0962  1.8959
 9761TIP3   OH250773   0.137   2.260   1.328 -0.0311 -0.3900 -0.1902
 9761TIP3    H150774   0.227   2.250   1.359 -0.0073 -0.6806 -0.3406
 9761TIP3    H250775   0.083   2.255   1.406  0.0043 -1.4521 -0.2164
 9762TIP3   OH250776   3.743   0.689   5.544  0.0717 -0.6277 -0.2167
 9762TIP3    H150777   3.781   0.710   5.630 -0.3035 -0.6411 -0.0479
 9762TIP3    H250778   3.673   0.626   5.562 -0.0039 -0.6391 -0.5339
 9763TIP3   OH250779   2.104   0.753  14.268  0.3020  0.1075 -0.0819
 9763TIP3    H150780   2.176   0.802  14.309 -0.0845  2.3861 -1.8963
 9763TIP3    H250781   2.064   0.704  14.340  2.9806 -0.4338  1.1685
 9764TIP3   OH250782   2.399   2.417  11.954  0.0813  0.3070  0.2677
 9764TIP3    H150783   2.433   2.449  12.037 -0.8261 -0.1478  0.8393
 9764TIP3    H250784   2.473   2.371  11.913  0.8672  1.5490  0.2594
 9765TIP3   OH250785   3.552   0.743  14.811  0.5149  0.0532  0.1689
 9765TIP3    H150786   3.555   0.695  14.728  0.3486  0.2024  0.0768
 9765TIP3    H250787   3.642   0.738  14.844  1.2982  2.3068 -1.3563
 9766TIP3   OH250788   3.722   4.336   4.149  0.2364 -0.2619  0.6029
 9766TIP3    H150789   3.776   4.376   4.217 -0.0724  0.5062  0.4105
 9766TIP3    H250790   3.759   4.368   4.067 -0.6144  0.4233  0.4758
 9767TIP3   OH250791   5.769   0.743  13.091 -0.0098  0.0952  0.4895
 9767TIP3    H150792   5.764   0.652  13.122 -0.6787  0.1597  0.5882
 9767TIP3    H250793   5.706   0.747  13.019 -0.6753  0.7174  1.0919
 9768TIP3   OH250794   5.272   0.803  12.185  0.0541 -0.1944 -0.1880
 9768TIP3    H150795   5.297   0.711  12.171 -0.0256 -0.1026 -1.0048
 9768TIP3    H250796   5.243   0.833  12.098 -1.6068  0.1026  0.4320
 9769TIP3   OH250797   5.881   1.946  14.270  0.4144 -0.2003 -0.6707
 9769TIP3    H150798   5.798   1.949  14.317  0.5976  1.7502 -0.3975
 9769TIP3    H250799   5.917   1.860  14.292 -0.9063 -0.5453  0.2873
 9770TIP3   OH250800   6.299   0.254  11.555 -0.1468 -0.0397  0.0050
 9770TIP3    H150801   6.382   0.211  11.533  0.4948  1.2285 -0.1268
 9770TIP3    H250802   6.232   0.188  11.534  0.8165 -1.1281  0.2149
 9771TIP3   OH250803   4.229   4.273   0.170 -0.5612 -0.5141  0.1427
 9771TIP3    H150804   4.214   4.340   0.237  0.5816 -0.3867  0.2950
 9771TIP3    H250805   4.148   4.270   0.119 -0.8256  0.5773  0.4880
 9772TIP3   OH250806   1.438   1.640  16.775 -0.7703  0.3077  0.2630
 9772TIP3    H150807   1.433   1.734  16.760 -0.1608  0.0713 -1.7353
 9772TIP3    H250808   1.419   1.629  16.868 -1.3041  2.3519  0.4360
 9773TIP3   OH250809   4.626   1.494  13.493 -0.1862  0.3879 -0.0171
 9773TIP3    H150810   4.670   1.558  13.549  3.1499 -0.9818 -0.8718
 9773TIP3    H250811   4.590   1.546  13.421  1.1515  1.4718  0.0632
 9774TIP3   OH250812   3.937   1.849  12.619 -0.3974 -0.0972  0.4222
 9774TIP3    H150813   3.901   1.779  12.673  0.8549 -0.0466  1.3789
 9774TIP3    H250814   3.921   1.821  12.529  1.3365 -2.3275  0.7307
 9775TIP3   OH250815   4.678   5.968  13.508  0.1423 -1.0622  0.3093
 9775TIP3    H150816   4.753   5.970  13.568 -0.0554 -0.9862  0.5610
 9775TIP3    H250817   4.630   6.048  13.529  0.4541 -0.6633 -0.4581
 9776TIP3   OH250818   2.366   3.410   3.064  0.8070 -0.0531 -0.4238
 9776TIP3    H150819   2.446   3.405   3.116  1.2222 -0.1048 -1.0527
 9776TIP3    H250820   2.341   3.502   3.066 -1.0596 -0.5076  2.6053
 9777TIP3   OH250821   5.970   4.863  11.576  0.2128  0.8145  0.1357
 9777TIP3    H150822   5.957   4.858  11.671 -0.9230 -1.3780 -0.0709
 9777TIP3    H250823   5.999   4.776  11.551 -2.0099  0.5572 -1.8420
 9778TIP3   OH250824   2.031   6.663   1.204  0.2076 -0.3812 -0.1458
 9778TIP3    H150825   1.938   6.683   1.194 -0.1815 -1.7437  0.5739
 9778TIP3    H250826   2.062   6.725   1.271  1.1537  3.7605 -3.8816
 9779TIP3   OH250827   2.580   5.841  12.467 -0.5024 -0.1875  0.2416
 9779TIP3    H150828   2.516   5.831  12.396  0.3986  1.1112 -0.7952
 9779TIP3    H250829   2.599   5.935  12.469  2.1658 -0.6500 -0.2113
 9780TIP3   OH250830   2.509   1.055  16.349 -0.3330  0.3550  0.0888
 9780TIP3    H150831   2.433   1.031  16.401 -1.3769  1.0959 -1.0459
 9780TIP3    H250832   2.552   1.124  16.401 -0.3668 -0.1305  0.7765
 9781TIP3   OH250833   2.167   1.210  15.903 -0.1503 -1.0595 -0.2646
 9781TIP3    H150834   2.113   1.151  15.956  0.9867 -1.6415  0.2723
 9781TIP3    H250835   2.248   1.161  15.887  1.3384  0.8015  1.2477
 9782TIP3   OH250836   6.256   5.500   3.357 -0.3449 -0.5859  0.1264
 9782TIP3    H150837   6.286   5.467   3.273  0.9150  0.2446  0.2173
 9782TIP3    H250838   6.309   5.453   3.422  0.5014  0.5536  0.3096
 9783TIP3   OH250839   0.262   3.451   0.427  0.5621  0.6864 -0.0411
 9783TIP3    H150840   0.288   3.487   0.343 -0.5497  1.4805 -0.0731
 9783TIP3    H250841   0.170   3.476   0.437  0.1294 -0.9722  0.5751
 9784TIP3   OH250842   2.437   6.556   4.885 -0.9297 -0.4147 -0.5315
 9784TIP3    H150843   2.381   6.620   4.928 -0.6388  0.7495 -1.8120
 9784TIP3    H250844   2.525   6.593   4.893 -0.5411 -1.4130  0.0143
 9785TIP3   OH250845   3.619   2.530   3.566 -0.2255 -0.3724 -0.1876
 9785TIP3    H150846   3.537   2.575   3.589 -0.2164  0.1674 -1.1665
 9785TIP3    H250847   3.679   2.554   3.636 -0.2270  1.1611 -0.6736
 9786TIP3   OH250848   0.412   3.930   4.159 -0.3466 -0.6290 -0.7350
 9786TIP3    H150849   0.503   3.901   4.158  0.6448  2.2098 -0.9616
 9786TIP3    H250850   0.404   3.981   4.239 -1.6427 -0.4788 -0.9350
 9787TIP3   OH250851   1.517   2.824  12.420 -0.5351  0.2215  0.3824
 9787TIP3    H150852   1.530   2.894  12.355 -0.0374  0.0309  0.2707
 9787TIP3    H250853   1.527   2.868  12.505 -0.4418  0.3272  0.3168
 9788TIP3   OH250854   4.908   5.367  12.294  0.4978 -0.0480  0.7289
 9788TIP3    H150855   4.960   5.447  12.279  1.0450 -0.4359  0.5301
 9788TIP3    H250856   4.946   5.327  12.371 -1.5889  1.3354  2.6026
 9789TIP3   OH250857   1.279   0.194   1.806 -0.1964 -0.0216  0.0717
 9789TIP3    H150858   1.197   0.203   1.854 -0.9576  1.6898 -1.4247
 9789TIP3    H250859   1.252   0.182   1.715  1.2009 -2.7937 -0.0769
 9790TIP3   OH250860   5.317   4.297  12.472 -0.5948  0.2135  0.1869
 9790TIP3    H150861   5.266   4.226  12.435 -0.6216  0.3412 -0.0211
 9790TIP3    H250862   5.341   4.267  12.560 -0.1670 -0.2715 -0.0921
 9791TIP3   OH250863   2.962   4.596  14.251  0.2263 -0.2210  0.4942
 9791TIP3    H150864   2.889   4.615  14.192 -0.3304 -1.6537  0.6945
 9791TIP3    H250865   2.958   4.502  14.265  2.1964 -0.3543  0.4238
 9792TIP3   OH250866   3.041   2.044   2.204  0.3115 -0.1342 -0.9400
 9792TIP3    H150867   2.963   2.090   2.235  1.7473  0.3551  2.4375
 9792TIP3    H250868   3.102   2.113   2.178  0.9597 -0.2815  0.1213
 9793TIP3   OH250869   1.929   2.819  13.143  0.4448 -0.3856 -0.2056
 9793TIP3    H150870   2.010   2.860  13.112  0.6655  1.2112  2.2158
 9793TIP3    H250871   1.862   2.886  13.131  0.4453  0.1080  2.1004
 9794TIP3   OH250872   4.903   4.529   3.563 -0.5761  0.2097  0.3768
 9794TIP3    H150873   4.816   4.516   3.601 -0.1440 -1.5723  0.8673
 9794TIP3    H250874   4.904   4.474   3.485 -0.4046  1.4502 -0.5139
 9795TIP3   OH250875   5.277   0.906  15.006  0.0598  0.5492  0.3378
 9795TIP3    H150876   5.234   0.905  15.091 -0.5814  1.4537  0.0416
 9795TIP3    H250877   5.205   0.906  14.943  0.5173 -1.1267 -0.2469
 9796TIP3   OH250878   0.460   5.691   0.108  0.6034  0.1043 -0.6420
 9796TIP3    H150879   0.409   5.715   0.185  1.6497  0.3261  0.0019
 9796TIP3    H250880   0.459   5.595   0.107  0.2543  0.1050 -0.5968
 9797TIP3   OH250881   5.879   3.465  16.071 -0.1190  0.0427 -0.0540
 9797TIP3    H150882   5.836   3.522  16.008 -1.2198  0.4295  1.0237
 9797TIP3    H250883   5.813   3.400  16.095  1.0994 -1.7443 -1.2500
 9798TIP3   OH250884   2.613   5.551   0.771  0.3284 -0.1788  0.2983
 9798TIP3    H150885   2.680   5.483   0.771  0.3476 -0.2783 -3.0235
 9798TIP3    H250886   2.623   5.596   0.688 -3.6243 -0.1042 -0.3533
 9799TIP3   OH250887   1.319   4.798  13.798  0.5483  0.2531 -0.2629
 9799TIP3    H150888   1.234   4.791  13.841  0.3503  1.0551 -0.5083
 9799TIP3    H250889   1.382   4.797  13.870  0.2235  1.5328  0.0755
 9800TIP3   OH250890   2.715   3.243  12.120 -0.0510 -0.0927 -0.1754
 9800TIP3    H150891   2.683   3.311  12.062 -0.8197 -0.1583  0.1659
 9800TIP3    H250892   2.810   3.254  12.120 -0.2511  2.1563  1.2679
 9801TIP3   OH250893   5.118   0.927  15.802 -0.1742 -0.3171  0.0508
 9801TIP3    H150894   5.191   0.950  15.859 -0.2852  1.4095 -0.4603
 9801TIP3    H250895   5.154   0.929  15.713 -0.3616 -1.5269 -0.0754
 9802TIP3   OH250896   6.509   4.489   5.329  0.3204 -0.1336  0.0128
 9802TIP3    H150897   6.574   4.553   5.358  1.0140  0.9819 -3.5196
 9802TIP3    H250898   6.551   4.442   5.257 -1.7871 -1.3463 -0.5335
 9803TIP3   OH250899   6.776   1.244   0.613 -0.1382 -0.4024  0.1646
 9803TIP3    H150900   6.759   1.334   0.643 -1.1475 -0.0929 -1.2328
 9803TIP3    H250901   6.841   1.254   0.543 -1.6897 -0.4878 -1.3688
 9804TIP3   OH250902   1.616   2.081  14.267 -0.4716  0.1736 -0.9675
 9804TIP3    H150903   1.678   2.153  14.263  0.1591 -0.2996 -0.0343
 9804TIP3    H250904   1.551   2.108  14.332 -0.2164 -0.1130 -0.5935
 9805TIP3   OH250905   4.071   3.612   4.593  0.3814  0.8692 -0.0439
 9805TIP3    H150906   4.081   3.707   4.597  1.7665  0.8668 -2.1794
 9805TIP3    H250907   4.094   3.581   4.681  1.6817  2.3722  0.1758
 9806TIP3   OH250908   6.047   4.265  16.871  0.1051 -0.6993  0.3250
 9806TIP3    H150909   5.973   4.319  16.842  0.0239  0.3251  2.2227
 9806TIP3    H250910   6.122   4.324  16.867  0.5058 -1.2375 -0.0487
 9807TIP3   OH250911   3.541   6.015   1.916  0.1255 -0.3599 -0.7609
 9807TIP3    H150912   3.631   6.016   1.883  1.1976  1.2018  1.8980
 9807TIP3    H250913   3.524   6.106   1.943 -1.3349 -1.1117  1.0618
 9808TIP3   OH250914   0.242   4.419  13.359  0.1921  0.4793  0.2251
 9808TIP3    H150915   0.324   4.465  13.378  0.3638  0.8411 -1.2789
 9808TIP3    H250916   0.206   4.398  13.446  1.0242  1.8120  0.9337
 9809TIP3   OH250917   2.562   3.272   0.595 -0.0597 -0.0861 -0.4783
 9809TIP3    H150918   2.553   3.290   0.502  0.4946 -0.8213 -0.6893
 9809TIP3    H250919   2.650   3.303   0.617 -0.3263  0.4219 -0.1108
 9810TIP3   OH250920   4.346   2.366   4.140  0.2541  0.0963  0.4839
 9810TIP3    H150921   4.338   2.277   4.172  0.6436 -0.5658 -1.1419
 9810TIP3    H250922   4.357   2.357   4.045  0.6696  1.8479  0.3149
 9811TIP3   OH250923   3.202   4.687   2.510  0.6065  0.1542 -0.3991
 9811TIP3    H150924   3.170   4.775   2.532 -2.6678 -0.3431 -2.4910
 9811TIP3    H250925   3.155   4.629   2.570  1.7680 -0.3245  0.0852
 9812TIP3   OH250926   4.697   0.973  12.337 -0.3670  0.3814  0.0230
 9812TIP3    H150927   4.608   1.008  12.342 -0.4640  0.2391 -0.6209
 9812TIP3    H250928   4.752   1.051  12.333 -0.4993  0.4686 -0.1259
 9813TIP3   OH250929   4.919   6.226  16.332 -0.0437  0.2451 -0.3121
 9813TIP3    H150930   4.877   6.237  16.247 -1.4827 -1.9180  0.0349
 9813TIP3    H250931   5.008   6.198  16.311  0.4245  2.1278 -1.0532
 9814TIP3   OH250932   4.478   1.530  15.331 -0.3829  0.6654  0.1309
 9814TIP3    H150933   4.482   1.442  15.293  2.4593  0.9439 -0.4657
 9814TIP3    H250934   4.423   1.580  15.270  1.4920  0.2997 -1.9954
 9815TIP3   OH250935   0.148   2.864   1.530  0.0268 -0.0102 -0.0413
 9815TIP3    H150936   0.187   2.951   1.538  0.8014 -0.4395  1.1858
 9815TIP3    H250937   0.221   2.809   1.500 -0.1639 -0.4366  0.2753
 9816TIP3   OH250938   1.944   5.768  15.530  0.1087  0.2072 -0.0178
 9816TIP3    H150939   1.968   5.709  15.458  1.3311  1.4183 -0.6597
 9816TIP3    H250940   1.990   5.849  15.509  1.4332  0.2689  2.7124
 9817TIP3   OH250941   0.512   1.350   0.404  0.6721 -0.6519 -0.0735
 9817TIP3    H150942   0.433   1.361   0.351  0.6918 -0.7534 -0.1249
 9817TIP3    H250943   0.482   1.364   0.494  0.8005  0.3272 -0.1743
 9818TIP3   OH250944   0.801   4.151  13.003 -0.4883  0.0992 -0.2722
 9818TIP3    H150945   0.876   4.140  12.944  1.5752  2.6193  1.6296
 9818TIP3    H250946   0.736   4.198  12.951  0.6458  0.8914 -1.0174
 9819TIP3   OH250947   4.056   2.738   5.847  0.1137  0.3281  0.0715
 9819TIP3    H150948   4.124   2.780   5.900  1.0503  1.4221 -1.8659
 9819TIP3    H250949   4.104   2.683   5.786 -0.7949  0.4080 -0.7381
 9820TIP3   OH250950   1.436   1.138   1.077 -0.0126 -0.5603  0.1507
 9820TIP3    H150951   1.432   1.062   1.019 -1.0916  0.8571 -1.7074
 9820TIP3    H250952   1.496   1.198   1.035  0.3183 -0.0799  1.2712
 9821TIP3   OH250953   0.639   0.240   4.412  0.5455 -0.1800 -0.0118
 9821TIP3    H150954   0.677   0.153   4.416  0.4812 -0.1722  2.9846
 9821TIP3    H250955   0.714   0.300   4.414  0.5308 -0.1724  0.3665
 9822TIP3   OH250956   2.701   1.756  14.885 -0.2656  0.2240 -0.2503
 9822TIP3    H150957   2.614   1.725  14.859 -0.9068  0.2261  1.7163
 9822TIP3    H250958   2.741   1.787  14.803 -1.4433 -1.3240 -1.4637
 9823TIP3   OH250959   4.026   5.137  13.502 -0.4034 -0.0256 -0.5500
 9823TIP3    H150960   4.051   5.227  13.482  0.4567  0.3370  1.8484
 9823TIP3    H250961   4.063   5.085  13.431  1.9625  1.1822 -0.2862
 9824TIP3   OH250962   5.207   5.632  16.267 -0.5916 -0.5013  0.0946
 9824TIP3    H150963   5.141   5.567  16.243  0.0585 -1.8569  1.7578
 9824TIP3    H250964   5.209   5.693  16.193 -1.4298 -2.2021 -1.4096
 9825TIP3   OH250965   0.499   5.197  14.240  0.3285  0.1429  0.0396
 9825TIP3    H150966   0.559   5.269  14.261  1.0028 -0.3142 -0.2865
 9825TIP3    H250967   0.456   5.225  14.159  0.9640 -0.0366 -0.3660
 9826TIP3   OH250968   2.546   1.978  12.367  0.1232  0.5544 -0.4348
 9826TIP3    H150969   2.572   2.053  12.420 -0.3411  1.0464 -0.9012
 9826TIP3    H250970   2.628   1.930  12.352  0.3378  0.6651  0.3138
 9827TIP3   OH250971   2.815   4.359   4.544  0.1778 -0.7321 -0.4807
 9827TIP3    H150972   2.768   4.337   4.624 -2.1376 -0.2677 -1.6285
 9827TIP3    H250973   2.801   4.284   4.486 -0.0669 -0.1305 -1.2188
 9828TIP3   OH250974   5.346   4.137  15.431  0.0204 -0.2104  0.1727
 9828TIP3    H150975   5.323   4.161  15.521  1.2422  0.0897  0.4326
 9828TIP3    H250976   5.313   4.048  15.420  0.7781 -0.6474  1.2918
 9829TIP3   OH250977   5.996   4.753  12.782  0.5742  0.2854 -0.2318
 9829TIP3    H150978   6.025   4.797  12.861  0.1988  1.0769 -0.5291
 9829TIP3    H250979   6.044   4.796  12.711 -1.5156  1.8841 -0.7798
 9830TIP3   OH250980   3.331   3.873   3.588 -0.5017  0.2334  0.4728
 9830TIP3    H150981   3.277   3.926   3.530 -0.7778 -0.9784 -0.4370
 9830TIP3    H250982   3.269   3.817   3.635 -0.1093 -1.2123 -0.6302
 9831TIP3   OH250983   1.158   5.550   2.609  0.0441  0.0933  0.5062
 9831TIP3    H150984   1.189   5.595   2.688  1.9123 -0.4342  0.1214
 9831TIP3    H250985   1.189   5.604   2.537  0.6768 -0.7992  0.0865
 9832TIP3   OH250986   6.112   0.968  15.605  0.0270 -0.0768 -0.1044
 9832TIP3    H150987   6.145   1.040  15.658  0.3639 -0.0075 -0.4018
 9832TIP3    H250988   6.189   0.914  15.587 -0.3129 -0.8033  0.5625
 9833TIP3   OH250989   0.702   5.982  13.481  0.0750 -0.5371 -0.4427
 9833TIP3    H150990   0.678   6.061  13.434 -0.9954 -0.6236 -0.0722
 9833TIP3    H250991   0.793   5.965  13.456 -0.2915 -0.2830 -2.0310
 9834TIP3   OH250992   3.311   1.292   2.491  0.7976  0.4323 -0.1899
 9834TIP3    H150993   3.369   1.304   2.416  1.1670  2.2958  0.3325
 9834TIP3    H250994   3.224   1.279   2.453  1.3339 -1.1761 -0.9518
 9835TIP3   OH250995   1.403   6.803   1.273  0.3707 -0.3917 -0.6972
 9835TIP3    H150996   1.494   6.822   1.296  0.6563 -0.6014 -1.6181
 9835TIP3    H250997   1.364   6.772   1.355  0.2360  2.7323  0.5914
 9836TIP3   OH250998   4.947   4.337  16.005 -0.1661  0.1859  0.2727
 9836TIP3    H150999   4.976   4.330  16.096 -2.5594  1.4849  1.2196
 9836TIP3    H251000   4.903   4.254  15.987 -0.6757  0.3660  0.6881
 9837TIP3   OH251001   1.015   0.443  13.358  0.5619  0.4133  0.2635
 9837TIP3    H151002   1.029   0.472  13.268  2.3082  2.0452  0.9679
 9837TIP3    H251003   0.981   0.354  13.351 -1.2965  1.2197 -2.0009
 9838TIP3   OH251004   5.063   0.815  13.081  0.2052  0.3961 -0.1985
 9838TIP3    H151005   5.076   0.834  13.173  1.8299 -0.2189 -0.2616
 9838TIP3    H251006   4.996   0.746  13.080  0.4693  0.1213  0.5509
 9839TIP3   OH251007   0.377   5.875  15.645 -0.3608  0.2232  0.0379
 9839TIP3    H151008   0.298   5.926  15.667 -0.7792 -0.8937  1.3040
 9839TIP3    H251009   0.438   5.894  15.716  1.1320  2.1897 -1.6573
 9840TIP3   OH251010   4.427   4.512   2.129  0.2805 -0.2308  0.6784
 9840TIP3    H151011   4.472   4.593   2.106  1.0967 -0.8746 -0.0513
 9840TIP3    H251012   4.475   4.443   2.083 -2.8018 -0.7853 -2.1263
 9841TIP3   OH251013   3.255   3.372   0.563  0.4158  0.0657  0.4141
 9841TIP3    H151014   3.328   3.432   0.545  1.7234 -0.4993  3.2932
 9841TIP3    H251015   3.276   3.293   0.512  0.1273  0.9836 -1.2093
 9842TIP3   OH251016   6.685   1.381  13.167  0.2907  0.4805  0.3844
 9842TIP3    H151017   6.727   1.297  13.187 -0.6908 -0.0468  0.2834
 9842TIP3    H251018   6.717   1.440  13.236  0.7933 -0.0306  0.6032
 9843TIP3   OH251019   1.675   3.578   2.370 -0.0021  0.3220 -0.3118
 9843TIP3    H151020   1.733   3.609   2.301  0.5189 -1.3458 -0.6763
 9843TIP3    H251021   1.709   3.617   2.450  1.7541 -0.7378 -0.4982
 9844TIP3   OH251022   4.674   5.461  14.528 -0.5199 -0.3315  0.4706
 9844TIP3    H151023   4.582   5.437  14.537 -0.7940  0.4941  0.0126
 9844TIP3    H251024   4.679   5.508  14.445  1.0363 -3.5261 -1.3893
 9845TIP3   OH251025   2.293   0.596   2.150  0.2195 -0.2999  0.3904
 9845TIP3    H151026   2.269   0.642   2.231  2.3649  0.2134  0.7987
 9845TIP3    H251027   2.259   0.653   2.080 -2.8804 -1.4295  0.8239
 9846TIP3   OH251028   4.384   3.904   6.026 -0.0250  0.3650  0.4695
 9846TIP3    H151029   4.309   3.849   6.002 -0.2601  0.6831  0.4655
 9846TIP3    H251030   4.428   3.855   6.096 -1.6326  1.2851  2.2130
 9847TIP3   OH251031   2.328   0.044  12.194 -0.5839  0.3471 -0.1012
 9847TIP3    H151032   2.287  -0.036  12.161 -1.2885  0.4646  0.4685
 9847TIP3    H251033   2.374   0.080  12.118 -2.8773  1.0566 -1.2414
 9848TIP3   OH251034   1.819   5.728   1.488 -0.2588 -0.4845 -0.2445
 9848TIP3    H151035   1.771   5.699   1.410  1.4488 -1.7682 -0.8833
 9848TIP3    H251036   1.910   5.703   1.470  0.7795  2.2843  0.6921
 9849TIP3   OH251037   2.776   6.027  15.944  0.1342  0.2107 -0.1400
 9849TIP3    H151038   2.735   5.963  15.886  1.4813 -1.6228  0.8483
 9849TIP3    H251039   2.826   5.975  16.007  0.4674  2.2057  1.3531
 9850TIP3   OH251040   2.756   3.259  12.684 -0.5999 -0.0533  0.4606
 9850TIP3    H151041   2.685   3.323  12.681  0.7552  1.5100 -1.2369
 9850TIP3    H251042   2.819   3.296  12.746  0.8108  1.0634 -1.5312
 9851TIP3   OH251043   4.581   4.483  14.070 -0.2381  0.3465  0.4692
 9851TIP3    H151044   4.501   4.460  14.117  0.1074 -0.3007  0.7563
 9851TIP3    H251045   4.641   4.512  14.139  0.2555 -0.5544  0.4376
 9852TIP3   OH251046   6.672   2.119   0.328  0.4314  0.3824 -0.2531
 9852TIP3    H151047   6.758   2.156   0.345  1.0831 -1.3845  0.5362
 9852TIP3    H251048   6.611   2.179   0.372  1.5372 -0.0799  2.0527
 9853TIP3   OH251049   4.264   0.507  16.936  0.5471 -0.7452 -0.1159
 9853TIP3    H151050   4.294   0.416  16.929  1.9202 -0.3073 -0.3247
 9853TIP3    H251051   4.335   0.558  16.897 -0.3325  0.4032 -0.2563
 9854TIP3   OH251052   5.179   4.218  16.294 -0.4243 -0.2020 -0.2558
 9854TIP3    H151053   5.151   4.185  16.380 -1.2613  0.6970 -0.1606
 9854TIP3    H251054   5.184   4.313  16.305 -1.8676  0.0681 -1.5441
 9855TIP3   OH251055   6.657   3.738   4.626  0.5526  0.8635  0.0411
 9855TIP3    H151056   6.626   3.659   4.582  0.6019  0.2185  1.1066
 9855TIP3    H251057   6.751   3.725   4.636  0.5242  0.9438  0.4335
 9856TIP3   OH251058   4.179   6.048  10.429  0.1445  0.2860 -0.0349
 9856TIP3    H151059   4.260   6.017  10.389 -0.3101  0.2752 -0.9795
 9856TIP3    H251060   4.131   5.969  10.451 -0.6589  0.2677 -1.7035
 9857TIP3   OH251061   3.138   2.832   3.741  0.6668 -0.4612 -0.5182
 9857TIP3    H151062   3.188   2.819   3.822 -0.0301 -0.6958 -0.1073
 9857TIP3    H251063   3.067   2.767   3.747 -1.0074  1.3057 -0.0047
 9858TIP3   OH251064   4.171   2.035   3.553  0.3273  1.2197  0.5136
 9858TIP3    H151065   4.108   2.096   3.515  1.7848  2.5570  0.1430
 9858TIP3    H251066   4.182   1.967   3.486 -2.8377 -0.7011  1.7434
 9859TIP3   OH251067   3.594   4.149   5.376 -0.2427  0.7877 -0.1537
 9859TIP3    H151068   3.651   4.093   5.325  0.8917  2.4077 -0.7287
 9859TIP3    H251069   3.585   4.104   5.460  2.4073  0.7536  0.1925
 9860TIP3   OH251070   4.245   3.818   0.624 -0.3397 -0.1457 -0.0794
 9860TIP3    H151071   4.266   3.912   0.624 -1.0578  0.1149 -3.0771
 9860TIP3    H251072   4.151   3.815   0.646  0.0059 -0.3310  1.4785
 9861TIP3   OH251073   4.409   5.435  16.331 -0.1000 -0.3626 -0.2418
 9861TIP3    H151074   4.327   5.397  16.300  1.0001 -0.8347 -2.9014
 9861TIP3    H251075   4.420   5.515  16.280  1.4429 -0.7293 -0.5628
 9862TIP3   OH251076   5.692   3.211   3.986 -0.1483  0.6271 -0.4383
 9862TIP3    H151077   5.618   3.266   4.011 -0.7086  0.2220 -1.1385
 9862TIP3    H251078   5.750   3.212   4.061 -2.1966 -1.3461  1.3083
 9863TIP3   OH251079   3.275   0.772  16.306 -0.2712 -0.1493 -0.6072
 9863TIP3    H151080   3.246   0.831  16.375  1.9148 -0.2428  0.4774
 9863TIP3    H251081   3.357   0.811  16.274  0.3581 -1.7259 -0.9923
 9864TIP3   OH251082   0.592   4.557  13.014  0.0631 -0.0903  0.1630
 9864TIP3    H151083   0.504   4.540  13.048 -0.1074  1.6697  0.6795
 9864TIP3    H251084   0.603   4.494  12.942 -2.5389  1.1482 -1.4603
 9865TIP3   OH251085   1.553   0.143   4.434  0.0316  0.0176 -0.7920
 9865TIP3    H151086   1.519   0.228   4.463 -0.3366 -0.6315  0.7422
 9865TIP3    H251087   1.490   0.114   4.368 -1.2304 -0.1568  0.4367
 9866TIP3   OH251088   3.341   1.013   2.061 -0.4011  0.0604 -0.2528
 9866TIP3    H151089   3.312   1.040   2.148  0.3777  1.9120 -0.5159
 9866TIP3    H251090   3.387   0.931   2.076  1.8429  1.5138  1.5257
 9867TIP3   OH251091   5.253   0.762  14.633 -0.1842 -0.0688  0.2868
 9867TIP3    H151092   5.190   0.829  14.659  0.2288  0.3457  0.2201
 9867TIP3    H251093   5.223   0.683  14.678  0.8092  0.7389  2.4708
 9868TIP3   OH251094   2.410   6.864   4.769 -0.1032  0.6452  0.2040
 9868TIP3    H151095   2.423   6.795   4.834  0.6328  0.5566 -0.0173
 9868TIP3    H251096   2.473   6.932   4.794  0.8006  0.2465 -0.8877
 9869TIP3   OH251097   4.728   2.316   4.574  0.5770  0.1770 -0.3977
 9869TIP3    H151098   4.649   2.315   4.520 -0.8711  1.4797  1.5524
 9869TIP3    H251099   4.761   2.226   4.570 -0.4380 -0.1575 -2.0274
 9870TIP3   OH251100   4.050   6.268   3.061  0.5035 -0.1089  0.1645
 9870TIP3    H151101   4.056   6.223   2.976 -0.3183  1.6409 -0.8694
 9870TIP3    H251102   3.956   6.278   3.076  0.6278  2.0983 -0.1625
 9871TIP3   OH251103   5.035   1.263  15.861  0.8493 -0.3797  0.7970
 9871TIP3    H151104   4.989   1.180  15.875 -0.4901  0.2474  0.2910
 9871TIP3    H251105   5.014   1.316  15.937 -0.1211  0.2778  0.0826
 9872TIP3   OH251106   6.373   2.992  12.419 -0.5844  0.1540  0.6385
 9872TIP3    H151107   6.354   2.905  12.383 -2.0518  0.7771 -0.1867
 9872TIP3    H251108   6.468   2.992  12.433 -0.3478 -1.0776 -0.6992
 9873TIP3   OH251109   3.683   2.565   5.150 -0.4910 -0.1567  0.2288
 9873TIP3    H151110   3.718   2.550   5.238  0.9322  1.0400 -0.0999
 9873TIP3    H251111   3.698   2.658   5.134 -1.2613 -0.2364 -1.0634
 9874TIP3   OH251112   0.730   5.097   0.707  0.0365  0.0092  0.3503
 9874TIP3    H151113   0.675   5.092   0.786 -1.1786 -1.4553 -0.5543
 9874TIP3    H251114   0.795   5.028   0.719  0.8156  0.7793  0.7312
 9875TIP3   OH251115   3.955   6.238   1.025  1.1419 -0.1206  0.3391
 9875TIP3    H151116   3.861   6.223   1.026  1.3663 -1.7833  0.1411
 9875TIP3    H251117   3.966   6.327   1.059 -0.6993  1.5712 -2.9661
 9876TIP3   OH251118   4.172   3.994   1.199 -0.0614  0.2805  0.2578
 9876TIP3    H151119   4.198   4.080   1.233  1.2702  0.5355 -1.3178
 9876TIP3    H251120   4.207   3.932   1.263  1.0327  0.8202  0.2081
 9877TIP3   OH251121   5.464   6.052   4.697 -0.4099  0.0363  0.3173
 9877TIP3    H151122   5.549   6.008   4.693 -0.3919 -0.0650  1.5499
 9877TIP3    H251123   5.453   6.075   4.789 -2.3357 -1.1311  0.4336
 9878TIP3   OH251124   5.176   0.870  14.390 -0.0015 -0.0143  0.5073
 9878TIP3    H151125   5.196   0.810  14.461  0.5975  0.0640  0.4166
 9878TIP3    H251126   5.233   0.946  14.406 -0.3015  0.2614  0.2821
 9879TIP3   OH251127   1.857   2.439  11.699 -0.0978  0.7957  0.5646
 9879TIP3    H151128   1.894   2.351  11.704  0.2424  0.7876 -1.2446
 9879TIP3    H251129   1.927   2.497  11.728  0.1165  0.5518  0.5385
 9880TIP3   OH251130   2.645   1.540   3.479 -0.0219 -0.1197  0.6997
 9880TIP3    H151131   2.596   1.544   3.396  0.3414 -0.5297  0.4634
 9880TIP3    H251132   2.727   1.497   3.456  1.6359  2.8388  0.5050
 9881TIP3   OH251133   2.096   2.744  11.467 -0.3508  0.6381  0.3543
 9881TIP3    H151134   2.123   2.750  11.559  0.5917  0.2186  0.1212
 9881TIP3    H251135   2.051   2.827  11.450 -1.3808  0.3264  1.4427
 9882TIP3   OH251136   2.804   6.258  14.336 -0.2680 -0.5249  0.0844
 9882TIP3    H151137   2.796   6.184  14.396  0.7381  0.3180  1.3069
 9882TIP3    H251138   2.874   6.232  14.275 -0.0123 -0.6358  0.4245
 9883TIP3   OH251139   5.545   4.302   2.743 -0.1038  0.2888 -0.7791
 9883TIP3    H151140   5.602   4.226   2.753 -0.3741  0.0009 -1.3988
 9883TIP3    H251141   5.499   4.287   2.661 -1.4000  0.2815 -0.0812
 9884TIP3   OH251142   5.436   2.577  16.090 -0.2651 -0.0229 -0.0636
 9884TIP3    H151143   5.343   2.555  16.095  0.2528 -2.1565  2.4807
 9884TIP3    H251144   5.480   2.492  16.083  1.5380  0.9688 -2.1804
 9885TIP3   OH251145   6.709   4.574   4.257  0.1461  0.2533 -0.1990
 9885TIP3    H151146   6.660   4.627   4.319  0.0948 -1.3466  1.2050
 9885TIP3    H251147   6.788   4.548   4.304 -0.0862 -1.3492 -0.6032
 9886TIP3   OH251148   1.982   2.990   5.214  0.0205 -0.7054 -0.1343
 9886TIP3    H151149   1.914   2.957   5.154 -0.3652 -1.1802  0.5453
 9886TIP3    H251150   1.966   2.943   5.296  0.0574  0.4918  0.5793
 9887TIP3   OH251151   2.705   2.398   5.624  0.3603 -0.0133 -0.5274
 9887TIP3    H151152   2.780   2.457   5.629 -0.3601  1.0317 -1.4880
 9887TIP3    H251153   2.742   2.315   5.594  1.2263  0.2958 -0.3512
 9888TIP3   OH251154   1.893   4.691   3.496 -0.4663 -0.7228 -0.0157
 9888TIP3    H151155   1.828   4.627   3.467  0.8262 -1.3727 -1.5802
 9888TIP3    H251156   1.857   4.726   3.578 -2.0059 -2.2194 -0.0069
 9889TIP3   OH251157   2.578   5.861   4.907 -0.4567 -0.4575  0.1114
 9889TIP3    H151158   2.504   5.915   4.935  0.1578 -0.2231  1.3357
 9889TIP3    H251159   2.581   5.873   4.812  0.6069  2.9751  0.4457
 9890TIP3   OH251160   3.267   0.432   1.308  0.2191  0.8693 -0.1395
 9890TIP3    H151161   3.219   0.513   1.291 -0.9464 -0.0329 -1.3605
 9890TIP3    H251162   3.202   0.375   1.349  0.5135 -0.0521 -0.9351
 9891TIP3   OH251163   6.175   2.697  13.203 -0.3647 -0.2460 -0.4933
 9891TIP3    H151164   6.097   2.731  13.247  0.0336 -0.7887  0.6747
 9891TIP3    H251165   6.143   2.621  13.154 -0.8453  0.4740 -1.3460
 9892TIP3   OH251166   5.528   2.377   0.034 -0.1068  0.2898  0.2416
 9892TIP3    H151167   5.495   2.448   0.088 -0.0401 -0.2092  0.9414
 9892TIP3    H251168   5.483   2.388  -0.050 -2.3506 -0.5770  1.2605
 9893TIP3   OH251169   3.479   4.735  16.722  0.1466  0.2101  0.0621
 9893TIP3    H151170   3.456   4.708  16.633 -0.8438 -0.0620  0.3959
 9893TIP3    H251171   3.555   4.793  16.710 -0.2465  0.5263 -0.9937
 9894TIP3   OH251172   5.163   0.786   3.373  0.1838  0.3059 -0.2640
 9894TIP3    H151173   5.111   0.845   3.428  1.5971  1.5120 -0.1695
 9894TIP3    H251174   5.192   0.717   3.433 -1.1983 -0.3363 -0.3018
 9895TIP3   OH251175   1.201   4.775  14.496  0.2541 -0.2560 -0.1332
 9895TIP3    H151176   1.216   4.861  14.536 -1.2489  0.1357 -0.3511
 9895TIP3    H251177   1.248   4.779  14.413  0.7437  0.1088  0.1536
 9896TIP3   OH251178   3.609   0.515   5.290 -0.1110  0.0283 -0.4426
 9896TIP3    H151179   3.566   0.432   5.267 -0.0659 -0.0134 -0.3770
 9896TIP3    H251180   3.683   0.489   5.346  0.3947  0.0444 -1.0885
 9897TIP3   OH251181   1.552   2.628  16.247 -0.0411 -0.1121  0.0221
 9897TIP3    H151182   1.621   2.610  16.311  1.3280 -1.5454 -1.7469
 9897TIP3    H251183   1.570   2.717  16.217  0.0037  0.1403  0.7747
 9898TIP3   OH251184   0.020   5.187  13.176 -0.6078 -0.0074 -0.5640
 9898TIP3    H151185  -0.038   5.160  13.247  0.8117  0.0382  0.6603
 9898TIP3    H251186   0.098   5.133  13.186  0.7679  1.8980 -0.3243
 9899TIP3   OH251187   2.608   2.339   2.864 -0.2267 -0.5898  0.0535
 9899TIP3    H151188   2.681   2.285   2.832  1.0553  1.1080  0.0185
 9899TIP3    H251189   2.562   2.367   2.785 -1.1017 -1.8430  0.0849
 9900TIP3   OH251190   6.172   1.834   0.582  0.5606 -0.0346 -0.2525
 9900TIP3    H151191   6.217   1.777   0.643 -1.5826 -1.3940  0.1806
 9900TIP3    H251192   6.104   1.878   0.634  0.6977  1.1957 -1.0439
 9901TIP3   OH251193   1.509   1.398   1.246  0.4862  0.4125  0.0483
 9901TIP3    H151194   1.565   1.363   1.176 -2.0627 -2.3719 -0.7934
 9901TIP3    H251195   1.508   1.329   1.312  0.4674  1.7622  1.5147
 9902TIP3   OH251196   3.082   2.859  11.591  0.8084 -0.5415 -0.2870
 9902TIP3    H151197   3.160   2.817  11.627  0.0524 -0.8052  1.1411
 9902TIP3    H251198   3.115   2.933  11.540  2.1628 -2.5081 -2.4913
 9903TIP3   OH251199   3.515   3.820   1.381 -0.8730 -0.2756 -0.6840
 9903TIP3    H151200   3.540   3.734   1.414 -0.2902  0.1091 -0.0963
 9903TIP3    H251201   3.568   3.832   1.303 -0.8542 -0.3920 -0.6889
 9904TIP3   OH251202   0.923   0.622  16.401 -0.5323  0.3057  0.6364
 9904TIP3    H151203   0.893   0.712  16.393 -1.3588  0.0219  0.4519
 9904TIP3    H251204   0.996   0.616  16.339 -0.8097  0.7076  0.2676
 9905TIP3   OH251205   3.993   0.092  16.127 -0.0913  0.6977 -0.4046
 9905TIP3    H151206   4.004   0.057  16.038  0.4950  1.0422 -0.4731
 9905TIP3    H251207   4.065   0.154  16.137  0.2481  0.1658  0.5615
 9906TIP3   OH251208   4.741   6.058   1.051  0.1789  0.1538 -0.6796
 9906TIP3    H151209   4.681   6.133   1.048 -0.4750 -0.3505 -0.5384
 9906TIP3    H251210   4.767   6.052   1.143  1.0822  0.8554 -0.8800
 9907TIP3   OH251211   6.027   2.141  12.519  0.5242  0.2723  0.2441
 9907TIP3    H151212   5.974   2.072  12.558 -0.4604  1.4571  1.1064
 9907TIP3    H251213   6.004   2.140  12.426  3.0911 -2.7601 -0.4972
 9908TIP3   OH251214   2.699   1.374  16.255 -0.1916  0.5451 -0.4618
 9908TIP3    H151215   2.607   1.386  16.279  0.3140  0.7167  1.5139
 9908TIP3    H251216   2.736   1.462  16.258  0.2968  0.3314 -0.0656
 9909TIP3   OH251217   2.538   4.067  12.773 -0.0821  0.5338 -0.6600
 9909TIP3    H151218   2.544   4.022  12.689 -0.6014  0.0892 -0.4658
 9909TIP3    H251219   2.602   4.023  12.828 -1.3470 -0.7527 -0.1355
 9910TIP3   OH251220   6.837   6.849  16.537  0.1715 -1.3633 -0.2955
 9910TIP3    H151221   6.782   6.905  16.482  0.5546 -2.2150 -1.5830
 9910TIP3    H251222   6.822   6.882  16.626 -0.2471  0.2356 -0.9133
 9911TIP3   OH251223   1.630   3.390  14.528 -0.5030 -0.6201  0.1593
 9911TIP3    H151224   1.580   3.343  14.594 -2.8467  2.6495  0.9823
 9911TIP3    H251225   1.563   3.421  14.466  1.2491 -0.7453 -1.9095
 9912TIP3   OH251226   4.810   3.663   4.008 -0.3124  0.6385 -0.0746
 9912TIP3    H151227   4.851   3.641   3.924  0.8087 -3.2794  1.3143
 9912TIP3    H251228   4.860   3.738   4.040 -1.3871  2.9040 -3.1640
 9913TIP3   OH251229   6.465   6.589   3.397  0.2877  0.8150  0.3482
 9913TIP3    H151230   6.374   6.594   3.368  0.3986 -0.1810 -0.2006
 9913TIP3    H251231   6.507   6.531   3.334  1.1551  0.7362  0.9856
 9914TIP3   OH251232   5.177   5.189   0.328  0.0572 -0.0185 -0.0143
 9914TIP3    H151233   5.198   5.279   0.304  1.2227 -0.2923 -0.1185
 9914TIP3    H251234   5.086   5.177   0.300 -0.3894  1.3585  0.7536
 9915TIP3   OH251235   1.945   1.891   3.082 -0.6532  0.0311 -0.0220
 9915TIP3    H151236   1.966   1.860   2.994  0.0993  0.6933 -0.0914
 9915TIP3    H251237   2.027   1.886   3.130 -0.4719  1.8795 -0.0466
 9916TIP3   OH251238   0.777   3.915   5.867 -0.5529  0.1129 -0.1544
 9916TIP3    H151239   0.852   3.925   5.925 -0.7483 -0.1940  0.1557
 9916TIP3    H251240   0.816   3.907   5.779 -0.1098 -1.5957  0.1511
 9917TIP3   OH251241   2.456   2.239   3.991  0.4845 -0.6272 -0.3267
 9917TIP3    H151242   2.540   2.285   3.985  0.0081  0.5682  1.5789
 9917TIP3    H251243   2.415   2.254   3.906  0.6989  1.8275 -0.0545
 9918TIP3   OH251244   2.048   1.471  15.877 -0.1847 -0.0805 -0.2882
 9918TIP3    H151245   2.105   1.398  15.902 -4.6538 -2.9913  2.8106
 9918TIP3    H251246   1.982   1.432  15.820 -3.0860  1.2041  1.9646
 9919TIP3   OH251247   1.156   6.202   3.870  0.3082 -0.5026 -0.1575
 9919TIP3    H151248   1.188   6.277   3.819  0.1271  0.2543  0.8030
 9919TIP3    H251249   1.205   6.127   3.836  1.9905  0.3766  0.2117
 9920TIP3   OH251250   4.630   3.963  16.471  0.0463 -0.0003  0.0946
 9920TIP3    H151251   4.676   3.980  16.389  2.1338  0.8760  1.3808
 9920TIP3    H251252   4.632   3.868  16.480 -0.4254 -0.1294 -0.9516
 9921TIP3   OH251253   5.867   3.832  16.754 -0.4264 -0.0433  0.1919
 9921TIP3    H151254   5.878   3.830  16.849 -2.1558 -0.9386  0.4073
 9921TIP3    H251255   5.953   3.859  16.721  0.3189 -0.0730  1.9754
 9922TIP3   OH251256   3.711   6.289   1.620  0.5351 -0.2807 -0.0737
 9922TIP3    H151257   3.682   6.367   1.668  1.3602 -0.0743  0.1133
 9922TIP3    H251258   3.766   6.324   1.550 -0.2759 -0.6097 -0.8997
 9923TIP3   OH251259   0.923   5.312   0.769  0.1672  0.2283 -0.2156
 9923TIP3    H151260   0.892   5.235   0.817 -1.3971  1.6753  1.2327
 9923TIP3    H251261   0.977   5.276   0.699 -0.4782 -2.1774  0.4191
 9924TIP3   OH251262   4.384   5.312  14.766  0.1614  0.3681 -0.2483
 9924TIP3    H151263   4.301   5.338  14.726 -1.0620 -2.0996  0.4649
 9924TIP3    H251264   4.411   5.235  14.716  0.4618 -0.6420  1.3983
 9925TIP3   OH251265   1.246   1.887  15.269  0.0591 -0.1088  0.1203
 9925TIP3    H151266   1.201   1.830  15.332  0.1060 -0.2407  0.0353
 9925TIP3    H251267   1.203   1.870  15.185  0.8826 -0.9523 -0.1527
 9926TIP3   OH251268   6.534   3.368  12.818  0.0308  0.8136  0.0167
 9926TIP3    H151269   6.498   3.347  12.905  0.6210 -0.6230 -0.0652
 9926TIP3    H251270   6.608   3.425  12.836 -0.8666  1.9216  0.3316
 9927TIP3   OH251271   4.095   5.463   5.158 -0.0450 -0.0072  0.1350
 9927TIP3    H151272   4.135   5.548   5.140 -0.0910  0.0960  0.5149
 9927TIP3    H251273   4.006   5.471   5.123  0.7148 -0.7730 -2.1708
 9928TIP3   OH251274   6.773   6.280  11.560  0.2535 -0.0975  0.2932
 9928TIP3    H151275   6.812   6.358  11.521 -0.4985 -0.2950 -0.8957
 9928TIP3    H251276   6.679   6.288  11.541  0.1518 -1.2231  0.2605
 9929TIP3   OH251277   0.133   2.912  15.870  0.4509  0.3963 -0.3215
 9929TIP3    H151278   0.148   2.826  15.832 -1.1547 -0.2011  0.3238
 9929TIP3    H251279   0.081   2.959  15.804 -1.6754 -0.3772  0.7149
 9930TIP3   OH251280   6.515   1.441   5.324  0.3439 -0.2655  0.1300
 9930TIP3    H151281   6.563   1.364   5.293 -0.9154 -1.4147  0.9357
 9930TIP3    H251282   6.537   1.510   5.261  1.3571 -1.3320 -0.7163
 9931TIP3   OH251283   1.128   4.104   3.662  0.1642  1.2018 -0.1911
 9931TIP3    H151284   1.177   4.075   3.739 -0.8722  2.7452  1.0971
 9931TIP3    H251285   1.049   4.145   3.697 -0.5950  1.4735 -2.1022
 9932TIP3   OH251286   4.233   2.575  11.482  0.2721  0.1581  0.3688
 9932TIP3    H151287   4.161   2.627  11.446  0.8634  1.7330  1.3416
 9932TIP3    H251288   4.300   2.640  11.505  1.0179 -1.0306  1.7276
 9933TIP3   OH251289   3.350   0.737   0.561  0.6429  0.0639  0.2571
 9933TIP3    H151290   3.414   0.665   0.556  1.3573  0.5607  1.6880
 9933TIP3    H251291   3.400   0.810   0.599  0.1349  1.5700 -1.7887
 9934TIP3   OH251292   1.224   3.765   5.334  0.3183  0.0064  0.6536
 9934TIP3    H151293   1.293   3.713   5.376  2.0536  0.0898 -1.8767
 9934TIP3    H251294   1.238   3.854   5.366 -0.3925 -0.4071  2.2235
 9935TIP3   OH251295   1.933   5.658   2.837 -0.1861 -0.2124 -0.1461
 9935TIP3    H151296   1.971   5.579   2.798  0.7414  0.3721 -0.4417
 9935TIP3    H251297   1.999   5.689   2.898  0.4900  1.6536 -1.7520
 9936TIP3   OH251298   1.663   5.684   3.677 -0.2695  0.8307  0.2903
 9936TIP3    H151299   1.606   5.749   3.719 -0.7316  0.0751  0.8549
 9936TIP3    H251300   1.638   5.686   3.585 -1.9892 -0.2457  0.6924
 9937TIP3   OH251301   4.804   2.591  15.630  0.1275 -0.1539  0.3065
 9937TIP3    H151302   4.785   2.529  15.559 -0.9892  0.5577 -0.0423
 9937TIP3    H251303   4.802   2.539  15.709 -0.1395 -0.6777 -0.0412
 9938TIP3   OH251304   6.428   2.487  13.262  0.2860  0.0058 -0.4619
 9938TIP3    H151305   6.421   2.517  13.172  0.4814  0.5052 -0.3172
 9938TIP3    H251306   6.509   2.527  13.294 -0.3243  0.7123  0.2515
 9939TIP3   OH251307   4.514   6.667  14.369  0.1455  0.7653 -0.6891
 9939TIP3    H151308   4.473   6.675  14.282  0.9408  2.3715 -0.9592
 9939TIP3    H251309   4.462   6.600  14.414 -0.3267 -0.0684 -2.3682
 9940TIP3   OH251310   2.621   5.891   0.644  0.1072  0.0427  0.5106
 9940TIP3    H151311   2.590   5.982   0.647 -0.0508 -0.0338  1.3356
 9940TIP3    H251312   2.673   5.881   0.724  1.3565 -0.1644 -0.2951
 9941TIP3   OH251313   1.151   3.393  16.154  0.1993  0.1465  0.1834
 9941TIP3    H151314   1.112   3.307  16.137 -1.3581  1.0463 -1.0537
 9941TIP3    H251315   1.236   3.388  16.110 -0.2371 -0.4843 -0.6394
 9942TIP3   OH251316   4.950   6.017  11.494  0.4799 -0.3307 -0.3965
 9942TIP3    H151317   4.885   6.068  11.543 -0.6458 -1.0259 -1.0980
 9942TIP3    H251318   4.973   5.945  11.553  0.6998 -0.0135 -0.0975
 9943TIP3   OH251319   2.011   0.844   2.860 -0.5388  0.3264 -0.0346
 9943TIP3    H151320   1.940   0.787   2.890 -0.7972  1.0677  0.8100
 9943TIP3    H251321   1.967   0.927   2.837 -0.0303  0.5674 -0.1510
 9944TIP3   OH251322   0.949   1.899   0.689 -0.2160 -0.6175  0.5842
 9944TIP3    H151323   0.892   1.903   0.612 -0.4144 -2.8866  0.5497
 9944TIP3    H251324   0.889   1.906   0.764 -0.0923  0.8993  0.5700
 9945TIP3   OH251325   5.456   6.826  16.874 -0.0659 -0.1947 -0.0928
 9945TIP3    H151326   5.494   6.896  16.822 -0.1029 -0.8855 -1.0921
 9945TIP3    H251327   5.374   6.805  16.829 -0.2104 -0.6546  0.3753
 9946TIP3   OH251328   6.844   6.593   2.582 -0.4997 -0.8608 -0.0097
 9946TIP3    H151329   6.921   6.537   2.593 -0.5103 -0.9994 -0.5890
 9946TIP3    H251330   6.820   6.620   2.671  1.6267  1.0859  0.0794
 9947TIP3   OH251331   1.230   6.538  15.156  0.3803  0.6915 -0.0833
 9947TIP3    H151332   1.152   6.520  15.209  1.2353  0.6420  1.1951
 9947TIP3    H251333   1.248   6.456  15.111 -0.0838  0.5900 -0.0877
 9948TIP3   OH251334   2.190   2.773   3.321 -0.3311 -0.3230 -0.3173
 9948TIP3    H151335   2.232   2.737   3.242 -0.0784  1.1978 -0.9057
 9948TIP3    H251336   2.135   2.844   3.288 -1.9858 -1.0918  0.6566
 9949TIP3   OH251337   3.721   5.911  11.783  0.0108  0.2298  0.8171
 9949TIP3    H151338   3.660   5.975  11.746 -0.3235  0.2269  1.3395
 9949TIP3    H251339   3.723   5.840  11.720  1.7197  1.4783 -0.6544
 9950TIP3   OH251340   5.812   2.575  14.376  0.3692 -0.4582 -0.5115
 9950TIP3    H151341   5.872   2.501  14.388 -0.2996 -1.0128 -0.4952
 9950TIP3    H251342   5.766   2.555  14.295  0.7708  0.3699 -0.9474
 9951TIP3   OH251343   3.224   4.659  14.340 -0.1454 -1.0121 -0.0114
 9951TIP3    H151344   3.225   4.696  14.428  1.3971  0.1732 -0.4774
 9951TIP3    H251345   3.132   4.645  14.320 -0.5435 -0.7868  1.5752
 9952TIP3   OH251346   5.029   5.283  14.145 -0.0250  0.2417 -0.7445
 9952TIP3    H151347   4.972   5.243  14.079 -0.4610  0.1169 -0.2954
 9952TIP3    H251348   5.099   5.219  14.158 -0.3546 -0.0782 -0.5266
 9953TIP3   OH251349   3.744   6.555   2.873  0.1795 -0.5543 -0.0499
 9953TIP3    H151350   3.800   6.581   2.800  1.4835 -0.3755  0.9707
 9953TIP3    H251351   3.697   6.478   2.842  4.3375 -3.6580  0.4209
 9954TIP3   OH251352   4.945   3.485   0.306 -0.0630 -0.4522  0.1058
 9954TIP3    H151353   4.995   3.502   0.226  0.1070 -0.7427  0.1517
 9954TIP3    H251354   4.854   3.485   0.277  0.0559 -2.0522 -0.3691
 9955TIP3   OH251355   3.999   4.882  12.188  0.1696 -0.1146 -0.0031
 9955TIP3    H151356   4.073   4.934  12.156  1.1153 -3.0180 -3.1027
 9955TIP3    H251357   4.037   4.828  12.258  1.2659 -1.8244 -1.7910
 9956TIP3   OH251358   3.235   2.326  12.390  0.0745 -0.2857  0.3194
 9956TIP3    H151359   3.184   2.267  12.334 -1.4557  0.7390  0.5853
 9956TIP3    H251360   3.227   2.412  12.348  0.7843  0.0723  0.9063
 9957TIP3   OH251361   1.705   5.949   1.665  0.5276  0.6277 -0.0202
 9957TIP3    H151362   1.780   5.919   1.613 -1.8720 -2.1803 -2.2100
 9957TIP3    H251363   1.647   5.991   1.601 -1.3240 -0.4880  0.8486
 9958TIP3   OH251364   3.408   6.512  15.411 -0.1854  0.4377 -0.0686
 9958TIP3    H151365   3.437   6.595  15.374 -0.3608  1.6896  2.3833
 9958TIP3    H251366   3.489   6.470  15.441 -0.3005  1.0595  1.1872
 9959TIP3   OH251367   2.870   6.328   0.224 -0.1790 -0.1667 -0.3062
 9959TIP3    H151368   2.952   6.356   0.182 -0.2516 -0.6025 -0.7516
 9959TIP3    H251369   2.897   6.299   0.312  0.0460  0.2999 -0.2184
 9960TIP3   OH251370   1.797   0.017   5.639  0.6887  0.0582 -0.4082
 9960TIP3    H151371   1.765   0.023   5.549  0.8260 -1.0408 -0.5449
 9960TIP3    H251372   1.762   0.094   5.682 -0.4311 -0.0472 -1.0867
 9961TIP3   OH251373   5.764   1.585   0.070  0.0973  0.1970 -0.6171
 9961TIP3    H151374   5.832   1.624   0.125 -0.0510  0.2636 -0.4789
 9961TIP3    H251375   5.684   1.589   0.124  0.1924 -0.8000 -0.3931
 9962TIP3   OH251376   1.370   4.950   3.083  0.3729 -0.2086  0.5276
 9962TIP3    H151377   1.311   5.023   3.063  1.0235  0.7087  1.8498
 9962TIP3    H251378   1.378   4.903   3.000  0.7966  1.8344 -0.6524
 9963TIP3   OH251379   0.129   1.454  15.001 -0.0532  0.0522  0.4771
 9963TIP3    H151380   0.127   1.431  15.094  0.3627 -0.9243  0.2612
 9963TIP3    H251381   0.050   1.413  14.965 -0.7695  1.3047  0.5750
 9964TIP3   OH251382   5.192   6.706  15.595 -0.0569 -0.1832 -0.1173
 9964TIP3    H151383   5.160   6.616  15.607 -1.7649  0.3467 -0.4417
 9964TIP3    H251384   5.149   6.737  15.516 -1.2381  1.6321  1.1473
 9965TIP3   OH251385   3.014   1.094   5.018 -0.7439 -0.3415  0.2788
 9965TIP3    H151386   2.998   1.093   4.924 -1.7323 -0.6986  0.4354
 9965TIP3    H251387   2.926   1.099   5.057 -0.4025 -1.2581  1.1951
 9966TIP3   OH251388   3.446   2.633  13.483 -0.3285 -0.2586  0.0420
 9966TIP3    H151389   3.412   2.703  13.428  0.9456  1.2649  1.0932
 9966TIP3    H251390   3.399   2.643  13.566  0.6278  0.0606  0.5577
 9967TIP3   OH251391   3.691   3.207   2.256  0.1303  0.0746  0.5737
 9967TIP3    H151392   3.740   3.239   2.181 -0.5780  2.2477  0.9709
 9967TIP3    H251393   3.733   3.124   2.279  2.8504  1.2630  0.1934
 9968TIP3   OH251394   1.653   3.630   0.827 -0.3564  0.1709  0.2850
 9968TIP3    H151395   1.606   3.555   0.792 -1.1711  0.2630  1.1478
 9968TIP3    H251396   1.724   3.592   0.878  1.4168  0.0342 -2.1289
 9969TIP3   OH251397   5.504   1.810   0.646 -0.0770  0.6375  0.7230
 9969TIP3    H151398   5.524   1.807   0.552  0.0452 -1.6530  0.7658
 9969TIP3    H251399   5.574   1.864   0.683  0.3453  0.8967 -0.4044
 9970TIP3   OH251400   3.421   4.567   2.215 -0.1649 -0.4160  0.8142
 9970TIP3    H151401   3.437   4.653   2.254 -0.7372 -0.5913  1.4627
 9970TIP3    H251402   3.377   4.517   2.285 -1.7796 -0.5465 -0.2440
 9971TIP3   OH251403   3.024   3.630  12.933  0.1063 -0.1219 -0.2026
 9971TIP3    H151404   3.075   3.694  12.983  0.5275 -0.6849  0.0969
 9971TIP3    H251405   2.981   3.682  12.865 -0.6364  0.6933  0.8431
 9972TIP3   OH251406   1.069   5.334  13.637  0.2236  0.1261 -0.2354
 9972TIP3    H151407   1.062   5.371  13.725  3.1008 -1.0929  0.5944
 9972TIP3    H251408   1.127   5.395  13.591  0.8327 -0.6169 -0.4585
 9973TIP3   OH251409   0.568   6.112   4.185 -0.2848  0.5028 -0.5244
 9973TIP3    H151410   0.567   6.182   4.251 -1.1819 -0.4343  0.4955
 9973TIP3    H251411   0.593   6.033   4.234 -1.3154 -0.2876 -1.2227
 9974TIP3   OH251412   0.600   0.851   0.374  0.2091 -0.7039  0.0158
 9974TIP3    H151413   0.529   0.795   0.342  0.2697  0.2999 -1.9701
 9974TIP3    H251414   0.562   0.938   0.378  1.4058 -0.0930 -1.3876
 9975TIP3   OH251415   4.119   0.622  14.039 -0.0410  0.3268 -0.3130
 9975TIP3    H151416   4.116   0.601  14.132 -2.6469 -0.7521 -0.5608
 9975TIP3    H251417   4.210   0.605  14.013  0.8177  0.9952  2.0598
 9976TIP3   OH251418   2.706   3.337  11.341 -0.1835 -0.5545  0.3183
 9976TIP3    H151419   2.714   3.360  11.249  1.4682  3.3461  1.1954
 9976TIP3    H251420   2.613   3.324  11.356 -0.5863 -0.2076 -1.6903
 9977TIP3   OH251421   0.336   3.117   2.000 -0.0657  0.3136 -0.0485
 9977TIP3    H151422   0.410   3.080   2.048 -1.4688 -1.6312  0.7142
 9977TIP3    H251423   0.355   3.097   1.908  0.6601  0.4456  0.0626
 9978TIP3   OH251424   6.376   2.314  16.629 -0.1524 -0.6314  0.1628
 9978TIP3    H151425   6.420   2.366  16.696 -1.5928  0.3949  0.3603
 9978TIP3    H251426   6.285   2.342  16.633 -0.2712 -0.4136 -2.3485
 9979TIP3   OH251427   3.232   3.970  16.614 -0.0768  0.1982 -0.1990
 9979TIP3    H151428   3.256   3.939  16.527  2.0557 -0.2558  0.4945
 9979TIP3    H251429   3.175   3.901  16.649  1.6776 -1.2515 -0.0471
 9980TIP3   OH251430   2.084   2.408  16.169 -0.1566  0.5173  0.1350
 9980TIP3    H151431   2.077   2.422  16.263  0.3221  0.0008  0.2554
 9980TIP3    H251432   2.071   2.494  16.130 -1.8326  0.4891  0.5823
 9981TIP3   OH251433   5.685   4.789   3.389 -0.0727  0.4576 -0.0376
 9981TIP3    H151434   5.770   4.773   3.430  0.7837  1.7035 -1.2391
 9981TIP3    H251435   5.671   4.883   3.399 -2.0072  0.0648  1.3839
 9982TIP3   OH251436   6.089   6.234   4.894 -0.0304 -0.1474 -0.2694
 9982TIP3    H151437   6.070   6.152   4.940 -1.8696  0.7581  0.7198
 9982TIP3    H251438   6.164   6.272   4.941 -1.0546  0.1270  1.1990
 9983TIP3   OH251439   2.114   2.860   2.995 -0.4053  0.0017 -0.1701
 9983TIP3    H151440   2.144   2.928   3.055 -1.0772  1.6281 -1.6183
 9983TIP3    H251441   2.156   2.880   2.912 -0.1138 -1.7500 -0.4817
 9984TIP3   OH251442   0.899   1.575  11.036  0.4934  0.5515 -0.5505
 9984TIP3    H151443   0.979   1.547  11.080  0.0940 -0.3186 -0.3624
 9984TIP3    H251444   0.929   1.636  10.969  1.5397 -1.2445 -1.7894
 9985TIP3   OH251445   3.951   1.174   5.778  0.4132  0.0160  0.5467
 9985TIP3    H151446   3.939   1.244   5.843 -0.1821  0.4458 -0.0095
 9985TIP3    H251447   3.945   1.093   5.829 -1.5939  0.2869  0.8447
 9986TIP3   OH251448   1.231   5.206  12.964  0.0211  0.7770 -0.1326
 9986TIP3    H151449   1.192   5.120  12.978  1.9524  0.1433  1.9138
 9986TIP3    H251450   1.292   5.193  12.891 -1.0824  0.9381 -1.1109
 9987TIP3   OH251451   1.902   0.529  13.845  0.3211  0.2401  0.6970
 9987TIP3    H151452   1.964   0.563  13.909 -1.6513  2.6971  1.4775
 9987TIP3    H251453   1.936   0.558  13.760  0.4804  1.1790  1.0742
 9988TIP3   OH251454   6.283   2.352  13.451 -0.5658  0.1905  0.3293
 9988TIP3    H151455   6.233   2.334  13.371  0.0981 -1.6398  0.2808
 9988TIP3    H251456   6.356   2.406  13.422 -0.4121 -0.3376 -0.2871
 9989TIP3   OH251457   2.991   4.546  13.191 -0.2458  0.8172 -0.3504
 9989TIP3    H151458   3.003   4.514  13.280 -0.8101  1.4386 -0.0417
 9989TIP3    H251459   3.026   4.635  13.192  1.0217  0.3639 -1.1204
 9990TIP3   OH251460   5.141   2.733   3.942 -0.1264 -0.0322  0.7529
 9990TIP3    H151461   5.202   2.675   3.987 -0.9894 -0.9688  0.7528
 9990TIP3    H251462   5.067   2.741   4.003 -1.4486 -1.5521 -0.5605
 9991TIP3   OH251463   5.208   0.415   4.767 -0.1379  0.1758  0.2675
 9991TIP3    H151464   5.282   0.357   4.747 -0.6509 -0.1274 -0.8282
 9991TIP3    H251465   5.242   0.475   4.834  1.5186  0.8821 -1.1432
 9992TIP3   OH251466   1.091   5.643   0.347 -0.0606 -0.1276  0.3915
 9992TIP3    H151467   1.014   5.689   0.380  0.5131  1.7213 -0.6803
 9992TIP3    H251468   1.142   5.621   0.425 -0.0303  1.7245  0.9533
 9993TIP3   OH251469   0.609   0.737   2.694  0.1857 -0.0065  0.2886
 9993TIP3    H151470   0.705   0.734   2.700  0.3952  0.6743 -2.0922
 9993TIP3    H251471   0.587   0.674   2.626 -0.9897  0.6076  0.0763
 9994TIP3   OH251472   6.034   0.443   1.677 -0.8315 -0.1936  0.5007
 9994TIP3    H151473   6.071   0.359   1.702 -1.0031 -0.9486 -1.5925
 9994TIP3    H251474   6.092   0.475   1.608 -0.8803  1.3347  1.1194
 9995TIP3   OH251475   3.601   6.417  11.060  0.2077 -0.5732 -0.1704
 9995TIP3    H151476   3.660   6.435  10.987 -1.1440 -1.4956 -1.5453
 9995TIP3    H251477   3.544   6.495  11.064  0.1183 -0.6318 -0.2818
 9996TIP3   OH251478   6.594   6.458   1.870  0.0294  0.3134 -0.3923
 9996TIP3    H151479   6.501   6.459   1.847  0.3317  1.4485 -1.7071
 9996TIP3    H251480   6.637   6.421   1.793  0.4883 -2.8077  1.2158
 9997TIP3   OH251481   0.285   3.228   2.670 -0.1973 -0.5074  0.2222
 9997TIP3    H151482   0.263   3.293   2.603 -0.3931 -0.8211 -0.0210
 9997TIP3    H251483   0.310   3.150   2.621  3.2402  0.3209  0.3975
 9998TIP3   OH251484   2.090   0.223  16.637 -0.0331 -0.6051  0.3138
 9998TIP3    H151485   2.032   0.155  16.671 -0.6747  0.1121  0.7018
 9998TIP3    H251486   2.048   0.251  16.556 -1.6916  1.6601  1.8117
 9999TIP3   OH251487   3.301   3.869   3.948 -0.2977 -0.6161  0.5857
 9999TIP3    H151488   3.232   3.807   3.926 -0.7999 -0.7624  2.4393
 9999TIP3    H251489   3.273   3.951   3.907 -2.4682 -0.2428  2.6043
10000TIP3   OH251490   2.948   0.236   5.008  0.3222 -0.7105 -0.3733
10000TIP3    H151491   2.962   0.191   5.092 -0.7921  0.4921  0.4881
10000TIP3    H251492   2.858   0.267   5.012  0.6329  0.4277 -1.5138
10001TIP3   OH251493   4.143   2.760   0.518  0.1806 -0.0247  0.0875
10001TIP3    H151494   4.172   2.793   0.433  2.7307 -0.6122  0.6409
10001TIP3    H251495   4.061   2.714   0.500  1.0426 -0.7879 -2.2010
10002TIP3   OH251496   6.299   2.677   5.509 -0.4714  0.2711 -0.3426
10002TIP3    H151497   6.304   2.618   5.583 -0.7479 -1.5425 -1.7019
10002TIP3    H251498   6.272   2.761   5.547 -1.0133 -0.6961  1.5332
10003TIP3   OH251499   3.584   2.195  13.831  0.4547  0.1254 -0.4951
10003TIP3    H151500   3.667   2.238  13.850  0.9299 -0.2572 -1.6638
10003TIP3    H251501   3.578   2.125  13.897  0.9669  0.2616 -0.2995
10004TIP3   OH251502   5.414   1.080   4.336 -0.3221  0.8234 -0.4005
10004TIP3    H151503   5.412   1.116   4.248 -2.3510  2.3594  0.1978
10004TIP3    H251504   5.472   1.139   4.385  1.7963 -0.7205 -0.8945
10005TIP3   OH251505   0.614   5.445  14.329 -0.1539 -0.1800  0.5647
10005TIP3    H151506   0.665   5.517  14.367 -0.8623  0.4632  0.3195
10005TIP3    H251507   0.529   5.452  14.372 -0.1335 -1.0709  0.7574
10006TIP3   OH251508   5.687   5.155  12.307 -0.4391  0.0213  0.1296
10006TIP3    H151509   5.680   5.077  12.252  0.9670 -1.4016  1.8567
10006TIP3    H251510   5.666   5.124  12.396 -2.2455  2.1508  0.5533
10007TIP3   OH251511   2.099   4.685  16.449 -0.1637 -0.0984  0.3069
10007TIP3    H151512   2.058   4.737  16.380  0.4091  0.8737  0.6654
10007TIP3    H251513   2.051   4.603  16.450 -0.8771  0.2941 -0.5188
10008TIP3   OH251514   1.203   1.221  12.930  0.1012 -0.1125 -0.1588
10008TIP3    H151515   1.169   1.300  12.888  1.3879  1.0421  0.8811
10008TIP3    H251516   1.140   1.204  13.001 -0.2768 -0.1363 -0.4920
10009TIP3   OH251517   5.186   4.609   0.046  0.0987 -0.1037  0.3785
10009TIP3    H151518   5.199   4.561   0.127 -1.3725  0.0554  0.7490
10009TIP3    H251519   5.166   4.542  -0.020 -0.9329 -0.1090  0.6698
10010TIP3   OH251520   6.543   4.124  16.243  0.3538  0.6743  0.3656
10010TIP3    H151521   6.559   4.217  16.258  3.5361  0.1023  1.0959
10010TIP3    H251522   6.573   4.081  16.322  0.8477 -1.1331 -0.7406
10011TIP3   OH251523   6.371   0.342  16.397 -0.1016  0.0039  0.0532
10011TIP3    H151524   6.277   0.355  16.389 -0.0919  0.6572  0.9222
10011TIP3    H251525   6.391   0.275  16.331 -0.7823  1.6120 -1.9241
10012TIP3   OH251526   3.842   5.491  13.389 -0.5440  0.0906 -0.6478
10012TIP3    H151527   3.766   5.527  13.344 -0.7191  0.4532 -0.0666
10012TIP3    H251528   3.813   5.477  13.479 -0.3468 -1.1024 -0.7514
10013TIP3   OH251529   2.243   2.543  13.528 -0.2725 -0.2606 -0.2138
10013TIP3    H151530   2.194   2.524  13.608  1.0771  0.9935  0.9664
10013TIP3    H251531   2.201   2.620  13.492  0.5235  0.5862  0.5942
10014TIP3   OH251532   1.257   2.184  13.150 -0.0510  0.0229 -0.1580
10014TIP3    H151533   1.315   2.126  13.199 -1.6271 -1.4899 -0.0021
10014TIP3    H251534   1.172   2.174  13.192 -0.7116  1.2685 -1.1271
10015TIP3   OH251535   1.499   1.790   6.312  0.7214  0.1662  0.0520
10015TIP3    H151536   1.467   1.757   6.229  1.5831 -0.4877 -0.0393
10015TIP3    H251537   1.481   1.884   6.310 -1.5474 -0.2271  0.2110
10016TIP3   OH251538   2.513   0.452   2.089  0.0531  0.0682  0.0302
10016TIP3    H151539   2.484   0.362   2.103 -1.3753  0.1385 -2.0712
10016TIP3    H251540   2.437   0.505   2.114  0.5136  0.6538  0.2269
10017TIP3   OH251541   2.052   1.095  14.019  0.1826 -0.6159  0.2443
10017TIP3    H151542   2.118   1.047  14.068  0.8348  2.4222  2.7048
10017TIP3    H251543   1.987   1.119  14.085 -0.9463  0.3757 -1.1821
10018TIP3   OH251544   3.623   0.106   4.789  0.4128  0.2599 -0.1362
10018TIP3    H151545   3.528   0.096   4.777  0.3087 -1.7088  1.7344
10018TIP3    H251546   3.633   0.151   4.872  1.1054 -0.2059  0.0468
10019TIP3   OH251547   2.918   4.288   5.346 -0.3875  0.1162 -0.3479
10019TIP3    H151548   2.887   4.377   5.365 -0.9477 -0.3016  0.8297
10019TIP3    H251549   2.853   4.231   5.387 -0.5766 -0.8631 -1.9596
10020TIP3   OH251550   3.760   4.375  15.613 -0.3252 -0.0841  0.2372
10020TIP3    H151551   3.737   4.340  15.699  3.1420 -2.7750  0.2934
10020TIP3    H251552   3.701   4.330  15.553 -1.6846  0.6041  0.9969
10021TIP3   OH251553   0.473   2.800   2.341 -1.3741 -1.2672 -0.4575
10021TIP3    H151554   0.563   2.828   2.358 -2.8289  3.2220  1.6874
10021TIP3    H251555   0.465   2.715   2.383  1.5795 -1.3293  0.1736
10022TIP3   OH251556   5.397   6.061  16.339  0.5832 -0.3520  0.1280
10022TIP3    H151557   5.382   6.026  16.427  0.2763 -1.9343 -0.5271
10022TIP3    H251558   5.386   5.986  16.281 -1.3464  1.0431 -1.4770
10023TIP3   OH251559   0.332   6.506   2.793  0.2296  0.2154 -0.1870
10023TIP3    H151560   0.298   6.551   2.715 -0.6158 -0.4737 -0.2268
10023TIP3    H251561   0.256   6.494   2.849  0.7008  0.0358  0.4276
10024TIP3   OH251562   2.216   3.261  11.199  0.4901 -0.0398 -0.0924
10024TIP3    H151563   2.172   3.345  11.199  1.8001  0.6764 -0.6236
10024TIP3    H251564   2.262   3.258  11.114  2.0504 -0.4165  0.7255
10025TIP3   OH251565   2.326   1.947  13.794  0.3518  0.5563  0.5439
10025TIP3    H151566   2.231   1.953  13.798  0.2283 -0.8175  0.1075
10025TIP3    H251567   2.344   1.884  13.724  1.6294  1.9396 -0.4417
10026TIP3   OH251568   3.139   1.637  14.134  0.0359  0.4893 -0.2881
10026TIP3    H151569   3.194   1.581  14.079  2.1839  1.0721  1.1194
10026TIP3    H251570   3.141   1.723  14.091 -3.2114 -0.3398 -2.4155
10027TIP3   OH251571   5.777   3.622   4.677  0.3420  0.3583  0.0296
10027TIP3    H151572   5.791   3.695   4.616  1.0069  0.9288  0.8382
10027TIP3    H251573   5.705   3.651   4.734 -0.2200 -0.1374 -0.4123
10028TIP3   OH251574   4.454   6.165  16.298  0.2767  0.2622  0.0435
10028TIP3    H151575   4.495   6.189  16.381  0.0019  0.9251 -0.0007
10028TIP3    H251576   4.362   6.153  16.320  0.2599  0.1254 -0.1039
10029TIP3   OH251577   0.120   1.922   4.747 -0.2899  0.4994  0.2372
10029TIP3    H151578   0.177   1.970   4.687  0.8878 -0.8472  0.2258
10029TIP3    H251579   0.138   1.960   4.833  0.1920  0.4692  0.1496
10030TIP3   OH251580   5.947   1.775   0.194 -0.1156 -0.7228 -0.3518
10030TIP3    H151581   6.024   1.746   0.242 -0.4670 -0.3878  0.4403
10030TIP3    H251582   5.930   1.863   0.227 -1.5404 -1.2377  0.3848
10031TIP3   OH251583   4.026   1.547   0.995  0.5971  0.3106 -0.1665
10031TIP3    H151584   3.942   1.575   1.030  0.1612 -0.1115 -0.8467
10031TIP3    H251585   4.074   1.515   1.071 -0.3100 -0.5668  0.0615
10032TIP3   OH251586   2.304   0.040  11.094  0.2846  0.2686  0.0865
10032TIP3    H151587   2.268   0.041  11.006  2.7526  2.1395 -1.0126
10032TIP3    H251588   2.278   0.123  11.133 -1.6231 -0.9364  1.6048
10033TIP3   OH251589   4.624   6.349   5.397  0.2349 -0.2205  0.2002
10033TIP3    H151590   4.691   6.404   5.438 -0.0816 -1.0519  1.9100
10033TIP3    H251591   4.657   6.259   5.407 -0.8739 -0.5966  0.5792
10034TIP3   OH251592   5.428   2.705   3.681 -0.1923  0.0081 -0.0794
10034TIP3    H151593   5.410   2.754   3.601 -0.0772 -0.2188 -0.2477
10034TIP3    H251594   5.510   2.658   3.662 -1.6666 -2.4147 -0.9708
10035TIP3   OH251595   0.850   5.476   5.669 -0.1510  0.0322  0.0610
10035TIP3    H151596   0.890   5.510   5.589  1.4342 -0.2271  0.7172
10035TIP3    H251597   0.822   5.387   5.645 -1.0417  0.4795 -0.6138
10036TIP3   OH251598   2.088   6.778  16.932  0.2286  0.0198 -0.0696
10036TIP3    H151599   2.091   6.749  17.023 -1.5584  1.1280  0.3721
10036TIP3    H251600   2.180   6.799  16.911  0.6479 -0.1596  1.4805
10037TIP3   OH251601   6.500   5.283  16.479 -0.5394 -0.3218  0.4626
10037TIP3    H151602   6.422   5.337  16.470 -0.8342 -1.0355 -1.9922
10037TIP3    H251603   6.493   5.218  16.409 -0.3796 -3.8230  3.3907
10038TIP3   OH251604   3.024   2.557  11.572 -0.1876  0.2579 -0.8019
10038TIP3    H151605   3.037   2.638  11.523  0.4520 -0.3026 -1.5797
10038TIP3    H251606   3.056   2.577  11.660 -0.0991  0.8679 -0.9669
10039TIP3   OH251607   6.650   1.860  16.925  0.0272  0.3238  0.2134
10039TIP3    H151608   6.708   1.931  16.897  1.9314 -1.6566 -1.1603
10039TIP3    H251609   6.618   1.821  16.844 -0.1154 -1.0574  0.9060
10040TIP3   OH251610   3.845   5.352  15.383  0.0116 -0.2581  0.3585
10040TIP3    H151611   3.893   5.277  15.348 -0.4071 -0.2074 -0.3320
10040TIP3    H251612   3.905   5.391  15.447  0.7519 -0.4041 -0.2291
10041TIP3   OH251613   5.273   0.265  15.446  0.0572 -0.2725  0.1509
10041TIP3    H151614   5.325   0.274  15.366  0.6425  1.6849  0.6807
10041TIP3    H251615   5.193   0.315  15.427  0.3276  0.4535  0.8583
10042TIP3   OH251616   5.207   1.644  16.281  0.5406  0.2909 -0.3784
10042TIP3    H151617   5.119   1.666  16.252  0.6154  0.5477 -0.4193
10042TIP3    H251618   5.227   1.710  16.347  0.8379  0.4551 -0.6283
10043TIP3   OH251619   6.144   2.144  15.591  0.1723 -0.2978  0.0825
10043TIP3    H151620   6.084   2.070  15.597  2.2879 -2.1313  0.1173
10043TIP3    H251621   6.153   2.175  15.681 -0.9024  0.1919  0.0349
10044TIP3   OH251622   2.137   1.977  13.568 -0.7482 -0.3219 -0.7620
10044TIP3    H151623   2.103   2.027  13.494 -1.7341 -1.9772 -1.4954
10044TIP3    H251624   2.210   2.029  13.601 -1.2771  1.2221 -1.9038
10045TIP3   OH251625   1.240   0.499  12.087 -0.0154 -0.8792 -0.6795
10045TIP3    H151626   1.253   0.558  12.161  1.9544 -1.3953 -0.5520
10045TIP3    H251627   1.209   0.417  12.126 -0.6691 -0.6160 -0.6323
10046TIP3   OH251628   0.789   2.995  16.068 -0.5071 -0.0359  0.3674
10046TIP3    H151629   0.797   2.911  16.113 -1.0034 -0.9594 -1.1843
10046TIP3    H251630   0.870   3.005  16.019 -1.3492 -0.7524 -1.2494
10047TIP3   OH251631   5.615   1.055  10.231  0.6461 -0.6462  0.1008
10047TIP3    H151632   5.569   0.979  10.197  0.4296 -0.0770 -0.9370
10047TIP3    H251633   5.589   1.127  10.174  2.9298 -0.3165 -0.6533
10048TIP3   OH251634   4.020   0.466   5.205 -0.0443  0.2489 -0.4477
10048TIP3    H151635   3.968   0.546   5.201 -1.7308 -0.8559 -1.4867
10048TIP3    H251636   3.990   0.414   5.131  0.8322 -1.4709  0.3545
10049TIP3   OH251637   3.948   3.880   0.562  0.4211  0.0897 -0.0770
10049TIP3    H151638   3.954   3.940   0.488 -1.1721 -1.2839 -1.3885
10049TIP3    H251639   3.924   3.796   0.523 -0.0213 -0.7881  1.9564
10050TIP3   OH251640   4.903   6.847  13.880 -0.0233  0.1510  0.3736
10050TIP3    H151641   4.839   6.915  13.861 -1.2386 -1.2244 -0.6278
10050TIP3    H251642   4.904   6.792  13.802  2.9517  0.5290  0.0372
10051TIP3   OH251643   1.147   5.217  10.724  0.3019  0.4214  0.1799
10051TIP3    H151644   1.064   5.245  10.685  0.2055  0.8728  0.7022
10051TIP3    H251645   1.135   5.124  10.741 -0.1282  0.5023  0.3265
10052TIP3   OH251646   5.185   0.097  11.092 -0.0992  0.0247  0.0758
10052TIP3    H151647   5.153   0.007  11.108  0.8080 -0.3760 -0.3124
10052TIP3    H251648   5.261   0.105  11.150 -0.2490  0.5881  0.1927
10053TIP3   OH251649   4.714   5.162  14.805  0.0245 -0.2608 -0.3722
10053TIP3    H151650   4.766   5.137  14.881  1.2836  2.2517 -0.2860
10053TIP3    H251651   4.776   5.160  14.732  0.0592  1.7412 -0.4601
10054TIP3   OH251652   2.419   6.013  17.034  0.4848  0.0347  0.1754
10054TIP3    H151653   2.451   6.052  16.952 -1.1259  0.7118 -0.1737
10054TIP3    H251654   2.385   5.927  17.008 -0.8056  0.5880 -0.0725
10055TIP3   OH251655   2.012   0.604  13.596  0.7953 -0.2668  0.2861
10055TIP3    H151656   2.024   0.699  13.589  0.8475 -0.3229 -0.4539
10055TIP3    H251657   2.072   0.568  13.531  1.3590 -0.8516  1.1159
10056TIP3   OH251658   2.141   4.929  14.190  0.2664 -0.2404  0.4407
10056TIP3    H151659   2.142   4.906  14.283  1.8709 -0.9751  0.2801
10056TIP3    H251660   2.076   4.871  14.151 -0.1360 -0.1999  1.0432
10057TIP3   OH251661   5.349   2.153   0.059 -0.1873  0.0531  0.1519
10057TIP3    H151662   5.400   2.072   0.052 -0.9223 -0.4184  0.1681
10057TIP3    H251663   5.411   2.222   0.036  0.9372 -0.3286  1.8439
10058TIP3   OH251664   5.494   4.912   5.949 -0.0880  0.5462 -0.5841
10058TIP3    H151665   5.576   4.890   5.993 -1.4730 -0.8689  1.5109
10058TIP3    H251666   5.489   4.850   5.876  0.5015  0.3297 -0.4456
10059TIP3   OH251667   4.218   0.568   1.861  0.1076 -0.3053  0.1570
10059TIP3    H151668   4.222   0.612   1.945  1.8499  0.1026 -0.0963
10059TIP3    H251669   4.194   0.637   1.799 -3.2219 -0.9895  0.4961
10060TIP3   OH251670   5.011   4.253  13.286 -0.4285  0.3105  0.2469
10060TIP3    H151671   5.101   4.222  13.274 -0.2741  0.6440  0.5404
10060TIP3    H251672   5.006   4.279  13.378 -1.1461 -0.7507  0.5383
10061TIP3   OH251673   5.132   2.307  16.723 -0.3595 -0.2767  0.2663
10061TIP3    H151674   5.148   2.237  16.660  1.0464 -0.5256  0.8773
10061TIP3    H251675   5.089   2.376  16.671 -0.2271 -0.9145 -0.7099
10062TIP3   OH251676   3.505   5.297   5.262  0.1993  0.4270 -0.1346
10062TIP3    H151677   3.486   5.302   5.355  3.0560 -0.7251  0.6036
10062TIP3    H251678   3.578   5.357   5.248  0.8749 -0.5956 -1.2659
10063TIP3   OH251679   4.235   6.468  16.432  0.0531  0.0699 -0.2546
10063TIP3    H151680   4.300   6.465  16.361  0.6540  0.5028  0.2640
10063TIP3    H251681   4.243   6.383  16.476  1.2578  0.6261  0.6534
10064TIP3   OH251682   6.094   6.151  10.901 -0.2843  0.0096  0.1145
10064TIP3    H151683   6.163   6.214  10.924 -0.9368  1.3010 -1.3326
10064TIP3    H251684   6.012   6.197  10.923 -0.7403 -1.2657  1.2228
10065TIP3   OH251685   1.947   1.823  11.506 -0.1298  0.0820 -0.3690
10065TIP3    H151686   1.888   1.888  11.542  1.1791  2.2317 -1.8953
10065TIP3    H251687   1.906   1.794  11.425 -0.2178 -0.2368 -0.2130
10066TIP3   OH251688   1.104   4.908  16.591  0.1294  0.2520  0.0230
10066TIP3    H151689   1.145   4.853  16.658 -0.1068  0.2051  0.1283
10066TIP3    H251690   1.066   4.981  16.640 -0.2747  0.0804 -0.0313
10067TIP3   OH251691   4.262   2.121  11.410 -0.5480 -0.1758  0.2472
10067TIP3    H151692   4.327   2.180  11.371 -0.2631  0.2839  1.3952
10067TIP3    H251693   4.183   2.175  11.416 -1.4202 -1.0405 -2.1400
10068TIP3   OH251694   0.661   1.368   4.159  0.0275 -0.6360  0.3460
10068TIP3    H151695   0.664   1.445   4.101  1.3492 -0.0858  1.0976
10068TIP3    H251696   0.725   1.307   4.121 -1.8553 -1.9363 -0.9371
10069TIP3   OH251697   5.396   6.242   3.808  0.5840  0.1134 -0.4587
10069TIP3    H151698   5.476   6.277   3.848  1.7484 -0.1242 -2.4168
10069TIP3    H251699   5.335   6.233   3.880  2.2757  0.4660  1.0994
10070TIP3   OH251700   0.322   5.181  14.715 -0.2747  0.0419  0.4086
10070TIP3    H151701   0.350   5.161  14.626  1.6718 -0.6834  1.1254
10070TIP3    H251702   0.373   5.122  14.770 -1.8933  0.0354  1.9830
10071TIP3   OH251703   3.129   0.521  13.690 -0.5520 -0.0097 -0.0132
10071TIP3    H151704   3.082   0.460  13.632 -0.1189  0.5699 -0.9905
10071TIP3    H251705   3.208   0.544  13.641  0.6674 -0.7816  1.4978
10072TIP3   OH251706   6.151   5.464  13.066  0.0713  0.2754  0.4565
10072TIP3    H151707   6.095   5.443  12.992 -0.3805 -1.7891  1.3190
10072TIP3    H251708   6.091   5.494  13.134  0.3811  1.2380  0.3165
10073TIP3   OH251709   4.281   0.148   3.365  0.2086  0.1710  0.2088
10073TIP3    H151710   4.261   0.240   3.382 -0.9448  0.3925 -1.9760
10073TIP3    H251711   4.376   0.141   3.377  0.6910  2.2148 -1.7588
10074TIP3   OH251712   0.279   1.571  14.705 -0.4780 -0.2384 -0.2099
10074TIP3    H151713   0.289   1.583  14.800  1.4891  0.5966 -0.4780
10074TIP3    H251714   0.368   1.574  14.671 -1.0578 -1.5859 -1.9958
10075TIP3   OH251715   2.197   1.174   1.275 -0.3603  0.7875 -0.1597
10075TIP3    H151716   2.106   1.150   1.291 -0.7830  2.8331  0.7374
10075TIP3    H251717   2.212   1.152   1.183 -1.4638 -0.3878 -0.0921
10076TIP3   OH251718   0.734   2.353   3.225 -0.4309 -0.5076  0.3204
10076TIP3    H151719   0.696   2.379   3.141  0.3057  0.6599  0.3178
10076TIP3    H251720   0.664   2.365   3.289 -0.1350  1.5695  0.3116
10077TIP3   OH251721   5.638   0.919  15.111 -0.0808  0.3431 -0.0024
10077TIP3    H151722   5.679   0.837  15.138  0.0496  0.9613  1.8125
10077TIP3    H251723   5.555   0.892  15.071  0.2157 -0.7003  0.0704
10078TIP3   OH251724   3.688   6.494   3.634  0.6614  0.3983  0.3261
10078TIP3    H151725   3.761   6.456   3.683 -0.4998 -1.0070  1.0246
10078TIP3    H251726   3.625   6.520   3.701 -0.4203 -0.4184 -0.3440
10079TIP3   OH251727   2.491   5.544  16.485 -0.0439 -0.5389 -0.1202
10079TIP3    H151728   2.518   5.621  16.535  0.5694 -1.6072  1.2942
10079TIP3    H251729   2.435   5.578  16.416 -0.4491  1.0821  0.9523
10080TIP3   OH251730   2.716   4.981  12.108 -0.4393 -0.7247 -0.1424
10080TIP3    H151731   2.703   5.070  12.142 -2.2277 -1.0591  0.1426
10080TIP3    H251732   2.797   4.987  12.057 -1.0368  1.3195 -0.9812
10081TIP3   OH251733   2.160   6.827   0.798  0.4674  0.1150 -0.3120
10081TIP3    H151734   2.147   6.837   0.892  0.7233 -0.2713 -0.2313
10081TIP3    H251735   2.216   6.901   0.773 -1.0957  1.2733 -0.5037
10082TIP3   OH251736   4.215   2.133   5.223  0.1558 -0.1176  0.0005
10082TIP3    H151737   4.188   2.203   5.163 -3.0170  0.9609  2.4042
10082TIP3    H251738   4.247   2.179   5.301 -1.7309 -1.2373  1.5139
10083TIP3   OH251739   1.114   3.331   1.827 -0.4987 -0.0201 -0.6069
10083TIP3    H151740   1.093   3.419   1.859  1.2895  0.3765 -0.4062
10083TIP3    H251741   1.206   3.318   1.850 -1.4764 -3.2870  2.3278
10084TIP3   OH251742   5.870   5.742  17.031 -0.2710  0.3392 -0.6282
10084TIP3    H151743   5.885   5.657  17.073  1.1026 -0.0083 -1.7652
10084TIP3    H251744   5.788   5.773  17.070  0.0562 -0.7313  1.0420
10085TIP3   OH251745   1.253   4.247  12.034  0.6190 -0.3259  0.6105
10085TIP3    H151746   1.200   4.194  12.094  1.3564 -2.7894 -0.7720
10085TIP3    H251747   1.339   4.251  12.076  1.5930 -3.3864 -0.8421
10086TIP3   OH251748   0.313   3.451   4.639  0.1518 -0.3054 -0.2894
10086TIP3    H151749   0.312   3.545   4.623 -1.5856 -0.2862 -0.2445
10086TIP3    H251750   0.315   3.412   4.551  2.0827 -0.2596 -0.2965
10087TIP3   OH251751   4.725   4.074  12.526 -0.0994 -0.0828 -0.7343
10087TIP3    H151752   4.694   4.159  12.494 -0.7761  0.1755  0.5688
10087TIP3    H251753   4.654   4.014  12.505  0.3694 -0.3527 -1.6339
10088TIP3   OH251754   0.351   4.705   5.075 -0.0899  0.1411 -0.3315
10088TIP3    H151755   0.324   4.681   4.986  0.9064 -1.8865 -0.1408
10088TIP3    H251756   0.446   4.714   5.069 -0.0704  0.5312  0.4421
10089TIP3   OH251757   1.630   1.277  16.299 -0.4704 -0.3575  0.0038
10089TIP3    H151758   1.686   1.330  16.355 -0.4398 -0.4929  0.1028
10089TIP3    H251759   1.549   1.267  16.348  0.3877 -2.4869  1.1296
10090TIP3   OH251760   4.828   6.526  14.944 -0.2402 -0.4853  0.2500
10090TIP3    H151761   4.773   6.605  14.943 -0.2906 -0.4680  1.7748
10090TIP3    H251762   4.785   6.467  14.882  0.1602  0.8913 -1.4200
10091TIP3   OH251763   5.661   4.602  14.984 -0.0494 -0.6417 -0.3389
10091TIP3    H151764   5.694   4.690  14.965  1.3145 -1.0233  0.1496
10091TIP3    H251765   5.650   4.601  15.079  0.5738 -1.1895 -0.2643
10092TIP3   OH251766   2.036   0.210  17.020  0.1147 -0.5164  0.1697
10092TIP3    H151767   2.119   0.241  16.983  0.2876  0.0193  0.9751
10092TIP3    H251768   1.969   0.261  16.975  0.2028 -1.1066 -0.6421
10093TIP3   OH251769   3.969   6.563  15.355  0.5184 -0.1563  0.6353
10093TIP3    H151770   4.012   6.573  15.440  1.4553  0.3447  0.1154
10093TIP3    H251771   3.916   6.642  15.346  1.7023  0.5997  0.0488
10094TIP3   OH251772   1.096   0.502   1.521  0.2712 -0.3049  0.0826
10094TIP3    H151773   1.119   0.441   1.591  2.1984  1.4562  1.1004
10094TIP3    H251774   1.179   0.525   1.481 -0.5429  0.6878 -1.1195
10095TIP3   OH251775   0.904   5.914  16.801 -0.4585  1.1266  0.3562
10095TIP3    H151776   0.901   5.983  16.868  1.1998  0.5306  1.1119
10095TIP3    H251777   0.822   5.867  16.811 -0.0464  0.7331  2.3886
10096TIP3   OH251778   0.609   6.577   3.929  0.1328  0.0194  0.0781
10096TIP3    H151779   0.659   6.533   3.997  2.8533 -0.3558 -1.9907
10096TIP3    H251780   0.567   6.507   3.880 -0.3479  0.1538  0.2965
10097TIP3   OH251781   5.767   1.857  11.532 -0.6642 -0.3587  0.1846
10097TIP3    H151782   5.728   1.929  11.482  1.2653  0.5156 -0.1401
10097TIP3    H251783   5.693   1.819  11.580 -1.9823  0.9237 -0.7285
10098TIP3   OH251784   2.336   0.206   6.038 -0.0568 -0.0332  0.1339
10098TIP3    H151785   2.409   0.184   6.096 -0.6363 -0.2562  0.7867
10098TIP3    H251786   2.368   0.186   5.950  0.6640 -0.1284  0.4145
10099TIP3   OH251787   4.484   1.583  11.326 -0.0842  0.1979  0.1931
10099TIP3    H151788   4.543   1.631  11.267 -0.6251  0.1966 -0.3589
10099TIP3    H251789   4.542   1.539  11.387  0.4739  0.5471 -0.0754
10100TIP3   OH251790   0.242   2.135  12.079  0.5688  0.1385 -0.4179
10100TIP3    H151791   0.238   2.151  11.984 -0.0973  0.7298 -0.2933
10100TIP3    H251792   0.299   2.205  12.112  0.6522  0.0399 -0.3509
10101TIP3   OH251793   1.465   6.260   2.012 -0.5086  0.3917 -0.4922
10101TIP3    H151794   1.445   6.205   2.087  3.2049 -0.6198 -0.0221
10101TIP3    H251795   1.422   6.217   1.938 -1.3403 -0.5649  0.5137
10102TIP3   OH251796   5.212   0.458  15.799 -0.6677 -0.1281  0.4831
10102TIP3    H151797   5.186   0.493  15.884 -1.0412  0.1928  0.2353
10102TIP3    H251798   5.224   0.535  15.743  4.4703  0.2081  1.5209
10103TIP3   OH251799   3.889   2.899  15.509 -0.7056 -0.0803  0.2861
10103TIP3    H151800   3.933   2.875  15.427 -1.2330  2.7054 -0.9263
10103TIP3    H251801   3.961   2.911  15.572 -0.0731  0.2962 -0.4932
10104TIP3   OH251802   0.718   5.552  14.579  0.0319  0.1694  0.5449
10104TIP3    H151803   0.692   5.633  14.623  0.5766  1.4015 -1.3188
10104TIP3    H251804   0.814   5.553  14.580  0.1335 -1.8121  2.8175
10105TIP3   OH251805   6.111   5.897  12.501 -0.3921  0.3110 -0.0567
10105TIP3    H151806   6.174   5.940  12.443  1.5557 -1.5495  0.5528
10105TIP3    H251807   6.124   5.937  12.586 -0.0226 -0.0600  0.0646
10106TIP3   OH251808   1.139   3.913  11.184  0.0294 -0.1015  0.2571
10106TIP3    H151809   1.200   3.979  11.217 -1.5072  0.9466  1.0764
10106TIP3    H251810   1.119   3.941  11.095  1.7569 -1.2307 -0.5644
10107TIP3   OH251811   5.561   0.313   0.617 -0.0279  0.3585  0.0672
10107TIP3    H151812   5.609   0.393   0.597  1.5038 -0.6711 -0.5145
10107TIP3    H251813   5.556   0.311   0.713  0.1920  0.9748  0.0956
10108TIP3   OH251814   0.202   0.019   3.825 -0.7694  0.3334 -0.6271
10108TIP3    H151815   0.213  -0.013   3.735 -0.4600 -0.9105 -0.1737
10108TIP3    H251816   0.231  -0.054   3.880 -0.6441  1.1905  0.4866
10109TIP3   OH251817   1.141   2.536   5.258 -0.0119 -0.3088 -0.1762
10109TIP3    H151818   1.167   2.585   5.181  0.5207 -1.4006 -0.7131
10109TIP3    H251819   1.049   2.514   5.243  0.3734 -1.4294 -1.0234
10110TIP3   OH251820   5.811   2.175   4.268  0.2834 -0.5329  0.3280
10110TIP3    H151821   5.849   2.172   4.355 -0.6938 -0.0598  0.7821
10110TIP3    H251822   5.840   2.258   4.231  1.8151 -1.3161 -0.3512
10111TIP3   OH251823   2.472   2.825  14.553 -0.0982 -0.0549 -0.6251
10111TIP3    H151824   2.502   2.912  14.526  0.2775 -0.2282 -0.7678
10111TIP3    H251825   2.522   2.806  14.633 -1.1728  0.4384  0.2005
10112TIP3   OH251826   0.580   3.898   2.814 -0.2389 -0.4008 -0.0327
10112TIP3    H151827   0.570   3.919   2.722 -0.2616  0.0948  0.0782
10112TIP3    H251828   0.612   3.807   2.815 -0.3148 -0.4347 -0.5199
10113TIP3   OH251829   4.162   2.717   6.477 -0.3487  0.1513 -0.6818
10113TIP3    H151830   4.133   2.806   6.497 -1.6056 -0.2074 -0.8464
10113TIP3    H251831   4.082   2.669   6.460  0.2798 -1.1752  0.0035
10114TIP3   OH251832   1.337   0.573   1.407  0.0876  0.1232 -0.0749
10114TIP3    H151833   1.400   0.636   1.372  2.4743 -2.1328 -0.2019
10114TIP3    H251834   1.300   0.531   1.329  0.7221 -0.6127  0.0069
10115TIP3   OH251835   5.750   5.078  15.470  0.0718  0.4533 -0.3040
10115TIP3    H151836   5.841   5.107  15.463  0.6539 -1.1518  0.0982
10115TIP3    H251837   5.720   5.071  15.379  0.1074  1.6451 -0.4218
10116TIP3   OH251838   6.182   2.643  15.671 -0.5491 -0.3212  0.0170
10116TIP3    H151839   6.265   2.618  15.712  0.0990 -0.4676 -1.3369
10116TIP3    H251840   6.120   2.650  15.744  0.5249 -0.7168  0.9896
10117TIP3   OH251841   1.082   0.842  16.238  0.5048 -0.2940  0.3233
10117TIP3    H151842   1.070   0.918  16.182 -2.0065 -0.6456  0.2494
10117TIP3    H251843   1.119   0.775  16.181 -0.2192 -0.0592 -0.4442
10118TIP3   OH251844   2.760   6.297  13.642 -0.0981  0.0885  0.2139
10118TIP3    H151845   2.702   6.345  13.583 -0.8942  0.4473  1.2514
10118TIP3    H251846   2.702   6.239  13.692  0.7132 -1.1449 -0.2216
10119TIP3   OH251847   1.380   3.849   5.715 -0.6218 -0.1375 -0.5461
10119TIP3    H151848   1.319   3.834   5.787 -0.7309  1.1259 -0.3482
10119TIP3    H251849   1.454   3.791   5.732 -2.4443 -3.0613 -1.7157
10120TIP3   OH251850   1.121   2.637  12.610  0.4556 -0.2490 -0.5223
10120TIP3    H151851   1.045   2.654  12.556  0.9768 -0.1703 -1.2411
10120TIP3    H251852   1.156   2.554  12.578  0.4220 -0.5125  0.0987
10121TIP3   OH251853   3.999   2.602   5.228 -0.2977  0.3119  0.0736
10121TIP3    H151854   4.024   2.656   5.153  2.3314 -0.8455  0.0110
10121TIP3    H251855   3.981   2.664   5.298  0.2414  1.3442 -0.6677
10122TIP3   OH251856   5.706   5.707  10.347  0.1465 -0.8358 -1.0271
10122TIP3    H151857   5.729   5.758  10.269 -0.3523 -0.0205 -0.6503
10122TIP3    H251858   5.791   5.682  10.384  0.6359  2.7514  0.7513
10123TIP3   OH251859   2.514   0.657   3.781  0.1700  0.0203  0.3469
10123TIP3    H151860   2.490   0.634   3.871 -0.5138  2.2317  0.7934
10123TIP3    H251861   2.484   0.583   3.728 -2.0171 -0.0925  1.6195
10124TIP3   OH251862   1.313   2.623  13.888  0.0006 -0.3155 -0.0213
10124TIP3    H151863   1.257   2.558  13.931  2.4761 -0.9777  2.5540
10124TIP3    H251864   1.357   2.667  13.961  1.6795  1.1946 -1.8566
10125TIP3   OH251865   4.732   0.653  14.802  0.5214  0.3883 -0.3844
10125TIP3    H151866   4.647   0.628  14.764  0.2237  0.4971  0.1934
10125TIP3    H251867   4.780   0.692  14.729 -0.2994  1.2230 -0.5136
10126TIP3   OH251868   1.224   3.571   0.172  0.2904 -0.1892 -0.1346
10126TIP3    H151869   1.206   3.627   0.096 -0.3156 -0.8534 -0.4907
10126TIP3    H251870   1.137   3.554   0.210  0.4584 -0.9487 -0.0767
10127TIP3   OH251871   1.537   0.877  17.025  0.1544 -0.3248  0.7944
10127TIP3    H151872   1.493   0.961  17.016  1.1343  0.0208 -1.3340
10127TIP3    H251873   1.470   0.819  17.061 -1.5196  0.5884 -0.6975
10128TIP3   OH251874   1.237   0.440   1.168 -0.5797  0.1354  0.7463
10128TIP3    H151875   1.146   0.414   1.157  0.1581 -2.2126 -0.4252
10128TIP3    H251876   1.257   0.493   1.091 -0.1428 -2.0421 -0.7258
10129TIP3   OH251877   5.101   0.279  11.427 -0.6943 -0.1232 -0.1100
10129TIP3    H151878   5.164   0.346  11.400 -3.0253  2.2436 -0.0897
10129TIP3    H251879   5.149   0.224  11.489  1.8068  0.4709 -1.3995
10130TIP3   OH251880   4.932   0.720  12.752 -0.0262 -0.0360 -0.2392
10130TIP3    H151881   4.863   0.773  12.790  0.7890  0.0749  1.1510
10130TIP3    H251882   4.887   0.646  12.711 -1.1766  1.6192 -2.1464
10131TIP3   OH251883   0.083   0.609  11.874 -0.5271  0.2071 -0.0502
10131TIP3    H151884   0.001   0.644  11.910 -1.5821 -0.7994 -1.3897
10131TIP3    H251885   0.112   0.544  11.939 -0.0196  1.5253  1.0947
10132TIP3   OH251886   6.846   4.370   4.392 -0.2617 -0.5402  0.1438
10132TIP3    H151887   6.880   4.300   4.337 -0.4731  0.2430 -1.0110
10132TIP3    H251888   6.906   4.443   4.379  0.2686 -0.6384  1.7553
10133TIP3   OH251889   0.223   5.360  15.447  0.5212 -0.1084  0.6563
10133TIP3    H151890   0.307   5.341  15.406 -0.0913 -0.7747 -0.3527
10133TIP3    H251891   0.225   5.455  15.464  0.6059  0.3352 -1.4909
10134TIP3   OH251892   5.225   3.529   4.352  0.3767  0.2112 -0.6242
10134TIP3    H151893   5.288   3.581   4.402  0.2437 -1.5590  1.5515
10134TIP3    H251894   5.169   3.594   4.309  0.6779  1.8720  1.3251
10135TIP3   OH251895   5.629   3.659  16.928  0.0445 -0.0595 -0.1127
10135TIP3    H151896   5.611   3.744  16.888 -1.7214 -0.0839  0.5527
10135TIP3    H251897   5.649   3.679  17.019  2.3036 -0.1643 -0.5169
10136TIP3   OH251898   6.169   0.601  14.138  0.4812 -0.2049  0.0978
10136TIP3    H151899   6.097   0.665  14.137 -0.4313 -1.0859 -3.2794
10136TIP3    H251900   6.247   0.653  14.119  0.0429  0.1661 -0.7254
10137TIP3   OH251901   0.417   3.468  10.653 -0.1869 -0.4380  0.0816
10137TIP3    H151902   0.473   3.527  10.703 -1.6714  0.1237  1.1829
10137TIP3    H251903   0.406   3.511  10.568  0.0794  0.0498  0.2897
10138TIP3   OH251904   0.509   6.837   4.525 -0.2125 -0.1916 -0.6887
10138TIP3    H151905   0.496   6.920   4.572 -0.3931 -0.3142 -0.5164
10138TIP3    H251906   0.423   6.795   4.528 -0.0376 -0.5406 -0.4739
10139TIP3   OH251907   0.618   3.326  11.283 -0.7077 -0.2758 -0.7216
10139TIP3    H151908   0.604   3.418  11.258  1.2720  0.4481  0.5800
10139TIP3    H251909   0.680   3.293  11.218 -1.3948 -0.7133 -1.1698
10140TIP3   OH251910   3.007   6.695  12.333  0.2577  0.6644  0.1150
10140TIP3    H151911   3.102   6.696  12.317  0.4336 -1.0252  0.8794
10140TIP3    H251912   2.998   6.670  12.425 -0.9217 -2.5913 -0.7403
10141TIP3   OH251913   5.013   6.086  16.007 -0.6966 -0.0593 -0.5566
10141TIP3    H151914   4.942   6.151  16.012 -1.1262 -0.5325 -0.3846
10141TIP3    H251915   4.968   6.003  15.992 -0.0995 -0.2056 -1.6139
10142TIP3   OH251916   6.588   1.427   1.903 -0.2599  0.2708 -0.0941
10142TIP3    H151917   6.503   1.411   1.862  0.1545  0.2177 -0.9641
10142TIP3    H251918   6.635   1.344   1.897  0.2753  0.6018 -0.6706
10143TIP3   OH251919   6.780   6.810  11.837 -0.6311  0.6526  0.3370
10143TIP3    H151920   6.757   6.903  11.837 -1.3558  0.4843 -0.5939
10143TIP3    H251921   6.835   6.798  11.760  0.5897  0.5536  1.1890
10144TIP3   OH251922   5.427   1.472  10.255 -0.1541  0.2168 -0.0012
10144TIP3    H151923   5.510   1.475  10.303  0.5416  1.2889 -1.2056
10144TIP3    H251924   5.413   1.563  10.227  1.0933 -0.7338 -4.4444
10145TIP3   OH251925   3.733   3.884   2.245 -0.3816  0.0504 -0.3934
10145TIP3    H151926   3.677   3.920   2.314  0.1012 -0.9711  0.5632
10145TIP3    H251927   3.822   3.902   2.276 -0.1602 -0.2749 -0.8402
10146TIP3   OH251928   4.933   5.963   0.575  0.3792  0.4925  0.3598
10146TIP3    H151929   4.911   6.027   0.643 -0.7268 -1.4159  1.9394
10146TIP3    H251930   4.938   5.879   0.622 -0.9358 -1.0244 -1.9890
10147TIP3   OH251931   1.353   6.738   4.068 -0.0960 -0.6271 -0.2001
10147TIP3    H151932   1.268   6.774   4.042 -0.7061 -0.6768  1.5876
10147TIP3    H251933   1.416   6.803   4.039 -0.7484 -0.5048 -1.4003
10148TIP3   OH251934   4.134   6.789   1.204 -0.4099 -0.3021  0.0018
10148TIP3    H151935   4.221   6.822   1.225 -0.0868 -0.1593 -1.4659
10148TIP3    H251936   4.085   6.797   1.286  1.1442 -1.0575  1.0509
10149TIP3   OH251937   6.694   2.663  13.799  0.3145  0.3390 -0.2233
10149TIP3    H151938   6.733   2.747  13.823 -0.4680  0.3826  1.0026
10149TIP3    H251939   6.634   2.685  13.727 -0.0893  0.9027  0.2669
10150TIP3   OH251940   4.413   0.812  15.146 -0.2873  0.2421  1.0497
10150TIP3    H151941   4.461   0.884  15.186 -0.3181  0.4928  0.6449
10150TIP3    H251942   4.478   0.766  15.092 -0.6614  1.0819 -0.1661
10151TIP3   OH251943   4.287   5.258   4.390 -0.0006 -0.4810  0.6345
10151TIP3    H151944   4.320   5.211   4.314  0.0367  0.7164 -0.1211
10151TIP3    H251945   4.222   5.200   4.429  0.0185 -1.1289 -0.2841
10152TIP3   OH251946   6.817   5.603  13.110  0.6839  0.7898  0.4097
10152TIP3    H151947   6.896   5.575  13.156  1.0460  0.5875 -0.3228
10152TIP3    H251948   6.814   5.548  13.032 -1.5010 -0.9826  1.5992
10153TIP3   OH251949   3.052   6.607  10.580  0.3926 -0.4617 -0.7962
10153TIP3    H151950   2.980   6.652  10.624 -0.1547  0.1009 -2.1981
10153TIP3    H251951   3.123   6.606  10.644 -0.6856 -0.5851  0.4399
10154TIP3   OH251952   5.771   4.255  14.102  0.0319 -0.1109  0.4926
10154TIP3    H151953   5.703   4.188  14.107  1.5278 -1.6151  2.6595
10154TIP3    H251954   5.848   4.214  14.142  1.6186  2.2180  0.0335
10155TIP3   OH251955   5.114   1.734   2.663 -0.2948 -0.4157  1.0014
10155TIP3    H151956   5.162   1.809   2.627  0.1037  0.2597  2.8136
10155TIP3    H251957   5.027   1.769   2.684 -1.2125 -1.3002 -1.0180
10156TIP3   OH251958   6.512   0.351  13.540 -0.7173  0.0070 -0.4287
10156TIP3    H151959   6.525   0.432  13.589  1.1409 -0.5824  0.1320
10156TIP3    H251960   6.581   0.352  13.474 -0.7458 -1.0672 -0.4861
10157TIP3   OH251961   5.005   5.392   1.038  0.1620  0.3785  0.1397
10157TIP3    H151962   5.050   5.314   1.071 -0.6740 -0.4407 -0.5782
10157TIP3    H251963   4.929   5.403   1.096  0.8720  1.3375  0.9178
10158TIP3   OH251964   0.633   4.539  12.056  0.2552 -0.5449 -0.4145
10158TIP3    H151965   0.569   4.529  11.986 -0.2337  0.3808 -0.1143
10158TIP3    H251966   0.590   4.595  12.121  1.2273 -0.2167 -0.0289
10159TIP3   OH251967   0.171   6.514   0.043  0.0166  0.1587 -0.2543
10159TIP3    H151968   0.144   6.595   0.086  1.3239 -0.4274  1.8117
10159TIP3    H251969   0.101   6.452   0.061 -0.1608  0.3495 -0.2929
10160TIP3   OH251970   1.123   3.734  12.625  0.0266 -0.3050  0.3134
10160TIP3    H151971   1.176   3.707  12.700 -1.1948  0.8097  1.6328
10160TIP3    H251972   1.033   3.732  12.657 -0.5057  0.3998 -1.0549
10161TIP3   OH251973   3.349   6.463   2.644  0.0199  0.2779  0.2873
10161TIP3    H151974   3.421   6.513   2.605 -1.4920  1.1960 -1.4543
10161TIP3    H251975   3.379   6.372   2.640  0.5568  0.4867 -1.7385
10162TIP3   OH251976   3.980   5.456   0.996 -0.0747  0.1892 -0.4685
10162TIP3    H151977   3.963   5.483   0.906 -1.8277 -0.3263 -0.3139
10162TIP3    H251978   3.939   5.370   1.004 -1.2160  0.8467  1.2199
10163TIP3   OH251979   0.835   4.599  10.806  0.4014  0.4012 -0.2184
10163TIP3    H151980   0.852   4.690  10.784 -2.5435  1.0289 -0.2492
10163TIP3    H251981   0.762   4.574  10.749  0.5704 -1.7062  0.4055
10164TIP3   OH251982   3.429   5.662   5.438  0.3187 -0.1294 -0.2434
10164TIP3    H151983   3.510   5.671   5.388 -0.0570  0.6366 -0.7146
10164TIP3    H251984   3.366   5.718   5.394  0.0237  0.7146  1.1692
10165TIP3   OH251985   0.733   3.437  15.169  0.4971 -0.2196  0.6535
10165TIP3    H151986   0.771   3.506  15.115 -1.1735  0.7480  0.6669
10165TIP3    H251987   0.708   3.368  15.107  0.9194 -0.2301  0.4904
10166TIP3   OH251988   5.925   2.976  15.878 -0.1952  0.0065  0.3379
10166TIP3    H151989   5.999   3.034  15.858 -0.4978  0.3270  0.1450
10166TIP3    H251990   5.913   2.984  15.973 -2.1238  2.5819 -0.0139
10167TIP3   OH251991   1.720   2.706  15.980 -0.0114 -0.4134 -0.0164
10167TIP3    H151992   1.660   2.679  15.911 -0.1985  1.2267 -0.5250
10167TIP3    H251993   1.696   2.652  16.055 -0.2180 -1.7849 -1.0184
10168TIP3   OH251994   4.240   5.604  12.748 -0.1602 -0.1084 -0.0741
10168TIP3    H151995   4.194   5.672  12.698  1.0048  0.9987  0.3134
10168TIP3    H251996   4.299   5.564  12.685  1.0965  1.0916  0.2753
10169TIP3   OH251997   5.596   5.495   0.918  0.4088 -0.1296  0.2925
10169TIP3    H151998   5.544   5.456   0.848  0.2990  0.1300  0.2267
10169TIP3    H251999   5.679   5.448   0.916  0.0538 -0.7784  0.6252
10170TIP3   OH252000   6.328   4.197  11.655  0.2262  0.5686 -0.0725
10170TIP3    H152001   6.346   4.139  11.729 -0.7807 -2.3974 -1.9805
10170TIP3    H252002   6.410   4.243  11.640  0.9642 -0.0407  1.7659
10171TIP3   OH252003   1.860   6.798  10.861  0.8573 -0.3238  0.3295
10171TIP3    H152004   1.864   6.871  10.798  2.1944 -1.3158 -0.7883
10171TIP3    H252005   1.786   6.744  10.831  1.1163 -0.4792 -0.0283
10172TIP3   OH252006   5.233   4.715  11.138  0.0475  0.4998 -0.9980
10172TIP3    H152007   5.142   4.694  11.161  0.1393  1.1074 -0.0308
10172TIP3    H252008   5.234   4.713  11.043 -0.6414 -0.9175 -0.9961
10173TIP3   OH252009   3.180   0.106  15.157 -0.6715 -0.2730  0.0249
10173TIP3    H152010   3.151   0.197  15.155 -2.1485 -0.7400 -0.7762
10173TIP3    H252011   3.111   0.059  15.204  0.4755 -0.8714  1.1853
10174TIP3   OH252012   2.810   0.655  13.268 -0.3067  0.0849  0.1781
10174TIP3    H152013   2.723   0.650  13.307 -0.3143  0.0301  0.1543
10174TIP3    H252014   2.811   0.587  13.201 -0.1091 -0.1848  0.4468
10175TIP3   OH252015   0.436   2.670  12.875  0.5727  0.4750 -0.1995
10175TIP3    H152016   0.484   2.588  12.891 -0.1959  0.1246  0.4178
10175TIP3    H252017   0.416   2.668  12.781  0.6652  0.0175 -0.2128
10176TIP3   OH252018   4.305   4.853  16.532 -0.2841 -0.1179 -0.0252
10176TIP3    H152019   4.295   4.888  16.444  0.1608 -1.2700 -0.5533
10176TIP3    H252020   4.400   4.849  16.546 -0.3520  0.2517  0.5969
10177TIP3   OH252021   0.553   5.645   4.735 -0.1800  0.2537  0.0920
10177TIP3    H152022   0.562   5.715   4.800 -1.0068 -0.2127  0.7321
10177TIP3    H252023   0.498   5.580   4.778  0.3642 -0.6743 -0.5975
10178TIP3   OH252024   0.581   5.322  13.077  0.0093  1.0450 -0.1108
10178TIP3    H152025   0.552   5.402  13.123 -0.2855  0.0214  1.5821
10178TIP3    H252026   0.539   5.327  12.991  0.1998  2.8286 -0.1390
10179TIP3   OH252027   2.459   1.373  15.521  0.3290  0.2159  0.2538
10179TIP3    H152028   2.475   1.335  15.608  0.6144  0.6887  0.4093
10179TIP3    H252029   2.539   1.354  15.472  0.6032  0.8931  0.4323
10180TIP3   OH252030   5.655   2.244   0.727  0.7246 -0.3639 -0.0998
10180TIP3    H152031   5.733   2.229   0.781 -0.2650 -2.1453  0.9407
10180TIP3    H252032   5.658   2.174   0.661  0.9386  0.6677 -1.2114
10181TIP3   OH252033   4.659   3.854  11.451 -0.7826 -0.2015 -0.4077
10181TIP3    H152034   4.612   3.905  11.385 -0.3142  0.4158 -0.2713
10181TIP3    H252035   4.592   3.797  11.490 -0.8258 -1.5893 -2.3466
10182TIP3   OH252036   0.385   1.880  15.450  0.2459  0.3796  0.3672
10182TIP3    H152037   0.454   1.935  15.414  0.4903  0.5369  1.0716
10182TIP3    H252038   0.430   1.821  15.510  0.1868 -1.4685 -1.2906
10183TIP3   OH252039   6.566   1.313   6.229 -0.4447  0.2574  0.0187
10183TIP3    H152040   6.564   1.391   6.284  0.5317  1.1659 -1.1746
10183TIP3    H252041   6.474   1.287   6.222 -0.6043  0.1841  1.9317
10184TIP3   OH252042   1.860   0.996   3.109 -0.0221  0.6764 -0.0221
10184TIP3    H152043   1.780   1.047   3.123 -0.1519  0.0430  1.7713
10184TIP3    H252044   1.833   0.905   3.120  1.1927  0.5211  2.1907
10185TIP3   OH252045   2.085   0.475   5.864 -0.2438 -0.8580  0.2342
10185TIP3    H152046   2.039   0.398   5.829 -1.5173 -0.9886  2.0375
10185TIP3    H252047   2.017   0.542   5.871  0.3312 -0.3242  0.8301
10186TIP3   OH252048   1.820   1.668   1.312 -0.4215  0.0032 -0.2919
10186TIP3    H152049   1.734   1.632   1.333  0.7760 -1.3232  2.9227
10186TIP3    H252050   1.855   1.607   1.247 -1.2176 -0.4300 -0.3326
10187TIP3   OH252051   4.454   2.377  11.758  0.9851 -0.0785  0.1946
10187TIP3    H152052   4.454   2.333  11.673 -2.0823 -0.1400  0.0955
10187TIP3    H252053   4.453   2.305  11.822  0.9299 -0.0738  0.1991
10188TIP3   OH252054   1.522   4.753  14.576  0.1371  0.1710  0.1481
10188TIP3    H152055   1.607   4.772  14.537  1.5265 -1.4276  2.2149
10188TIP3    H252056   1.493   4.674  14.530 -0.1826  0.6122 -0.4278
10189TIP3   OH252057   4.948   5.762   0.753 -0.3593 -0.0137 -0.3676
10189TIP3    H152058   4.978   5.671   0.742 -1.1605 -0.0019 -4.5422
10189TIP3    H252059   4.860   5.753   0.789  0.1408 -0.7589  0.7296
10190TIP3   OH252060   4.725   6.655  11.798 -0.1012  0.1493 -0.3838
10190TIP3    H152061   4.736   6.562  11.779 -1.5977  0.0839 -1.0417
10190TIP3    H252062   4.694   6.658  11.888 -1.7558 -0.1393 -0.9075
10191TIP3   OH252063   1.440   4.704  15.702 -0.7513  0.0655  0.2580
10191TIP3    H152064   1.377   4.650  15.654 -0.7621  0.1306  0.1995
10191TIP3    H252065   1.471   4.647  15.773 -1.6432  0.3586  0.9126
10192TIP3   OH252066   4.564   0.287  13.371  0.2436 -0.4528  0.3848
10192TIP3    H152067   4.469   0.303  13.367  0.5462  1.6814  0.4216
10192TIP3    H252068   4.594   0.346  13.440  1.7874 -0.0474 -0.5930
10193TIP3   OH252069   2.431   1.441  13.743 -0.5080  0.2358  0.1376
10193TIP3    H152070   2.431   1.425  13.648  1.1684  1.7268 -0.1707
10193TIP3    H252071   2.436   1.354  13.782  1.2325 -0.3526 -1.2369
10194TIP3   OH252072   1.426   6.584   4.971 -0.1388 -0.3243 -0.0371
10194TIP3    H152073   1.457   6.504   4.928 -0.3073 -0.5491  0.2552
10194TIP3    H252074   1.350   6.611   4.920 -0.4728 -0.7138  0.2445
10195TIP3   OH252075   0.014   4.453   3.517  0.3032  0.5020  1.0974
10195TIP3    H152076  -0.034   4.409   3.588 -0.1540 -0.9669 -0.0817
10195TIP3    H252077   0.004   4.546   3.536 -0.6645  0.1592  2.4148
10196TIP3   OH252078   5.210   4.728  14.606 -0.1507  0.0171  0.1160
10196TIP3    H152079   5.172   4.643  14.580 -1.0443  0.6076 -0.5680
10196TIP3    H252080   5.302   4.721  14.582  0.0413 -1.1454  1.0519
10197TIP3   OH252081   2.509   2.291  10.464 -0.0342 -0.4364 -0.2192
10197TIP3    H152082   2.562   2.299  10.543  1.8144 -0.8014 -1.3824
10197TIP3    H252083   2.488   2.382  10.441 -0.6478 -0.3261  0.6834
10198TIP3   OH252084   4.299   1.861  11.874 -0.9949  0.1800 -0.2028
10198TIP3    H152085   4.322   1.770  11.856 -1.8451 -0.1716  0.4269
10198TIP3    H252086   4.258   1.892  11.793 -1.3169 -0.2077 -0.1901
10199TIP3   OH252087   4.811   1.821  15.125 -0.2083 -0.3977 -0.1985
10199TIP3    H152088   4.731   1.872  15.138  0.5821  0.4359  1.7116
10199TIP3    H252089   4.781   1.731  15.115 -1.5255  0.1564 -2.0176
10200TIP3   OH252090   3.910   3.921  12.307  0.4263  0.4721 -0.1703
10200TIP3    H152091   3.844   3.893  12.244  0.1744  1.0729 -0.1747
10200TIP3    H252092   3.906   3.855  12.376 -0.5632  0.7889  0.0949
10201TIP3   OH252093   4.875   2.146  15.524  0.0034  0.2081 -0.1151
10201TIP3    H152094   4.812   2.211  15.558 -1.8790 -1.8124  0.5376
10201TIP3    H252095   4.844   2.063  15.561  0.7110 -1.4594 -3.0256
10202TIP3   OH252096   2.274   4.903   5.296 -0.3668  0.2084  0.4177
10202TIP3    H152097   2.264   4.900   5.201 -0.0203 -0.9274  0.4095
10202TIP3    H252098   2.353   4.853   5.313  0.1698  1.2994  1.2302
10203TIP3   OH252099   4.919   2.199   4.270 -0.0316 -0.6428  0.1704
10203TIP3    H152100   4.973   2.243   4.205  0.1976 -1.0488  0.0918
10203TIP3    H252101   4.840   2.173   4.223  0.1328 -0.9330  0.0562
10204TIP3   OH252102   0.376   6.738   2.434 -0.8825 -0.2200 -0.0658
10204TIP3    H152103   0.394   6.832   2.429 -0.8773 -0.2926 -2.1747
10204TIP3    H252104   0.291   6.733   2.479  0.0516  0.6297  1.9009
10205TIP3   OH252105   3.735   2.972   1.604  0.0689  0.1126  0.1351
10205TIP3    H152106   3.769   2.927   1.681 -2.9435 -2.7088  0.0683
10205TIP3    H252107   3.782   2.934   1.531  0.8908  0.6529  0.3711
10206TIP3   OH252108   6.289   4.463   5.609 -0.1098  0.5231 -0.4475
10206TIP3    H152109   6.284   4.413   5.528 -2.5504 -0.2067  0.0633
10206TIP3    H252110   6.372   4.437   5.649 -0.8885 -2.5765 -0.5836
10207TIP3   OH252111   3.962   1.828  13.894 -0.0544 -0.0524  1.1422
10207TIP3    H152112   4.046   1.785  13.909  0.4245 -0.1347 -1.2947
10207TIP3    H252113   3.944   1.813  13.801 -1.0729  2.8594  0.7614
10208TIP3   OH252114   0.787   3.055   1.152 -0.9251 -0.0504  0.3671
10208TIP3    H152115   0.846   3.125   1.125 -1.1840  0.2354  0.5339
10208TIP3    H252116   0.816   3.032   1.240  0.8666 -1.9945 -0.6294
10209TIP3   OH252117   4.179   2.964   1.638 -0.3782 -0.1672 -0.0084
10209TIP3    H152118   4.256   3.020   1.645  0.3251 -1.0639 -0.4238
10209TIP3    H252119   4.151   2.949   1.729  0.0633 -0.0066  0.1543
10210TIP3   OH252120   3.103   0.252  11.486 -0.0103  0.3259 -0.0062
10210TIP3    H152121   3.150   0.180  11.444 -2.2059 -0.0670 -1.9657
10210TIP3    H252122   3.108   0.324  11.424 -0.4164  0.8854  0.5974
10211TIP3   OH252123   1.927   6.881   4.170  0.7389  0.1718  0.0738
10211TIP3    H152124   1.898   6.956   4.118  1.2225  0.4088  0.1405
10211TIP3    H252125   1.851   6.823   4.174  0.7761  0.0100 -1.1426
10212TIP3   OH252126   6.741   3.756  15.424 -0.0800 -0.2335  0.1947
10212TIP3    H152127   6.801   3.714  15.362  0.8756 -1.0690  1.6339
10212TIP3    H252128   6.655   3.745  15.385  0.6878  1.7148 -2.3574
10213TIP3   OH252129   3.590   1.876  16.891 -0.1010 -0.5196 -0.0818
10213TIP3    H152130   3.574   1.844  16.979 -0.3716  0.1368  0.1085
10213TIP3    H252131   3.513   1.929  16.869  1.6144  2.5951  0.8085
10214TIP3   OH252132   4.262   0.568   1.515  0.5322  0.4417 -0.3915
10214TIP3    H152133   4.274   0.505   1.443  0.9118 -0.3022  0.3133
10214TIP3    H252134   4.167   0.582   1.519  0.3561 -0.7740  0.0139
10215TIP3   OH252135   1.171   2.159   2.574  0.8537 -0.2388 -0.2770
10215TIP3    H152136   1.150   2.087   2.633  0.1631  1.3634  1.5443
10215TIP3    H252137   1.091   2.173   2.523  0.2817  0.4662  0.7682
10216TIP3   OH252138   1.100   4.579   0.018  0.0716 -0.3207 -0.0695
10216TIP3    H152139   1.020   4.588   0.071  0.2579 -0.9505  0.3353
10216TIP3    H252140   1.164   4.541   0.078  0.1108 -1.6236 -0.9095
10217TIP3   OH252141   0.012   1.267   2.975 -0.6237 -0.8520 -0.2756
10217TIP3    H152142   0.093   1.303   2.939  0.0811  1.1329  2.8063
10217TIP3    H252143  -0.052   1.273   2.904  1.2773  0.0066 -2.0080
10218TIP3   OH252144   1.780   6.184  15.754 -0.0242  0.1844  0.1169
10218TIP3    H152145   1.744   6.272  15.767  1.2361  0.6273  0.7602
10218TIP3    H252146   1.786   6.147  15.842  1.9540  0.5028  0.1741
10219TIP3   OH252147   2.242   6.764   2.950  0.9389 -0.0317 -0.5721
10219TIP3    H152148   2.285   6.699   3.007  1.3704  0.1605 -0.6700
10219TIP3    H252149   2.238   6.721   2.865 -1.3142 -1.0199 -0.0313
10220TIP3   OH252150   0.546   4.535   0.530  0.2705 -0.2424  0.5823
10220TIP3    H152151   0.479   4.473   0.556  0.7956 -1.6316 -1.1992
10220TIP3    H252152   0.513   4.574   0.449  0.6944  0.5886  0.7962
10221TIP3   OH252153   5.475   6.647  13.292  0.6733 -0.1743 -0.1749
10221TIP3    H152154   5.538   6.715  13.269  0.3226 -0.5045 -2.2814
10221TIP3    H252155   5.393   6.674  13.249 -0.2690 -0.4595  1.3621
10222TIP3   OH252156   6.607   2.921  16.681 -0.3668  0.0331 -0.0742
10222TIP3    H152157   6.617   2.915  16.776 -0.4145  1.7758  0.0876
10222TIP3    H252158   6.675   2.864  16.645 -0.4014 -0.6973  1.0090
10223TIP3   OH252159   4.035   4.315  13.167  0.0910  0.0469 -0.1754
10223TIP3    H152160   4.019   4.375  13.095 -0.6785  0.8356  0.6164
10223TIP3    H252161   4.026   4.228  13.129 -1.1128  0.4548 -0.8647
10224TIP3   OH252162   2.300   0.506  14.706  0.4436 -0.1067 -1.1511
10224TIP3    H152163   2.241   0.439  14.740 -0.1165  1.7447  1.9820
10224TIP3    H252164   2.387   0.476  14.730  0.3159 -0.4103 -1.0643
10225TIP3   OH252165   2.418   3.778  14.070 -0.1028 -0.4278 -0.7908
10225TIP3    H152166   2.463   3.762  13.987 -1.9195 -0.6573 -1.7859
10225TIP3    H252167   2.329   3.748  14.055 -0.6398  0.1073  1.0666
10226TIP3   OH252168   3.814   2.720   6.183  0.3526 -0.3006  0.1657
10226TIP3    H152169   3.812   2.768   6.101  1.7998 -1.0872 -0.3842
10226TIP3    H252170   3.723   2.695   6.200 -0.1831  1.2311 -0.3446
10227TIP3   OH252171   4.735   5.834   2.147  0.1418 -0.4906 -0.1390
10227TIP3    H152172   4.719   5.855   2.239 -0.5311  0.4660 -0.4555
10227TIP3    H252173   4.648   5.814   2.112 -0.1263  2.2492 -1.2832
10228TIP3   OH252174   3.042   3.101   1.173  0.4112 -0.3643 -0.3742
10228TIP3    H152175   3.052   3.155   1.252  0.2860  0.9346 -1.2067
10228TIP3    H252176   3.124   3.114   1.125 -0.4751  0.8459 -1.6118
10229TIP3   OH252177   3.617   1.029   2.621  1.0881 -0.5877  0.1275
10229TIP3    H152178   3.710   1.010   2.611  0.8574 -0.6711 -2.7054
10229TIP3    H252179   3.613   1.123   2.641  1.7527 -0.4652 -0.3177
10230TIP3   OH252180   3.233   2.955   0.411 -0.0279  0.1732 -0.0868
10230TIP3    H152181   3.292   3.017   0.454 -0.3527  0.4034  0.0257
10230TIP3    H252182   3.230   2.880   0.470  0.1424  0.1676 -0.0855
10231TIP3   OH252183   4.648   2.921  14.039  0.1220 -0.5573 -0.0426
10231TIP3    H152184   4.596   2.910  14.118  0.3459  1.6894  0.4819
10231TIP3    H252185   4.585   2.916  13.968 -0.4684 -0.0607  0.4395
10232TIP3   OH252186   5.934   2.626  15.533 -0.0179 -0.9376  0.3105
10232TIP3    H152187   5.966   2.694  15.474 -1.3919 -0.6785 -0.1735
10232TIP3    H252188   6.009   2.605  15.589  1.2692 -1.0447 -1.3794
10233TIP3   OH252189   6.533   6.714  13.708  0.2587  0.1662 -0.2042
10233TIP3    H152190   6.496   6.696  13.621  2.5402  1.2913 -1.5000
10233TIP3    H252191   6.489   6.793  13.737 -2.0292 -1.3305  0.6973
10234TIP3   OH252192   1.351   5.916   1.292 -0.3055  0.1270  0.2695
10234TIP3    H152193   1.275   5.912   1.234 -1.2096 -0.9142  1.4777
10234TIP3    H252194   1.322   5.969   1.366  0.4626  0.5020  0.3122
10235TIP3   OH252195   0.230   2.464   4.547  0.5862 -0.3900 -0.4162
10235TIP3    H152196   0.272   2.538   4.504 -0.6465 -0.0108 -1.0060
10235TIP3    H252197   0.233   2.485   4.640  0.0652  0.5221 -0.5919
10236TIP3   OH252198   3.003   0.526   2.566 -0.0427  0.3150 -0.5755
10236TIP3    H152199   2.980   0.497   2.478 -1.0104 -1.2968  0.1693
10236TIP3    H252200   2.953   0.606   2.580 -1.2689 -0.3870 -0.8599
10237TIP3   OH252201   1.008   5.390  14.016  0.0830 -0.5081 -0.1652
10237TIP3    H152202   1.043   5.394  14.105 -1.1193  3.3387  0.3118
10237TIP3    H252203   1.049   5.464  13.971 -1.3368 -0.7860 -2.0236
10238TIP3   OH252204   5.462   3.731  12.486  0.6618  0.0445  0.4846
10238TIP3    H152205   5.464   3.647  12.532 -0.4262  0.6243  1.6779
10238TIP3    H252206   5.529   3.724  12.419 -0.3390 -2.3070 -0.3773
10239TIP3   OH252207   1.571   5.703   6.425 -0.6039 -0.1050  0.2129
10239TIP3    H152208   1.656   5.661   6.420 -0.8207 -0.5356  0.1585
10239TIP3    H252209   1.584   5.789   6.384 -0.8466 -1.1812 -2.2921
10240TIP3   OH252210   3.355   5.940  13.836 -0.4168  0.1561  0.2746
10240TIP3    H152211   3.375   6.012  13.776  0.8731  0.7172  1.3188
10240TIP3    H252212   3.368   5.861  13.784  0.8378  0.6213 -0.1520
10241TIP3   OH252213   1.442   6.160  14.335  0.5046  0.0446 -0.1625
10241TIP3    H152214   1.425   6.066  14.341  0.5597 -0.0078 -0.7497
10241TIP3    H252215   1.395   6.197  14.409  1.2637 -0.5404  0.6313
10242TIP3   OH252216   4.399   5.845  14.605 -0.5811 -0.1129 -0.6172
10242TIP3    H152217   4.323   5.787  14.594 -0.3691 -0.2485 -1.5113
10242TIP3    H252218   4.378   5.900  14.680 -0.9784 -1.0615 -0.0162
10243TIP3   OH252219   2.967   2.307  13.333 -0.1833 -0.1730  0.1573
10243TIP3    H152220   3.029   2.273  13.269 -1.5870 -1.0324 -0.8133
10243TIP3    H252221   2.920   2.377  13.286 -1.6572 -1.2297 -0.0268
10244TIP3   OH252222   6.090   2.968  12.655 -0.0874 -0.2748  0.0909
10244TIP3    H152223   6.036   2.911  12.601 -0.4628 -0.5713  0.7693
10244TIP3    H252224   6.126   2.910  12.723 -0.2723  0.2484  0.6378
10245TIP3   OH252225   0.833   3.421   4.163  0.3428  0.8490 -0.1064
10245TIP3    H152226   0.907   3.467   4.121  0.6755  0.5421  0.1366
10245TIP3    H252227   0.763   3.424   4.098  0.8036  0.5239 -0.6262
10246TIP3   OH252228   5.383   3.831  16.671  1.0076  0.1439 -0.1131
10246TIP3    H152229   5.401   3.914  16.714  0.6872 -0.3671  1.0574
10246TIP3    H252230   5.330   3.782  16.735  0.7796 -0.7665 -0.9720
10247TIP3   OH252231   5.804   4.026  13.107 -0.2208  0.4627 -0.1529
10247TIP3    H152232   5.849   4.091  13.162 -0.1417 -0.1033  0.4583
10247TIP3    H252233   5.787   4.073  13.026  1.7188  0.6264 -0.5203
10248TIP3   OH252234   2.913   0.574   4.996 -0.5151 -0.1448 -0.3745
10248TIP3    H152235   2.897   0.659   5.037  2.3015 -0.6097  1.9929
10248TIP3    H252236   2.924   0.514   5.069 -0.6594 -2.2066 -1.9692
10249TIP3   OH252237   4.172   3.256  10.596  0.3491 -0.0596  0.3715
10249TIP3    H152238   4.197   3.310  10.521  0.1846 -2.4050 -1.4799
10249TIP3    H252239   4.080   3.275  10.610 -0.3209 -1.4433 -1.7629
10250TIP3   OH252240   5.557   6.378  12.507 -0.1049 -0.8454  0.4786
10250TIP3    H152241   5.514   6.417  12.583 -0.3124 -2.1920  1.0780
10250TIP3    H252242   5.489   6.374  12.441  0.3986  1.5375 -0.2909
10251TIP3   OH252243   6.059   3.495  16.354 -0.0348 -0.1676 -0.4200
10251TIP3    H152244   5.977   3.467  16.312 -0.2596  1.4385 -1.1077
10251TIP3    H252245   6.035   3.574  16.402  0.9748 -0.0648 -0.0740
10252TIP3   OH252246   3.193   5.598  13.513  0.0468  0.4892 -0.5700
10252TIP3    H152247   3.240   5.514  13.516  1.1547  1.1095  2.6487
10252TIP3    H252248   3.100   5.573  13.512  0.3322 -0.7262 -2.4456
10253TIP3   OH252249   6.236   2.331   1.276 -0.2037  0.6160 -0.1213
10253TIP3    H152250   6.328   2.307   1.264 -1.0995 -4.3538  0.9528
10253TIP3    H252251   6.212   2.292   1.360 -3.7195  0.1786 -1.1808
10254TIP3   OH252252   3.602   2.932   1.114  0.0729 -0.0657 -0.2907
10254TIP3    H152253   3.686   2.912   1.156  0.2787  1.6619  0.1997
10254TIP3    H252254   3.539   2.875   1.158  1.0943 -2.0578 -1.2931
10255TIP3   OH252255   0.312   2.003  14.388 -0.2329  0.1210  0.5181
10255TIP3    H152256   0.342   2.074  14.445 -0.3381  0.7932 -0.2381
10255TIP3    H252257   0.385   1.940  14.388  0.8403  1.2986 -0.5683
10256TIP3   OH252258   0.039   3.165   1.651  0.1488  0.1283 -0.5325
10256TIP3    H152259  -0.040   3.155   1.704  0.0380  1.7302 -0.3287
10256TIP3    H252260   0.020   3.121   1.569 -0.4144 -0.7090  0.0376
10257TIP3   OH252261   1.805   6.010  14.365 -0.2851  0.4327 -0.1590
10257TIP3    H152262   1.853   6.072  14.420  0.9045  0.4569 -1.1893
10257TIP3    H252263   1.868   5.984  14.298 -1.4338 -0.2727 -0.9896
10258TIP3   OH252264   2.369   2.081  10.759 -0.5039 -0.7088 -0.1156
10258TIP3    H152265   2.312   2.013  10.795 -2.4289  0.6811 -0.4528
10258TIP3    H252266   2.350   2.159  10.811 -1.9494  0.8391 -2.7881
10259TIP3   OH252267   3.410   2.515   5.612  0.0322 -0.4806 -0.1312
10259TIP3    H152268   3.357   2.590   5.585 -0.0457 -0.7018 -0.6005
10259TIP3    H252269   3.483   2.554   5.659 -1.5205 -0.2660  2.2528
10260TIP3   OH252270   0.812   1.573  10.639  0.4366 -0.1823 -0.4869
10260TIP3    H152271   0.774   1.647  10.687  0.2731 -0.1170 -0.7124
10260TIP3    H252272   0.783   1.495  10.688  0.7014 -0.0929 -0.1861
10261TIP3   OH252273   2.489   3.830  14.935  0.4967  0.2298 -1.0528
10261TIP3    H152274   2.464   3.904  14.880 -0.3196  1.5111  0.9342
10261TIP3    H252275   2.566   3.860  14.983 -0.2159  0.0682  0.2351
10262TIP3   OH252276   0.121   4.162   4.265 -0.7643 -0.5088  0.1409
10262TIP3    H152277   0.159   4.155   4.177 -1.8669  0.6181 -0.4678
10262TIP3    H252278   0.186   4.121   4.322  0.6462 -0.0264 -1.0224
10263TIP3   OH252279   1.022   2.829  15.195  0.1348 -0.1650  0.5764
10263TIP3    H152280   1.061   2.781  15.122 -1.1746  0.0503 -0.3065
10263TIP3    H252281   1.075   2.909  15.202 -0.0721  0.0900 -0.5454
10264TIP3   OH252282   5.402   5.249  16.250 -0.4195  0.6988  0.0744
10264TIP3    H152283   5.481   5.200  16.274 -0.4262 -0.6030 -2.2419
10264TIP3    H252284   5.426   5.297  16.171 -1.8741  0.4165 -0.5836
10265TIP3   OH252285   4.017   3.026  14.361  0.4403  0.2657 -0.3789
10265TIP3    H152286   3.996   3.041  14.453  0.7220  0.5317 -0.3552
10265TIP3    H252287   3.968   2.947  14.337  1.4883 -0.6540  0.3940
10266TIP3   OH252288   3.486   3.338   2.365  0.0354  0.5344  0.1018
10266TIP3    H152289   3.567   3.306   2.324 -0.1502 -0.8921  0.8157
10266TIP3    H252290   3.515   3.382   2.444  0.0898 -0.6335  0.7545
10267TIP3   OH252291   3.873   6.159   5.660 -0.0154  0.2184  0.1056
10267TIP3    H152292   3.817   6.236   5.651 -0.4698 -0.2278 -1.1678
10267TIP3    H252293   3.834   6.109   5.732 -1.4350 -0.1983 -0.9108
10268TIP3   OH252294   2.637   2.451  13.593  0.0501  0.8460  0.3112
10268TIP3    H152295   2.675   2.539  13.592 -0.0658  0.9198 -2.1865
10268TIP3    H252296   2.596   2.441  13.507  1.1055 -2.1086  0.0589
10269TIP3   OH252297   5.164   1.214  12.205  0.0007  0.2327  0.6006
10269TIP3    H152298   5.069   1.207  12.199  0.0553  0.4435 -2.2781
10269TIP3    H252299   5.188   1.164  12.283 -2.2457 -2.3236 -0.2054
10270TIP3   OH252300   1.533   2.733   5.832 -0.5221 -0.4794  0.2231
10270TIP3    H152301   1.539   2.805   5.894 -0.3744 -0.5732  0.3181
10270TIP3    H252302   1.622   2.697   5.828 -0.5095 -0.4129 -0.1143
10271TIP3   OH252303   1.732   0.992  11.606 -0.4142 -0.3729  0.5207
10271TIP3    H152304   1.794   0.993  11.678  1.6865  0.6925 -1.1683
10271TIP3    H252305   1.698   0.903  11.604  0.4537 -0.7666  1.9902
10272TIP3   OH252306   4.174   0.283   3.026  0.3429 -0.2073  0.5389
10272TIP3    H152307   4.210   0.369   3.047 -2.0937  0.6281  1.7512
10272TIP3    H252308   4.109   0.301   2.957 -0.1373 -1.0828  0.7466
10273TIP3   OH252309   4.160   3.485  15.647 -0.2880  0.4327  0.8765
10273TIP3    H152310   4.178   3.574  15.618 -0.0074 -0.3677 -1.6509
10273TIP3    H252311   4.076   3.463  15.608  0.7544 -1.1836 -0.5934
10274TIP3   OH252312   4.934   2.309  13.095  0.0823  0.8158  0.3181
10274TIP3    H152313   4.890   2.393  13.080 -1.5123 -0.1408 -0.6397
10274TIP3    H252314   4.948   2.274  13.007 -0.7390 -0.6436  0.7436
10275TIP3   OH252315   5.399   6.547   5.844  0.0847  0.0364 -1.1391
10275TIP3    H152316   5.382   6.463   5.886  1.4994 -0.9660 -2.4245
10275TIP3    H252317   5.313   6.583   5.825 -0.5473 -0.6114  0.3919
10276TIP3   OH252318   2.379   3.470   5.910 -0.0949  0.0015  0.1555
10276TIP3    H152319   2.345   3.407   5.973  0.8203 -2.3886 -1.5955
10276TIP3    H252320   2.332   3.451   5.829  1.1264  0.6894 -0.7519
10277TIP3   OH252321   2.119   2.819  12.133  0.1371  0.7081 -0.3958
10277TIP3    H152322   2.134   2.780  12.219  1.0137 -0.3236 -0.9923
10277TIP3    H252323   2.180   2.773  12.075  0.7846  2.5463 -1.2565
10278TIP3   OH252324   4.040   3.410  16.392  0.4299  0.0606  0.1652
10278TIP3    H152325   4.067   3.356  16.466 -0.8829 -1.5412 -0.4618
10278TIP3    H252326   4.006   3.348  16.328  2.7582  1.2205 -2.4238
10279TIP3   OH252327   4.473   2.820  13.869 -0.3724 -0.7753 -0.2518
10279TIP3    H152328   4.390   2.867  13.869  0.6272  1.2622 -2.6345
10279TIP3    H252329   4.455   2.738  13.914 -3.6146 -0.3424 -0.5435
10280TIP3   OH252330   0.940   2.309   4.101  0.3777  0.9969 -0.0948
10280TIP3    H152331   0.960   2.217   4.118  1.0144  0.8759 -1.3797
10280TIP3    H252332   0.860   2.326   4.150  0.6327 -0.0558  0.7030
10281TIP3   OH252333   4.193   5.290  11.361 -0.0632 -0.4711  0.4610
10281TIP3    H152334   4.181   5.343  11.282  2.6208 -1.1477 -0.5235
10281TIP3    H252335   4.111   5.298  11.408 -1.4666  0.6648 -1.9851
10282TIP3   OH252336   5.780   3.101   3.315 -0.0081  0.2424  0.1493
10282TIP3    H152337   5.795   3.123   3.223 -1.8604 -0.8338 -0.4673
10282TIP3    H252338   5.846   3.035   3.335  0.0947  0.1099 -0.5772
10283TIP3   OH252339   0.853   1.828  12.783  0.0933 -0.6723 -0.2161
10283TIP3    H152340   0.804   1.757  12.827 -1.3493  0.8363  0.7230
10283TIP3    H252341   0.792   1.901  12.781  0.8253 -0.0224 -3.0019
10284TIP3   OH252342   3.027   3.595  15.612 -0.1798  0.1539 -0.1167
10284TIP3    H152343   2.964   3.612  15.683 -0.3843 -0.4837 -0.1410
10284TIP3    H252344   3.112   3.610  15.651 -0.3000 -0.0339  0.2165
10285TIP3   OH252345   2.667   0.442   2.421  0.1248 -0.1426 -0.1989
10285TIP3    H152346   2.641   0.351   2.404  0.2933 -0.5711  1.6129
10285TIP3    H252347   2.679   0.446   2.516  0.3711  1.7213 -0.2709
10286TIP3   OH252348   2.275   4.208   3.833 -0.1570  0.5923 -0.1079
10286TIP3    H152349   2.285   4.231   3.741  0.1222 -0.4732 -0.3579
10286TIP3    H252350   2.186   4.236   3.855 -0.4665  0.2743 -0.8883
10287TIP3   OH252351   0.564   1.841   3.840 -0.5744  0.2198 -0.0924
10287TIP3    H152352   0.585   1.856   3.748  0.9329 -3.3040 -0.4837
10287TIP3    H252353   0.468   1.835   3.842 -0.6339  0.3522 -1.4217
10288TIP3   OH252354   6.530   3.849  13.859 -0.1910 -0.1765 -0.2859
10288TIP3    H152355   6.621   3.820  13.850 -0.2234 -0.7851  1.1844
10288TIP3    H252356   6.536   3.938  13.893 -0.1302 -0.5875  0.8223
10289TIP3   OH252357   2.664   2.451   2.064 -0.5029  0.2431 -0.5829
10289TIP3    H152358   2.665   2.356   2.057 -0.6499  0.2921 -1.3961
10289TIP3    H252359   2.751   2.478   2.034 -0.3428  0.3487 -0.0310
10290TIP3   OH252360   4.687   2.751   5.247 -0.5162 -0.6552  0.2912
10290TIP3    H152361   4.699   2.749   5.343 -0.1554 -0.1830  0.2607
10290TIP3    H252362   4.644   2.668   5.227 -2.5368  0.1388  1.1129
10291TIP3   OH252363   0.219   0.682   2.637 -0.0944  0.0206  0.3695
10291TIP3    H152364   0.201   0.597   2.677  1.7449  0.0406  1.3132
10291TIP3    H252365   0.230   0.741   2.711  0.4541  0.6900 -0.2387
10292TIP3   OH252366   4.524   6.481  13.554  0.2479  0.1128 -0.0263
10292TIP3    H152367   4.537   6.502  13.462 -0.7067 -0.9201 -0.4045
10292TIP3    H252368   4.550   6.389  13.562 -0.9923 -0.2112  0.4324
10293TIP3   OH252369   1.345   6.200  12.808 -0.2059  0.2501  0.1456
10293TIP3    H152370   1.372   6.250  12.885  0.7617  1.7748 -1.1269
10293TIP3    H252371   1.423   6.153  12.780 -0.3482  0.2892 -0.3322
10294TIP3   OH252372   5.154   4.418   4.720  0.5980  0.4874 -0.8664
10294TIP3    H152373   5.195   4.412   4.634  0.5419  2.2564 -1.0512
10294TIP3    H252374   5.113   4.333   4.733  3.6403 -1.1415 -0.9992
10295TIP3   OH252375   4.366   1.483  14.722  0.7707 -0.1864 -0.1683
10295TIP3    H152376   4.345   1.450  14.634  2.4388 -1.1009 -0.2541
10295TIP3    H252377   4.337   1.414  14.781  0.5572 -0.0108 -0.0688
10296TIP3   OH252378   6.544   6.060  13.200  0.4784  0.0276 -0.1232
10296TIP3    H152379   6.500   6.143  13.218 -0.6949 -0.2617 -1.4751
10296TIP3    H252380   6.635   6.075  13.226  0.7660  2.4109 -2.0949
10297TIP3   OH252381   5.207   2.954   1.505  0.0983  0.8940  0.3842
10297TIP3    H152382   5.137   2.913   1.455  1.9054  0.9326 -2.4431
10297TIP3    H252383   5.264   2.881   1.530 -1.3669  0.6957  3.7297
10298TIP3   OH252384   5.633   3.604  16.281  0.2705 -0.3600 -0.0532
10298TIP3    H152385   5.540   3.585  16.271  0.4547 -0.8759 -0.9502
10298TIP3    H252386   5.670   3.523  16.317  0.4880 -0.4485 -0.4619
10299TIP3   OH252387   1.731   2.451  13.715 -0.0308 -0.9535 -0.5163
10299TIP3    H152388   1.732   2.485  13.626  0.1285 -1.0747 -0.5619
10299TIP3    H252389   1.640   2.458  13.742 -0.2750 -1.8857 -1.0627
10300TIP3   OH252390   4.376   5.453  11.483  0.1224 -0.2604  0.1100
10300TIP3    H152391   4.351   5.377  11.432 -0.8770  0.2087 -0.1319
10300TIP3    H252392   4.303   5.515  11.472  1.1664  0.9702 -0.1887
10301TIP3   OH252393   4.674   6.165   0.601  0.1438 -0.4498 -0.2367
10301TIP3    H152394   4.755   6.148   0.649 -0.7569  0.4105  1.6872
10301TIP3    H252395   4.622   6.219   0.660 -1.1674  0.4213 -2.1003
10302TIP3   OH252396   3.072   1.355  12.454  0.0550 -0.4008 -1.0578
10302TIP3    H152397   3.105   1.265  12.448  0.5719 -0.1981 -1.3439
10302TIP3    H252398   3.020   1.356  12.534  2.0504 -0.3270  0.2964
10303TIP3   OH252399   4.994   3.584   4.552  0.6835 -0.0991 -0.2099
10303TIP3    H152400   5.081   3.546   4.564  0.3794 -0.9835 -0.7156
10303TIP3    H252401   4.935   3.524   4.597 -0.0051 -1.2198 -2.4565
10304TIP3   OH252402   1.993   6.492   2.833 -0.2899  0.3209 -0.0149
10304TIP3    H152403   2.046   6.438   2.775  0.6941 -0.6233  1.7113
10304TIP3    H252404   1.903   6.461   2.819 -0.2084  0.7143 -1.6395
10305TIP3   OH252405   3.610   1.344   2.695 -0.4032 -0.2676 -0.5987
10305TIP3    H152406   3.587   1.437   2.700  0.0195 -0.1765 -0.2629
10305TIP3    H252407   3.648   1.325   2.781  0.2163 -0.5643 -0.9352
10306TIP3   OH252408   1.166   4.245   4.564 -0.0811  0.2766 -0.4382
10306TIP3    H152409   1.146   4.336   4.586 -0.2037  0.1089  0.1578
10306TIP3    H252410   1.257   4.233   4.590  0.4106  0.6318 -1.8543
10307TIP3   OH252411   1.000   5.226   4.230 -0.1375  0.0719 -0.3492
10307TIP3    H152412   1.085   5.237   4.187 -0.0076  0.0162 -0.1094
10307TIP3    H252413   0.971   5.139   4.202  1.7688 -1.7493  2.7559
10308TIP3   OH252414   3.529   1.397  13.578  0.9283  0.0615 -0.1035
10308TIP3    H152415   3.487   1.422  13.661 -1.2072 -1.6333 -0.5739
10308TIP3    H252416   3.482   1.448  13.512 -0.6497 -1.9839 -0.6545
10309TIP3   OH252417   3.734   1.456   4.011  0.3829  0.3922  0.0996
10309TIP3    H152418   3.702   1.418   3.929 -2.6336 -0.0429  1.3639
10309TIP3    H252419   3.764   1.381   4.062 -2.6417 -0.1382  1.3413
10310TIP3   OH252420   5.290   6.685  13.871  0.2782 -0.1367 -0.0113
10310TIP3    H152421   5.348   6.676  13.947  0.7833 -0.9845 -0.4827
10310TIP3    H252422   5.326   6.760  13.823  0.9823 -0.6409 -0.2863
10311TIP3   OH252423   5.582   0.251  12.688 -0.0547  0.2325  0.7708
10311TIP3    H152424   5.635   0.319  12.647  1.5385 -0.6019  1.3611
10311TIP3    H252425   5.596   0.173  12.633 -0.2199 -0.1334  1.2407
10312TIP3   OH252426   4.293   6.795   4.715  0.0281  0.1222  0.3833
10312TIP3    H152427   4.300   6.885   4.683 -1.1926  0.7287  1.7030
10312TIP3    H252428   4.333   6.797   4.802  2.0422 -1.1704 -0.4327
10313TIP3   OH252429   5.527   4.861  10.620 -0.2172 -0.5447  0.6482
10313TIP3    H152430   5.582   4.937  10.602 -1.4547 -0.0942 -1.7342
10313TIP3    H252431   5.572   4.789  10.576 -1.6084 -0.0786 -1.7635
10314TIP3   OH252432   0.096   4.877  13.431  0.1745  0.4025  0.1786
10314TIP3    H152433   0.048   4.812  13.380  1.0243  2.1498 -3.1073
10314TIP3    H252434   0.185   4.842  13.437  0.0127  0.0714  0.7839
10315TIP3   OH252435   0.837   4.649   5.721  0.1751  0.8907 -0.4155
10315TIP3    H152436   0.873   4.692   5.799 -0.6390  1.2362 -0.2130
10315TIP3    H252437   0.798   4.568   5.755  1.0561  0.3516 -0.6837
10316TIP3   OH252438   1.484   4.980   0.175  0.2227 -0.1722 -0.3535
10316TIP3    H152439   1.476   5.073   0.198 -0.3724  0.3161 -2.3252
10316TIP3    H252440   1.415   4.965   0.111  0.7582 -1.8039 -0.6027
10317TIP3   OH252441   6.192   3.726   0.193 -0.8533 -0.4486 -0.1348
10317TIP3    H152442   6.211   3.775   0.113 -1.4385  1.5123  0.8533
10317TIP3    H252443   6.277   3.710   0.232 -0.6980  1.1061  0.2286
10318TIP3   OH252444   2.337   4.806  11.526  0.1991  0.2587  0.2181
10318TIP3    H152445   2.374   4.883  11.569  1.1183  0.3733 -0.7389
10318TIP3    H252446   2.307   4.838  11.441  2.2599 -0.7507 -0.9667
10319TIP3   OH252447   5.396   6.290  13.516 -0.2010 -0.0609  0.6164
10319TIP3    H152448   5.400   6.373  13.564 -0.1520  0.5464 -0.4050
10319TIP3    H252449   5.484   6.254  13.522  0.0966  0.5504  0.0781
10320TIP3   OH252450   3.007   4.139  12.553  0.2528  0.2323  0.3193
10320TIP3    H152451   3.087   4.159  12.505  0.0090  1.2463  0.3103
10320TIP3    H252452   2.996   4.213  12.613 -1.5358  0.9708 -0.8166
10321TIP3   OH252453   0.319   0.610   1.841  0.8081  0.1338  0.0604
10321TIP3    H152454   0.412   0.634   1.846  0.5444  1.2493 -0.1217
10321TIP3    H252455   0.294   0.630   1.751  0.1794  0.6973  0.3455
10322TIP3   OH252456   1.390   6.444  10.819 -0.0695 -0.3423  0.2656
10322TIP3    H152457   1.312   6.389  10.831 -0.2661 -0.2243 -0.4385
10322TIP3    H252458   1.440   6.399  10.750  0.2484 -0.1633  0.3790
10323TIP3   OH252459   3.766   5.862   2.471 -0.1347 -0.0580 -0.4955
10323TIP3    H152460   3.822   5.935   2.498 -0.5242  0.1736 -0.3048
10323TIP3    H252461   3.677   5.890   2.493 -0.1305 -1.4911  1.7149
10324TIP3   OH252462   5.794   3.759  13.099 -0.2272 -0.4360 -0.0060
10324TIP3    H152463   5.822   3.850  13.095  0.3427 -0.6186 -3.4652
10324TIP3    H252464   5.723   3.758  13.163  0.3581  2.2218  0.8023
10325TIP3   OH252465   2.731   3.072  16.474  0.5236  0.0266 -0.0840
10325TIP3    H152466   2.701   2.988  16.509 -1.2933  0.4344 -0.5397
10325TIP3    H252467   2.665   3.096  16.409  1.6437  1.2508 -0.8293
10326TIP3   OH252468   6.877   4.263  14.904  0.4711 -0.1437  0.8625
10326TIP3    H152469   6.833   4.191  14.859  0.5914 -0.1912  0.8207
10326TIP3    H252470   6.960   4.274  14.857  1.0532 -0.8563  1.6910
10327TIP3   OH252471   6.357   4.186   3.891  0.3524  0.1032  0.6332
10327TIP3    H152472   6.366   4.145   3.976 -1.3320  0.7208  1.1428
10327TIP3    H252473   6.309   4.267   3.908 -0.5879 -0.0672 -0.9638
10328TIP3   OH252474   5.800   4.929   5.553  0.5361  0.1025 -0.2315
10328TIP3    H152475   5.871   4.977   5.510 -0.1258  1.5426  0.2326
10328TIP3    H252476   5.746   4.897   5.480  1.8472 -1.4055 -0.6145
10329TIP3   OH252477   4.511   2.810  12.899 -0.1293  0.3478 -0.2404
10329TIP3    H152478   4.556   2.726  12.893  0.3012  0.5939 -0.4953
10329TIP3    H252479   4.574   2.874  12.866 -1.0887  0.5597 -1.7869
10330TIP3   OH252480   5.066   5.741  13.925 -1.1310 -0.0566  0.4090
10330TIP3    H152481   5.142   5.745  13.867  0.0673  2.7306  1.9531
10330TIP3    H252482   4.991   5.730  13.867  0.1524  0.8565 -1.5141
10331TIP3   OH252483   1.875   4.862   5.640  0.1242 -0.0989 -0.9332
10331TIP3    H152484   1.883   4.774   5.603 -0.5125  0.4566 -2.4419
10331TIP3    H252485   1.964   4.896   5.641  0.3962 -0.7946 -0.2026
10332TIP3   OH252486   6.390   3.247  10.678 -0.0123 -0.0368  1.0837
10332TIP3    H152487   6.393   3.177  10.613  0.1382  1.1401 -0.1972
10332TIP3    H252488   6.318   3.221  10.737 -2.0102  0.2051 -1.1153
10333TIP3   OH252489   3.802   5.475  10.093  0.4892 -0.2028  0.2822
10333TIP3    H152490   3.728   5.535  10.100  1.1986  0.5935  1.1799
10333TIP3    H252491   3.837   5.468  10.182  1.2631 -0.8657 -0.0519
10334TIP3   OH252492   6.012   3.248   0.228 -0.5733 -0.4418 -0.2979
10334TIP3    H152493   5.929   3.206   0.252 -0.4625  0.4316  1.8239
10334TIP3    H252494   6.004   3.263   0.134 -3.2361  0.4457 -0.0409
10335TIP3   OH252495   6.773   3.469  11.758 -0.4028 -0.2085  0.7156
10335TIP3    H152496   6.714   3.510  11.695 -0.1100  0.4987  0.8970
10335TIP3    H252497   6.830   3.540  11.788 -0.8335 -0.4341  2.1281
10336TIP3   OH252498   0.865   1.502  12.926 -0.0128 -0.3799  0.7206
10336TIP3    H152499   0.841   1.454  13.005  2.2689 -0.3455  1.5222
10336TIP3    H252500   0.942   1.455  12.893 -0.6621 -0.1274 -1.2619
10337TIP3   OH252501   0.318   0.811   5.113  0.0159 -0.0690 -0.0804
10337TIP3    H152502   0.329   0.768   5.028  0.2590 -0.4614  0.1448
10337TIP3    H252503   0.357   0.897   5.102  0.4419 -0.2817 -0.2350
10338TIP3   OH252504   6.779   4.435   3.106  0.2182  0.2313  0.5487
10338TIP3    H152505   6.820   4.375   3.168  0.0278  0.3171  0.7566
10338TIP3    H252506   6.730   4.378   3.046  1.8637 -0.0104 -0.6483
10339TIP3   OH252507   6.679   3.915   2.996 -0.2092 -0.2110 -0.6382
10339TIP3    H152508   6.691   3.980   3.065  1.1683 -0.2658 -0.8045
10339TIP3    H252509   6.743   3.847   3.015  0.5790  0.0182 -2.2341
10340TIP3   OH252510   0.988   6.272  16.587 -0.0963 -0.4074  0.3975
10340TIP3    H152511   0.956   6.224  16.510 -0.8205 -1.1272  1.1211
10340TIP3    H252512   0.910   6.281  16.642  0.4682 -0.1186  1.1537
10341TIP3   OH252513   0.829   5.377   3.472 -0.2480 -0.6598  0.2865
10341TIP3    H152514   0.857   5.400   3.384 -2.9941  0.9989 -0.2532
10341TIP3    H252515   0.835   5.458   3.522 -2.1186 -0.6951  0.6295
10342TIP3   OH252516   3.590   2.946  15.762 -0.4407 -0.2246  0.2671
10342TIP3    H152517   3.679   2.925  15.791 -0.8083 -1.3706  0.6191
10342TIP3    H252518   3.558   3.008  15.827  0.3727  0.8335 -0.3104
10343TIP3   OH252519   4.803   6.815  16.124  0.1381  0.4523  0.1883
10343TIP3    H152520   4.857   6.866  16.185 -0.0038 -0.1982  0.8703
10343TIP3    H252521   4.724   6.795  16.174 -0.1308  0.2070 -0.3318
10344TIP3   OH252522   4.143   3.849  12.921  0.0920 -0.3964 -0.0742
10344TIP3    H152523   4.218   3.852  12.862  0.9122 -2.3448  0.7672
10344TIP3    H252524   4.104   3.763  12.905 -1.8334  0.4764 -0.3055
10345TIP3   OH252525   3.672   3.534   0.296  0.0098  0.1808 -0.6763
10345TIP3    H152526   3.686   3.592   0.221  2.7585  2.1332  1.1251
10345TIP3    H252527   3.602   3.574   0.346  0.1691  0.5272 -0.7316
10346TIP3   OH252528   6.543   1.720   5.188 -0.2847 -0.3991  0.8097
10346TIP3    H152529   6.625   1.751   5.149  1.8045 -3.6150  2.2181
10346TIP3    H252530   6.488   1.698   5.113 -0.5026  2.9625 -0.1843
10347TIP3   OH252531   4.726   3.440  14.629  0.3709 -0.2128  0.3744
10347TIP3    H152532   4.698   3.519  14.675 -0.3302 -1.0691  1.4542
10347TIP3    H252533   4.789   3.399  14.688 -0.6599 -1.4051  0.6999
10348TIP3   OH252534   3.796   4.108   2.485 -0.3884  0.2784 -0.7776
10348TIP3    H152535   3.754   4.101   2.571  0.5021  0.1614 -0.3436
10348TIP3    H252536   3.879   4.152   2.502  1.3406 -2.6371 -1.0231
10349TIP3   OH252537   3.775   2.896   1.871 -0.6219 -0.0729  0.1276
10349TIP3    H152538   3.702   2.953   1.897  0.6521  1.3728  0.6988
10349TIP3    H252539   3.777   2.828   1.938 -1.0893  0.1927  0.4203
10350TIP3   OH252540   6.000   5.639  12.545 -0.2151  0.2165  0.0029
10350TIP3    H152541   5.982   5.612  12.455 -2.2100  0.8656  0.1456
10350TIP3    H252542   6.061   5.711  12.537  0.4364 -0.3935 -0.7510
10351TIP3   OH252543   2.541   1.352   1.407  0.0697 -0.2290 -0.4592
10351TIP3    H152544   2.547   1.342   1.312 -0.7174 -1.7292 -0.3830
10351TIP3    H252545   2.449   1.370   1.424 -0.1350 -1.6700  0.1206
10352TIP3   OH252546   6.877   3.736   1.515 -0.3916 -0.4066  0.1652
10352TIP3    H152547   6.881   3.794   1.439 -1.4282 -0.7883 -0.1971
10352TIP3    H252548   6.819   3.665   1.488 -0.5452 -0.6949  1.2131
10353TIP3   OH252549   3.752   3.146  12.546  0.0387 -0.0416 -0.6535
10353TIP3    H152550   3.736   3.222  12.602 -1.6761  0.0535 -1.1903
10353TIP3    H252551   3.667   3.130  12.503  0.2406 -2.5014 -0.2795
10354TIP3   OH252552   5.518   3.028  13.782  0.5154 -0.1579  0.0359
10354TIP3    H152553   5.431   3.055  13.811  0.7171  1.0033 -0.3866
10354TIP3    H252554   5.544   2.959  13.844 -0.5649 -0.2949  0.3479
10355TIP3   OH252555   4.799   5.203  13.011 -0.3836 -0.1347  0.0304
10355TIP3    H152556   4.804   5.109  13.028 -0.6794  0.1052  1.5583
10355TIP3    H252557   4.761   5.210  12.923  0.7079 -1.4494 -0.5776
10356TIP3   OH252558   0.370   0.240  16.220  0.3128  0.0912  0.5008
10356TIP3    H152559   0.454   0.219  16.179  0.4331  0.2360  0.6721
10356TIP3    H252560   0.377   0.332  16.244  0.1193  0.0930  0.5516
10357TIP3   OH252561   6.620   6.767  14.534  0.4922  0.3439 -0.1200
10357TIP3    H152562   6.576   6.682  14.533 -0.9690  1.0098  1.8541
10357TIP3    H252563   6.701   6.752  14.582  0.7938 -0.1391 -0.7570
10358TIP3   OH252564   4.604   5.249   5.462  0.3414 -0.3697 -0.1648
10358TIP3    H152565   4.605   5.340   5.432 -1.7840  0.0114  0.7562
10358TIP3    H252566   4.611   5.256   5.558 -2.7609 -0.9114  0.2104
10359TIP3   OH252567   3.686   5.878  13.183 -0.2709  0.2200 -0.1421
10359TIP3    H152568   3.679   5.808  13.248 -1.1403 -0.1041 -0.5663
10359TIP3    H252569   3.646   5.841  13.104 -0.4302  1.0768 -0.4715
10360TIP3   OH252570   2.866   2.387   1.661 -0.0331  0.1915  0.1733
10360TIP3    H152571   2.786   2.405   1.711 -0.0196 -0.4777  0.4512
10360TIP3    H252572   2.879   2.293   1.672 -0.8888 -0.2977 -2.3866
10361TIP3   OH252573   4.652   3.134  10.874  0.1092 -0.1214 -0.0253
10361TIP3    H152574   4.645   3.227  10.852 -1.5507  0.0869  1.1677
10361TIP3    H252575   4.562   3.101  10.867  0.7443 -1.7838 -0.9405
10362TIP3   OH252576   1.709   1.834  12.025  0.6403 -0.3884 -0.0232
10362TIP3    H152577   1.747   1.763  12.076  0.2875 -0.7162 -0.2049
10362TIP3    H252578   1.615   1.818  12.028  0.5802 -0.1255 -0.3549
10363TIP3   OH252579   3.550   1.599  16.330 -0.8099 -0.6984  0.8377
10363TIP3    H152580   3.464   1.638  16.346 -0.4987  0.7164 -0.6644
10363TIP3    H252581   3.545   1.565  16.241  0.2730 -0.3729  0.6425
10364TIP3   OH252582   2.128   3.521  11.126 -0.0201 -0.0944 -0.3395
10364TIP3    H152583   2.047   3.565  11.153 -0.0956 -0.4676  0.0583
10364TIP3    H252584   2.197   3.584  11.143 -0.2467  0.3217 -0.9133
10365TIP3   OH252585   3.731   5.070  13.436  0.8641 -0.1403  0.4294
10365TIP3    H152586   3.819   5.079  13.474  0.4711  1.6233  1.0338
10365TIP3    H252587   3.672   5.080  13.511  0.1185  0.8097 -0.2588
10366TIP3   OH252588   1.558   0.013   3.023  0.3597 -0.2607  0.3013
10366TIP3    H152589   1.601   0.032   3.106  0.0283 -1.0803  0.6688
10366TIP3    H252590   1.611  -0.056   2.983  0.7642  0.4271 -0.3779
10367TIP3   OH252591   5.939   0.725  15.695 -0.4899 -0.4938  0.8589
10367TIP3    H152592   5.984   0.809  15.686 -0.6617 -0.3950  0.9227
10367TIP3    H252593   5.960   0.678  15.614 -0.5122 -0.3338  0.7590
10368TIP3   OH252594   4.353   0.868   2.922 -0.5029 -0.2324  0.3391
10368TIP3    H152595   4.435   0.879   2.972 -0.4304  0.8074  0.0123
10368TIP3    H252596   4.301   0.808   2.975 -1.2420  2.3267  2.7777
10369TIP3   OH252597   2.531   3.748  12.704 -0.2919 -0.0097 -0.0790
10369TIP3    H152598   2.598   3.799  12.748  0.9328 -1.9536  0.4416
10369TIP3    H252599   2.525   3.786  12.616  0.5630  1.0061  0.2880
10370TIP3   OH252600   5.083   0.820   3.110  0.1112  0.0033  0.3589
10370TIP3    H152601   5.150   0.780   3.055  1.0573  3.1699 -0.9965
10370TIP3    H252602   5.110   0.801   3.200 -0.0740 -3.0803 -0.1219
10371TIP3   OH252603   5.986   4.089  12.216 -0.1050  0.4175  0.0564
10371TIP3    H152604   5.984   4.091  12.311 -1.3327 -0.8703  0.0742
10371TIP3    H252605   5.906   4.135  12.189 -1.7803 -2.4048 -0.2276
10372TIP3   OH252606   5.137   0.014   4.879 -0.6712 -0.2727  0.1623
10372TIP3    H152607   5.181  -0.068   4.903  0.5536  0.2507 -0.2080
10372TIP3    H252608   5.209   0.075   4.858 -1.5672  0.2547 -1.6574
10373TIP3   OH252609   3.726   1.425  11.169 -0.5789  0.6798  0.0941
10373TIP3    H152610   3.703   1.506  11.215 -1.0214  0.5231  0.1542
10373TIP3    H252611   3.817   1.438  11.142 -0.9025  1.5445 -0.6310
10374TIP3   OH252612   1.866   6.343  13.023  0.3754  0.1630 -0.2896
10374TIP3    H152613   1.933   6.409  13.003  0.7134 -0.0763  0.0333
10374TIP3    H252614   1.900   6.263  12.982  1.5364 -0.5667  1.9300
10375TIP3   OH252615   4.746   6.817  11.303 -0.1948  0.0191  0.2940
10375TIP3    H152616   4.707   6.736  11.272  1.2049 -0.0980 -1.3146
10375TIP3    H252617   4.726   6.819  11.397 -0.4195 -2.0685  0.3379
10376TIP3   OH252618   5.287   1.120  14.703  0.1047  0.1182 -0.1671
10376TIP3    H152619   5.337   1.128  14.784 -0.4714 -0.3621  0.2409
10376TIP3    H252620   5.209   1.071  14.727 -1.3128  2.1087 -0.4560
10377TIP3   OH252621   4.767   2.881  13.258 -0.2112 -0.0453  0.2887
10377TIP3    H152622   4.855   2.850  13.235 -0.3778  0.7141 -1.5884
10377TIP3    H252623   4.710   2.806  13.240 -0.1285 -0.0261 -0.0555
10378TIP3   OH252624   0.509   1.233   0.045  0.4878 -0.3428  0.1533
10378TIP3    H152625   0.456   1.289   0.101  0.0870  0.4746 -0.9878
10378TIP3    H252626   0.445   1.176   0.001  0.7785 -0.8659  0.3992
10379TIP3   OH252627   4.015   1.391  12.859  0.1065  0.0105  0.3025
10379TIP3    H152628   4.036   1.301  12.834  0.9920 -0.0049  1.0484
10379TIP3    H252629   3.966   1.426  12.784  1.8055 -0.3469 -1.0453
10380TIP3   OH252630   6.135   4.993   3.612  0.5452 -0.1058  0.0339
10380TIP3    H152631   6.131   4.907   3.570  1.4804  1.5790 -3.8909
10380TIP3    H252632   6.228   5.014   3.615  0.4566  0.2194  2.4129
10381TIP3   OH252633   3.082   4.818   3.538 -0.1164 -0.4126 -0.1794
10381TIP3    H152634   2.996   4.825   3.496  0.2315  3.8320 -0.6337
10381TIP3    H252635   3.145   4.830   3.467  0.7651 -0.5900  0.5469
10382TIP3   OH252636   0.306   0.561   5.576 -0.1393  0.6116  0.8576
10382TIP3    H152637   0.276   0.474   5.551 -0.1099  0.5870  0.9084
10382TIP3    H252638   0.332   0.602   5.494 -1.7508  1.1854  0.5790
10383TIP3   OH252639   4.528   2.974  13.183  0.9335 -0.8922 -0.3002
10383TIP3    H152640   4.601   2.952  13.241 -0.5403 -0.9986  1.6324
10383TIP3    H252641   4.533   2.910  13.112  3.1591 -0.3877 -0.7022
10384TIP3   OH252642   1.511   6.534   5.251 -0.5707  0.1928 -0.1977
10384TIP3    H152643   1.457   6.460   5.223  0.9546 -0.5764 -1.2618
10384TIP3    H252644   1.516   6.591   5.174  1.9289 -0.8830 -0.9244
10385TIP3   OH252645   2.887   5.004   2.607  0.1310  0.3869 -0.1982
10385TIP3    H152646   2.838   4.954   2.672  1.5916  0.8911  1.3460
10385TIP3    H252647   2.904   5.088   2.650  1.1084  0.7425 -1.2532
10386TIP3   OH252648   0.797   3.212   2.826  0.2697 -0.4133  0.0270
10386TIP3    H152649   0.828   3.295   2.860 -0.7501  0.3427 -0.8177
10386TIP3    H252650   0.771   3.162   2.904  1.8417 -0.3584  0.6074
10387TIP3   OH252651   5.673   2.070  15.074  0.1492 -0.5323  0.4293
10387TIP3    H152652   5.690   2.064  15.168 -0.0203 -0.8979  0.4353
10387TIP3    H252653   5.599   2.130  15.068  1.7834  1.6243  0.3688
10388TIP3   OH252654   6.402   3.093   0.806  0.2104  0.1517  0.0707
10388TIP3    H152655   6.459   3.142   0.747 -1.8495 -0.0532 -2.2542
10388TIP3    H252656   6.433   3.115   0.893  2.0605  2.1832 -1.0025
10389TIP3   OH252657   2.506   6.585  16.756 -0.4108  0.8053 -0.3255
10389TIP3    H152658   2.573   6.650  16.735  0.0070  0.9636  1.3428
10389TIP3    H252659   2.462   6.621  16.833 -3.5813  1.5155 -2.2698
10390TIP3   OH252660   4.483   1.272  11.826 -0.0937  0.0041  0.3664
10390TIP3    H152661   4.442   1.214  11.762  2.2581 -1.2421 -0.1005
10390TIP3    H252662   4.531   1.336  11.774  1.9000 -1.0601  0.8075
10391TIP3   OH252663   5.030   6.210   3.670  0.2783 -0.0446 -0.4047
10391TIP3    H152664   5.021   6.115   3.675 -0.6296  0.0196 -0.6189
10391TIP3    H252665   5.073   6.225   3.586  1.4290 -0.3083  0.1153
10392TIP3   OH252666   4.072   6.493  14.247 -0.2420 -0.6544 -0.4105
10392TIP3    H152667   4.111   6.549  14.180 -2.5223  0.5351 -0.8448
10392TIP3    H252668   4.043   6.553  14.315 -0.6180 -1.5538  0.2437
10393TIP3   OH252669   0.132   0.777  15.825  0.0758 -0.0244 -0.3307
10393TIP3    H152670   0.206   0.720  15.843 -0.2969 -1.0540 -1.8761
10393TIP3    H252671   0.125   0.833  15.903  0.0654 -2.4926  1.5607
10394TIP3   OH252672   2.255   0.126  15.312 -0.0032  0.1470 -0.2245
10394TIP3    H152673   2.238   0.212  15.274 -0.2103  0.2837  0.1730
10394TIP3    H252674   2.182   0.072  15.284 -0.4247  0.3840  0.3946
10395TIP3   OH252675   5.999   1.169  14.774  0.1663 -0.2339  0.1070
10395TIP3    H152676   6.003   1.211  14.860 -0.3177  0.9597 -0.4288
10395TIP3    H252677   6.073   1.206  14.726 -1.5899  1.8879 -1.1507
10396TIP3   OH252678   2.702   3.171  15.949  0.3031 -0.0942 -0.1427
10396TIP3    H152679   2.656   3.113  15.889  0.2120 -1.0814  0.8573
10396TIP3    H252680   2.785   3.191  15.904  0.2728 -0.8728 -0.5569
10397TIP3   OH252681   0.353   1.084  10.409  0.2683  0.2659 -0.0565
10397TIP3    H152682   0.283   1.021  10.392 -0.1317 -0.5984  3.8135
10397TIP3    H252683   0.417   1.069  10.339 -1.1233 -2.4807 -0.8728
10398TIP3   OH252684   5.940   6.019   0.663  0.0805 -0.8937 -0.3174
10398TIP3    H152685   5.909   5.993   0.576  2.3217  0.3656 -1.5834
10398TIP3    H252686   5.998   5.947   0.690 -0.3575 -1.1275  0.0249
10399TIP3   OH252687   1.140   0.503   5.932  0.4936 -0.5032 -0.9670
10399TIP3    H152688   1.133   0.597   5.953  0.3150 -0.7009 -0.1271
10399TIP3    H252689   1.065   0.487   5.874 -1.6078 -0.8485  1.6512
10400TIP3   OH252690   6.194   1.756   3.795  0.0596 -0.4440  0.3412
10400TIP3    H152691   6.143   1.821   3.843 -0.0374  0.0728 -0.4287
10400TIP3    H252692   6.263   1.807   3.752  0.5173 -0.9749  0.4334
10401TIP3   OH252693   2.401   1.680   1.000  0.4740  0.1316  0.0785
10401TIP3    H152694   2.423   1.723   0.918  0.4601  1.7198  0.8757
10401TIP3    H252695   2.477   1.626   1.019  1.5199  1.5949  0.2011
10402TIP3   OH252696   3.162   0.750  16.661  0.6146  0.0202 -0.3839
10402TIP3    H152697   3.113   0.771  16.740 -1.0275 -2.1970 -0.7206
10402TIP3    H252698   3.225   0.684  16.688  1.5210  0.7878 -0.5464
10403TIP3   OH252699   1.938   6.374   4.404 -0.1560  0.1685  0.0315
10403TIP3    H152700   2.028   6.361   4.374 -0.1945 -0.8684  0.3305
10403TIP3    H252701   1.927   6.469   4.405  1.6654  0.4497  2.1122
10404TIP3   OH252702   6.429   3.993  10.838 -0.4476 -0.4227 -0.4891
10404TIP3    H152703   6.466   3.991  10.750 -0.7866 -0.0248 -0.6423
10404TIP3    H252704   6.338   3.965  10.828 -1.1639  1.7632 -0.6258
10405TIP3   OH252705   5.541   4.340  11.615 -0.2335  0.0759 -0.0050
10405TIP3    H152706   5.611   4.340  11.550  0.3522 -1.6579  0.5523
10405TIP3    H252707   5.573   4.284  11.685 -0.9007  1.7903  1.7630
10406TIP3   OH252708   4.016   4.686  15.138  0.3844  0.3396  0.1491
10406TIP3    H152709   4.103   4.702  15.101  0.9433 -1.3706  0.6563
10406TIP3    H252710   3.969   4.768  15.124  2.7840  2.1373  1.8907
10407TIP3   OH252711   2.512   4.294  13.815  0.7105  0.9873  0.5600
10407TIP3    H152712   2.428   4.252  13.833  1.1447 -0.4211 -0.5041
10407TIP3    H252713   2.513   4.371  13.871 -0.9750  0.6341  1.1279
10408TIP3   OH252714   6.644   5.154   2.748 -0.1853  0.3449  0.2580
10408TIP3    H152715   6.555   5.121   2.749 -0.1545  0.2649  0.3727
10408TIP3    H252716   6.636   5.245   2.717 -0.0704 -0.3229 -1.8752
10409TIP3   OH252717   4.812   4.938   4.741 -0.4269 -0.5173  0.3251
10409TIP3    H152718   4.897   4.949   4.699  0.9872 -2.2261  2.5439
10409TIP3    H252719   4.805   5.012   4.801 -1.1981  0.4004 -0.8547
10410TIP3   OH252720   1.592   3.739  10.762  0.0347  0.4388 -0.5069
10410TIP3    H152721   1.668   3.796  10.767  0.8234 -0.6859  1.5701
10410TIP3    H252722   1.624   3.653  10.791 -1.6148 -0.5409 -1.3922
10411TIP3   OH252723   5.219   3.874  15.778 -0.3309  0.4134  0.1747
10411TIP3    H152724   5.264   3.954  15.804 -0.0430 -0.0360  1.1100
10411TIP3    H252725   5.158   3.857  15.851 -1.2829  0.4483 -0.5872
10412TIP3   OH252726   0.062   5.693   5.102  0.3888 -0.1092  0.0467
10412TIP3    H152727   0.148   5.734   5.107 -0.0261  1.2984 -2.6696
10412TIP3    H252728   0.002   5.764   5.077 -0.9944 -1.6482 -1.2468
10413TIP3   OH252729   2.174   3.794   4.864  0.0865 -0.5105  0.0916
10413TIP3    H152730   2.237   3.852   4.908  0.2230 -0.8437  0.3363
10413TIP3    H252731   2.229   3.726   4.823 -0.2196 -2.2704  2.4153
10414TIP3   OH252732   1.588   2.367   0.738 -0.6713 -0.3467 -0.1564
10414TIP3    H152733   1.629   2.407   0.815  0.2365  0.9866 -1.2747
10414TIP3    H252734   1.506   2.416   0.726  0.2898  1.0552 -1.3411
10415TIP3   OH252735   1.338   3.542   4.441 -0.1431 -0.4505  0.1196
10415TIP3    H152736   1.399   3.478   4.405  0.3191  0.9081 -1.6887
10415TIP3    H252737   1.388   3.588   4.508 -0.2038 -1.3798  0.8177
10416TIP3   OH252738   0.468   2.321   2.125 -0.2689 -0.4466 -0.2208
10416TIP3    H152739   0.556   2.283   2.126  0.4892  1.2415 -0.2660
10416TIP3    H252740   0.428   2.293   2.207  0.5801 -0.5899  0.1428
10417TIP3   OH252741   2.348   0.720  15.854  0.0019  0.0850 -0.8448
10417TIP3    H152742   2.296   0.648  15.890  2.1554 -1.0317  0.2050
10417TIP3    H252743   2.291   0.797  15.861 -1.6252 -1.1390 -0.1140
10418TIP3   OH252744   1.588   5.517   5.077 -0.5499 -0.2737 -0.5087
10418TIP3    H152745   1.550   5.441   5.034 -3.4197  0.0318  1.2083
10418TIP3    H252746   1.514   5.576   5.093  1.2483  2.0528 -0.0561
10419TIP3   OH252747   4.750   3.128  11.212  0.1916  0.3948  0.0039
10419TIP3    H152748   4.658   3.143  11.189 -0.2222  0.0424  1.3316
10419TIP3    H252749   4.795   3.207  11.183 -0.6507  0.8904  0.0026
10420TIP3   OH252750   0.997   1.730   4.464 -0.1453  0.0934 -0.4014
10420TIP3    H152751   1.048   1.799   4.420 -0.8515  0.4570 -0.6734
10420TIP3    H252752   0.942   1.694   4.394 -2.1048  1.4332  0.3747
10421TIP3   OH252753   6.727   2.705  14.147  0.9705 -0.1451 -0.7074
10421TIP3    H152754   6.760   2.627  14.102  0.9700 -0.6633  0.1766
10421TIP3    H252755   6.669   2.671  14.215 -0.2188  0.6911 -1.2606
10422TIP3   OH252756   5.255   5.636  10.806 -0.0415 -0.0919  0.1951
10422TIP3    H152757   5.276   5.629  10.713  0.8505 -0.2131  0.3994
10422TIP3    H252758   5.331   5.600  10.851  0.2473  1.4507  1.0127
10423TIP3   OH252759   6.673   1.026   3.393  0.1010 -0.1615  0.1647
10423TIP3    H152760   6.583   1.047   3.367  0.0538  2.4870  2.1035
10423TIP3    H252761   6.726   1.089   3.346  0.9137 -1.1801 -0.3239
10424TIP3   OH252762   6.512   5.810   1.604  0.7207  0.5951  0.0797
10424TIP3    H152763   6.530   5.850   1.519  2.4757  0.2558  0.2730
10424TIP3    H252764   6.480   5.722   1.583  1.5846  0.3470 -0.2285
10425TIP3   OH252765   4.374   1.360  13.076 -0.2327  0.1150 -0.0487
10425TIP3    H152766   4.403   1.354  12.985  0.0610 -0.7229  0.0893
10425TIP3    H252767   4.309   1.430  13.076  1.2588  1.5521 -0.5004
10426TIP3   OH252768   2.017   0.571   4.509  0.0246 -0.3772 -0.0502
10426TIP3    H152769   2.044   0.493   4.461  2.2571 -0.3136  0.9443
10426TIP3    H252770   2.088   0.634   4.494 -0.2664  0.3855  1.5241
10427TIP3   OH252771   2.858   5.955  14.222  0.0907 -0.7902 -0.1255
10427TIP3    H152772   2.884   5.863  14.223  0.5105 -0.7906 -2.9136
10427TIP3    H252773   2.778   5.957  14.170 -0.6897  0.2930  1.0629
10428TIP3   OH252774   0.070   6.739   3.125  1.2148  0.1348  0.5027
10428TIP3    H152775  -0.011   6.706   3.087  1.2304  2.1208 -1.4623
10428TIP3    H252776   0.092   6.676   3.193 -0.7835 -1.6576 -0.3928
10429TIP3   OH252777   0.183   0.958  16.339  0.0672 -0.3910 -0.1422
10429TIP3    H152778   0.168   0.959  16.244  0.9049 -0.7114 -0.2841
10429TIP3    H252779   0.263   1.009  16.350  0.4138 -1.0286  0.3116
10430TIP3   OH252780   0.554   1.844  11.883  0.0591 -0.3344 -0.0503
10430TIP3    H152781   0.568   1.909  11.814  1.1021  1.0548  1.4078
10430TIP3    H252782   0.498   1.887  11.946 -1.7919 -1.9810 -0.4717
10431TIP3   OH252783   2.094   1.499   2.449 -0.0972  0.3094 -0.2186
10431TIP3    H152784   2.134   1.421   2.408 -0.7720  0.1608 -0.6046
10431TIP3    H252785   2.168   1.558   2.463  0.1264  0.5428 -2.0587
10432TIP3   OH252786   2.587   4.531   0.513 -0.2846 -0.2981  0.3967
10432TIP3    H152787   2.642   4.491   0.446 -0.6857  0.0196 -0.1331
10432TIP3    H252788   2.554   4.611   0.472 -1.1845 -0.5091  0.6776
10433TIP3   OH252789   2.017   2.689  14.149 -0.6286  0.4831 -0.7614
10433TIP3    H152790   2.111   2.673  14.159 -1.1504 -1.4374  2.7964
10433TIP3    H252791   2.005   2.779  14.181 -0.0467  0.5521 -0.7217
10434TIP3   OH252792   5.175   4.783   5.960 -0.3148 -0.2772  0.0942
10434TIP3    H152793   5.114   4.788   6.034  0.7601 -0.4826  1.0343
10434TIP3    H252794   5.227   4.863   5.968  0.9327 -1.1183  0.5891
10435TIP3   OH252795   2.043   3.385  16.380 -0.3661 -0.3458 -0.5869
10435TIP3    H152796   2.030   3.301  16.338  0.2930  0.6269 -2.8666
10435TIP3    H252797   1.989   3.446  16.329 -5.3654  0.0025  4.1131
10436TIP3   OH252798   1.445   0.173  13.228 -0.4562  0.2628 -0.5089
10436TIP3    H152799   1.520   0.124  13.261 -1.6761 -0.3916  1.4755
10436TIP3    H252800   1.376   0.108  13.220 -0.4458  0.4578 -4.0919
10437TIP3   OH252801   0.356   4.622   3.728  0.0938 -0.4335  0.2876
10437TIP3    H152802   0.273   4.598   3.685 -0.3189 -0.3847  1.0410
10437TIP3    H252803   0.347   4.716   3.746  0.4705 -0.3484  0.0515
10438TIP3   OH252804   1.567   4.938  13.392  0.4838  0.0475  0.0111
10438TIP3    H152805   1.604   4.867  13.341  0.6830 -0.2067  0.4983
10438TIP3    H252806   1.643   4.979  13.434  0.3087  0.1326  0.2487
10439TIP3   OH252807   2.435   4.990   2.755 -0.5588 -0.0031  0.1310
10439TIP3    H152808   2.340   4.985   2.747 -0.4838 -0.1643 -0.7906
10439TIP3    H252809   2.468   4.961   2.670  0.2949  0.8728  0.1412
10440TIP3   OH252810   2.715   6.796  12.734 -0.3045  0.2337  0.2041
10440TIP3    H152811   2.781   6.843  12.785 -0.1055  0.3129 -0.1224
10440TIP3    H252812   2.679   6.731  12.794  0.6187 -0.3363  0.1599
10441TIP3   OH252813   1.146   1.112  15.000 -0.5994  0.1018  0.1753
10441TIP3    H152814   1.097   1.045  15.048 -0.1778 -0.2501  0.1250
10441TIP3    H252815   1.218   1.064  14.960 -0.9826  0.3812 -0.8736
10442TIP3   OH252816   6.175   2.170   6.415  0.1957 -0.3059  0.3450
10442TIP3    H152817   6.124   2.089   6.419 -0.1253 -0.0633  1.9742
10442TIP3    H252818   6.147   2.220   6.492  1.7452  0.5220  0.4205
10443TIP3   OH252819   2.472   4.619   4.174  0.0306 -0.0413 -0.1359
10443TIP3    H152820   2.389   4.664   4.193 -0.7475 -0.9484 -1.2708
10443TIP3    H252821   2.454   4.566   4.096  2.6849  2.4723 -2.6950
10444TIP3   OH252822   0.797   4.700  14.761 -0.0988  0.0317 -0.2419
10444TIP3    H152823   0.847   4.636  14.811 -0.0686  0.1383 -0.1350
10444TIP3    H252824   0.804   4.670  14.670  1.6386  0.9990 -0.4735
10445TIP3   OH252825   4.944   6.114   2.056 -0.1671 -0.3877 -0.1973
10445TIP3    H152826   4.964   6.190   2.001  0.2584 -0.3046  0.0682
10445TIP3    H252827   4.875   6.068   2.009  0.7876 -0.7875 -1.2412
10446TIP3   OH252828   2.069   5.644  14.813 -0.1235  0.1630 -0.0129
10446TIP3    H152829   1.989   5.593  14.825 -1.1494  1.4308 -1.0837
10446TIP3    H252830   2.041   5.735  14.827  1.1556  0.6191 -0.2953
10447TIP3   OH252831   6.140   6.429   2.547 -0.6192  0.1658 -0.0076
10447TIP3    H152832   6.171   6.498   2.605 -1.1837  1.3699 -1.1011
10447TIP3    H252833   6.211   6.364   2.547  0.3438  1.1939  0.2798
10448TIP3   OH252834   1.462   1.518  12.533 -0.3818  0.1935  0.0505
10448TIP3    H152835   1.516   1.506  12.611 -3.2248 -2.2162  1.9122
10448TIP3    H252836   1.399   1.586  12.557  0.1557  1.0995 -1.0584
10449TIP3   OH252837   0.619   3.439  10.990  0.5491  0.0298 -0.3375
10449TIP3    H152838   0.710   3.430  11.018  0.6193  0.2268 -0.5004
10449TIP3    H252839   0.622   3.503  10.919  0.2237  0.3550 -0.0591
10450TIP3   OH252840   2.995   5.118   0.729  0.3570  0.1591  0.2166
10450TIP3    H152841   2.939   5.042   0.713  2.0134 -1.4679  1.6675
10450TIP3    H252842   3.055   5.089   0.798  2.1049  2.2644 -0.3106
10451TIP3   OH252843   6.656   3.463  14.731  0.1402  0.1652 -0.4850
10451TIP3    H152844   6.735   3.507  14.699  0.3473  0.2246  0.0902
10451TIP3    H252845   6.682   3.424  14.815  0.2435 -1.9343 -1.4395
10452TIP3   OH252846   2.354   3.888   3.682  0.6285  0.5693 -0.1433
10452TIP3    H152847   2.283   3.833   3.649  1.3948 -0.7419  0.3010
10452TIP3    H252848   2.354   3.964   3.624  0.2063 -0.3939 -1.4611
10453TIP3   OH252849   0.133   3.055   0.043 -0.3619  0.8642 -0.0202
10453TIP3    H152850   0.227   3.036   0.044 -0.4190  0.5753  0.1503
10453TIP3    H252851   0.109   3.059   0.136 -1.0743 -1.9539  0.0218
10454TIP3   OH252852   0.151   6.368   2.563  0.7463  0.1487 -0.2173
10454TIP3    H152853   0.120   6.286   2.524  1.1652 -0.1644  0.1029
10454TIP3    H252854   0.220   6.341   2.624  1.6293  0.8373 -0.9006
10455TIP3   OH252855   2.200   2.591   1.219  0.3910  0.5997 -0.5497
10455TIP3    H152856   2.187   2.591   1.124  1.7444  0.2923 -0.7564
10455TIP3    H252857   2.192   2.683   1.244 -2.5548  0.4304 -0.5275
10456TIP3   OH252858   1.807   6.010   4.835  0.1964  0.2139 -0.3117
10456TIP3    H152859   1.813   6.105   4.823  1.2877  0.1906  0.0177
10456TIP3    H252860   1.726   5.986   4.789  0.5836  1.1155 -1.5387
10457TIP3   OH252861   2.553   4.537   4.995  0.7689 -0.7049  0.3707
10457TIP3    H152862   2.638   4.560   5.033  2.0354 -3.7980 -0.2650
10457TIP3    H252863   2.511   4.483   5.061 -1.0705  1.2105  0.8953
10458TIP3   OH252864   6.374   4.076   4.134 -0.1503  0.1557  0.3041
10458TIP3    H152865   6.412   4.016   4.197 -0.7410 -0.4679  0.0757
10458TIP3    H252866   6.306   4.123   4.183 -0.4763 -0.1893  0.1826
10459TIP3   OH252867   1.816   1.188  13.583 -0.2518  0.2157  0.4048
10459TIP3    H152868   1.872   1.216  13.655  0.2786 -0.3000  0.1993
10459TIP3    H252869   1.756   1.261  13.569  0.5449  0.8885  0.4441
10460TIP3   OH252870   5.028   5.930   3.711  0.2143 -0.5457 -0.3709
10460TIP3    H152871   5.010   5.848   3.665  1.5473 -2.1708  1.7896
10460TIP3    H252872   5.116   5.919   3.745 -0.4709  0.7700  2.0364
10461TIP3   OH252873   5.508   3.475   0.239  0.0395  0.0251 -0.2654
10461TIP3    H152874   5.478   3.558   0.275  3.1998  1.7197 -1.2139
10461TIP3    H252875   5.577   3.446   0.299 -0.0773 -1.2225 -0.6960
10462TIP3   OH252876   5.360   4.137   2.990 -0.1265  0.1584  0.4277
10462TIP3    H152877   5.325   4.187   2.916 -1.5978  0.9085  1.5701
10462TIP3    H252878   5.417   4.072   2.950 -1.4777  0.0354 -1.4441
10463TIP3   OH252879   1.218   5.549  13.528 -0.5078 -0.2290 -0.5884
10463TIP3    H152880   1.308   5.530  13.501  0.1128 -0.8246  1.6652
10463TIP3    H252881   1.197   5.631  13.483  1.7697  0.8023  0.0598
10464TIP3   OH252882   4.009   0.179  13.912  0.3513  0.2244 -0.2863
10464TIP3    H152883   3.988   0.136  13.829  1.6935 -0.0738 -0.4974
10464TIP3    H252884   3.928   0.224  13.937 -0.9879 -1.9837 -0.3127
10465TIP3   OH252885   0.151   3.930   2.804 -0.4134 -0.2335  0.2208
10465TIP3    H152886   0.236   3.957   2.769 -1.3685  2.9338  0.0336
10465TIP3    H252887   0.092   3.932   2.729 -1.5400  2.1528  1.0823
10466TIP3   OH252888   6.596   2.968  12.187  0.2013 -0.0268 -0.2108
10466TIP3    H152889   6.690   2.957  12.172  0.1904  0.2126 -0.4596
10466TIP3    H252890   6.555   2.903  12.129  0.1931  0.2410 -0.5045
10467TIP3   OH252891   1.285   4.276  11.027  0.6079  0.7891  0.1436
10467TIP3    H152892   1.361   4.319  11.066 -0.0498  1.1795  1.0328
10467TIP3    H252893   1.316   4.245  10.942  1.2716  2.5753 -0.3230
10468TIP3   OH252894   5.937   1.340  16.434  0.5947  0.3293  0.3674
10468TIP3    H152895   5.906   1.280  16.366  0.0288  2.2934 -1.2328
10468TIP3    H252896   6.032   1.340  16.426  0.7795 -1.9088  1.8629
10469TIP3   OH252897   4.999   3.470   3.004  0.2426  0.3332  0.1595
10469TIP3    H152898   5.001   3.402   3.071  0.2199  0.4530  0.2815
10469TIP3    H252899   4.907   3.472   2.976  0.1695  0.5627  0.4115
10470TIP3   OH252900   3.729   1.956  15.872 -0.5939 -0.4080 -0.7783
10470TIP3    H152901   3.810   1.948  15.821 -0.8355  0.7228 -1.3881
10470TIP3    H252902   3.758   1.960  15.963 -0.1135 -1.9574 -0.8410
10471TIP3   OH252903   0.153   2.795   5.209 -0.5735  0.2801  0.3301
10471TIP3    H152904   0.081   2.766   5.153  0.7481  0.9102 -1.8177
10471TIP3    H252905   0.136   2.888   5.222  0.2943  0.6312 -0.9373
10472TIP3   OH252906   4.790   3.557   5.726  0.2833  0.7038  0.1148
10472TIP3    H152907   4.874   3.540   5.768 -1.1114 -0.1878  2.7738
10472TIP3    H252908   4.741   3.608   5.790 -1.8944 -0.4972 -0.4821
10473TIP3   OH252909   3.656   6.578   0.635 -0.4509 -0.4838  0.3590
10473TIP3    H152910   3.686   6.643   0.698  0.1977 -0.6051  0.1828
10473TIP3    H252911   3.603   6.628   0.573 -1.9115 -0.5300  1.5339
10474TIP3   OH252912   1.330   2.551   3.657 -0.7274  0.3384 -0.1086
10474TIP3    H152913   1.249   2.507   3.634 -0.0019  0.1095 -2.3789
10474TIP3    H252914   1.400   2.494   3.626  0.2616  1.9738 -1.0672
10475TIP3   OH252915   6.470   4.290  12.052 -0.2221  0.3767 -0.6778
10475TIP3    H152916   6.514   4.284  11.967  1.3628  1.5443  0.0083
10475TIP3    H252917   6.394   4.232  12.044  1.9921 -2.6683 -1.6062
10476TIP3   OH252918   2.948   5.781  11.403 -0.4354  0.1483 -0.0376
10476TIP3    H152919   2.918   5.802  11.315 -2.4058 -2.4995 -0.1389
10476TIP3    H252920   2.872   5.798  11.459 -0.5495 -1.9123  0.5126
10477TIP3   OH252921   3.196   1.462  12.208  0.4813 -0.3594 -0.2291
10477TIP3    H152922   3.197   1.431  12.299 -1.7349  3.1683  1.2056
10477TIP3    H252923   3.278   1.431  12.171  0.7953 -3.2362  2.4509
10478TIP3   OH252924   5.043   1.454   2.994  0.5088 -0.0626 -0.5033
10478TIP3    H152925   4.998   1.392   2.936  0.1825 -0.6372  0.3410
10478TIP3    H252926   5.107   1.400   3.042  0.8114  0.4095 -0.3668
10479TIP3   OH252927   6.869   0.787   4.601 -0.1016  0.3029  0.3673
10479TIP3    H152928   6.789   0.807   4.649 -0.8362 -2.1691  0.3294
10479TIP3    H252929   6.932   0.762   4.668 -0.0346  0.1868  0.2622
10480TIP3   OH252930   3.218   2.726  14.658  0.0852  0.0836 -0.7052
10480TIP3    H152931   3.147   2.692  14.604 -1.3724  1.8949 -0.0345
10480TIP3    H252932   3.186   2.811  14.689  1.9914  0.3341  0.7532
10481TIP3   OH252933   1.153   3.224  14.731  0.6241 -0.4534  0.0033
10481TIP3    H152934   1.205   3.299  14.701 -0.1957  0.2291  0.2343
10481TIP3    H252935   1.206   3.148  14.709  1.6685  0.2064  0.1200
10482TIP3   OH252936   4.303   1.656   5.485  0.7324  0.0040 -0.1221
10482TIP3    H152937   4.390   1.659   5.445 -0.1902  0.4680 -2.2651
10482TIP3    H252938   4.254   1.595   5.430 -0.7808  1.1027 -0.0445
10483TIP3   OH252939   2.176   0.464  13.418 -0.5056  0.3514  0.3994
10483TIP3    H152940   2.124   0.395  13.377  1.4677 -0.8966 -0.1335
10483TIP3    H252941   2.206   0.426  13.500  2.9908 -0.7012 -1.1605
10484TIP3   OH252942   5.081   4.684  10.725 -0.3525 -0.7320  0.1208
10484TIP3    H152943   5.018   4.614  10.736 -0.3156 -1.0235 -1.3246
10484TIP3    H252944   5.123   4.666  10.641 -0.5900  1.1927 -0.4712
10485TIP3   OH252945   1.894   2.936  16.157  0.1195 -0.0183  0.0868
10485TIP3    H152946   1.964   2.884  16.196  0.9780  0.1077 -1.2209
10485TIP3    H252947   1.927   2.959  16.070 -0.9437  1.2979  0.0030
10486TIP3   OH252948   4.374   0.040   2.306 -0.2025  0.0286  0.4333
10486TIP3    H152949   4.376   0.131   2.276 -0.3303  0.1725  0.8560
10486TIP3    H252950   4.442   0.036   2.373 -0.5519 -0.0534  0.7850
10487TIP3   OH252951   0.395   2.296  12.249 -0.1561  0.2638 -0.7166
10487TIP3    H152952   0.388   2.232  12.319 -0.4904  0.8287 -0.2220
10487TIP3    H252953   0.473   2.348  12.271 -0.7165  0.9568 -0.3160
10488TIP3   OH252954   2.213   1.628  16.898  0.2317 -0.3414 -0.0660
10488TIP3    H152955   2.123   1.601  16.879  0.3196 -1.3492  0.8846
10488TIP3    H252956   2.258   1.548  16.922  1.6654 -0.0130 -1.4488
10489TIP3   OH252957   3.886   3.083   4.681  0.0971  0.4284 -0.5062
10489TIP3    H152958   3.863   3.174   4.662 -0.0595  0.3317 -0.7954
10489TIP3    H252959   3.973   3.073   4.642  0.8077  0.8922  0.8885
10490TIP3   OH252960   1.015   1.713   1.097 -0.2536 -0.6010 -0.0936
10490TIP3    H152961   1.006   1.772   1.172 -2.6328 -0.0381 -0.7668
10490TIP3    H252962   1.007   1.625   1.135  1.0442 -0.4468  0.6041
10491TIP3   OH252963   2.653   1.423   1.987 -0.1059 -0.5365 -0.3569
10491TIP3    H152964   2.668   1.404   1.894 -0.6431 -1.6138 -0.2470
10491TIP3    H252965   2.628   1.515   1.990  0.3286 -0.3842 -1.2336
10492TIP3   OH252966   5.472   4.107   0.468  0.2502  0.1655  0.4734
10492TIP3    H152967   5.479   4.198   0.440  0.1253 -0.2299 -0.9263
10492TIP3    H252968   5.535   4.060   0.413 -1.0973 -0.8777 -0.2531
10493TIP3   OH252969   5.972   4.972  10.798 -0.1746  0.2799  0.3225
10493TIP3    H152970   5.903   5.036  10.780 -0.5151 -0.1638  0.0311
10493TIP3    H252971   5.930   4.907  10.855  0.7681  1.4481  2.4252
10494TIP3   OH252972   5.687   5.013  16.124 -0.9660  0.8098  0.0893
10494TIP3    H152973   5.711   4.931  16.166 -1.3554  0.1384 -0.9436
10494TIP3    H252974   5.654   5.068  16.194 -2.4401 -0.5927  0.5384
10495TIP3   OH252975   2.956   0.120  13.956  0.2400 -0.0750  0.3578
10495TIP3    H152976   2.871   0.096  13.918 -0.2132  1.0382  0.6438
10495TIP3    H252977   2.967   0.059  14.030  0.3397 -1.1221 -0.4868
10496TIP3   OH252978   2.553   4.026  15.545  0.0207  0.2965 -0.0860
10496TIP3    H152979   2.486   3.968  15.511  0.5070 -1.0653  1.2046
10496TIP3    H252980   2.506   4.088  15.600 -0.2213 -0.5088  0.6281
10497TIP3   OH252981   5.331   3.850   1.183  0.1958  0.1221  0.3942
10497TIP3    H152982   5.239   3.835   1.160  0.0650  2.2465 -0.6616
10497TIP3    H252983   5.380   3.809   1.111  0.1912 -2.1623  1.6040
10498TIP3   OH252984   6.610   6.276  15.334  0.1440  0.1436 -0.0775
10498TIP3    H152985   6.610   6.334  15.410  0.9226 -0.1046  0.1226
10498TIP3    H252986   6.648   6.329  15.263  1.1620 -0.1991  0.1863
10499TIP3   OH252987   4.716   4.712   1.036 -0.7666  0.8561 -0.2119
10499TIP3    H152988   4.670   4.796   1.037 -1.0540  0.7458 -1.4663
10499TIP3    H252989   4.702   4.679   0.947  1.4462  0.6379 -0.5363
10500TIP3   OH252990   6.683   5.630  11.721  0.2779  0.0692 -0.1738
10500TIP3    H152991   6.721   5.569  11.657 -2.2336 -0.8062 -0.9488
10500TIP3    H252992   6.688   5.583  11.805  0.1401 -0.3965 -0.4230
10501TIP3   OH252993   2.602   1.069   3.765  0.5903 -0.9843  0.1790
10501TIP3    H152994   2.577   1.143   3.709 -1.1565 -0.1116  1.9986
10501TIP3    H252995   2.555   0.994   3.729 -0.6757 -0.3902  0.5554
10502TIP3   OH252996   3.265   1.724  12.494 -0.3529 -0.1845 -0.3147
10502TIP3    H152997   3.211   1.801  12.478  0.4220  0.0970 -1.7197
10502TIP3    H252998   3.212   1.669  12.553 -1.9593  0.2785 -1.2716
10503TIP3   OH252999   5.466   5.686  16.879  0.1575 -0.0245  0.0626
10503TIP3    H153000   5.499   5.687  16.789 -0.9285 -1.9690 -0.4087
10503TIP3    H253001   5.524   5.745  16.926  2.1047 -0.6256 -1.4452
10504TIP3   OH253002   3.741   4.460   2.996 -0.5431 -0.2258 -0.1735
10504TIP3    H153003   3.743   4.490   2.906 -1.1561 -1.5012 -0.6434
10504TIP3    H253004   3.815   4.399   3.003 -1.0293 -0.8183 -0.0850
10505TIP3   OH253005   6.845   1.234  15.626 -0.4726 -0.3501  0.4863
10505TIP3    H153006   6.830   1.204  15.536 -0.3439 -0.0681  0.3685
10505TIP3    H253007   6.936   1.264  15.626 -0.0316 -1.6065  1.0675
10506TIP3   OH253008   2.015   0.235  10.879  0.1067 -0.1714 -0.2614
10506TIP3    H153009   1.968   0.245  10.961  0.8797  1.5193  0.0089
10506TIP3    H253010   1.947   0.238  10.812 -0.3848 -0.0812  0.2312
10507TIP3   OH253011   3.989   3.804   1.238 -0.5810  0.2783  0.3154
10507TIP3    H153012   3.898   3.829   1.223  0.2117  1.5295 -3.4325
10507TIP3    H253013   4.040   3.878   1.206  1.8062 -1.0589  0.7811
10508TIP3   OH253014   2.124   0.930   2.224 -0.1673  0.5814  0.0398
10508TIP3    H153015   2.041   0.962   2.260 -0.5744 -0.5412  0.1432
10508TIP3    H253016   2.141   0.987   2.149 -0.0440  2.0411  1.1308
10509TIP3   OH253017   6.752   5.107   1.856 -0.1748  0.1769 -0.0603
10509TIP3    H153018   6.813   5.041   1.889  1.5143  1.2918 -0.8164
10509TIP3    H253019   6.666   5.075   1.882  0.6588 -1.8287  0.4249
10510TIP3   OH253020   0.545   1.674   1.817  0.0983  1.0376  0.7078
10510TIP3    H153021   0.481   1.632   1.875 -0.7442 -0.2313 -1.0457
10510TIP3    H253022   0.522   1.642   1.730  2.4178  1.4793 -0.1185
10511TIP3   OH253023   6.241   2.342  16.992 -0.2914 -0.2979 -0.5872
10511TIP3    H153024   6.207   2.429  16.970 -0.3628 -0.1730 -0.0045
10511TIP3    H253025   6.194   2.282  16.935 -0.2224  0.0492 -1.0130
10512TIP3   OH253026   0.251   1.214   0.841  0.0468  0.1124 -0.4918
10512TIP3    H153027   0.311   1.255   0.779 -0.5591  2.2501  0.2519
10512TIP3    H253028   0.287   1.234   0.927 -0.4931 -0.6077 -0.0781
10513TIP3   OH253029   3.213   0.208  11.776 -0.3666  0.3744 -0.1317
10513TIP3    H153030   3.306   0.195  11.758 -0.1908 -1.4384  1.6924
10513TIP3    H253031   3.171   0.203  11.691  1.0946  0.0073 -0.8574
10514TIP3   OH253032   2.116   5.949   1.427 -0.3733  0.3225 -0.3888
10514TIP3    H153033   2.103   5.995   1.510 -0.7867  0.9779 -0.8047
10514TIP3    H253034   2.202   5.977   1.397 -1.2182  2.0219 -1.3580
10515TIP3   OH253035   5.381   6.431   3.223 -0.2220  0.1615  0.5596
10515TIP3    H153036   5.345   6.464   3.305 -1.7437 -0.5144  0.2028
10515TIP3    H253037   5.335   6.348   3.208  1.1631 -0.5154 -0.1930
10516TIP3   OH253038   1.849   2.818   3.101  0.2322  0.2718 -0.7226
10516TIP3    H153039   1.934   2.810   3.058 -0.3265 -1.1370 -1.6394
10516TIP3    H253040   1.867   2.870   3.180  1.6917  1.0258 -1.5093
10517TIP3   OH253041   3.105   4.896   3.051  0.5140  0.2570 -0.2451
10517TIP3    H153042   3.127   4.927   2.963  0.2101  0.3345 -0.2959
10517TIP3    H253043   3.118   4.802   3.047  0.6383  0.2764 -0.3301
10518TIP3   OH253044   5.478   2.512  12.839 -0.0519  0.3945  0.3644
10518TIP3    H153045   5.397   2.506  12.889 -0.4593  1.8709 -0.0835
10518TIP3    H253046   5.544   2.472  12.896 -1.1231 -1.1864  0.5795
10519TIP3   OH253047   3.851   5.166  17.033  0.4878  0.6507 -0.0748
10519TIP3    H153048   3.824   5.253  17.002  0.9055  0.8137  0.0073
10519TIP3    H253049   3.903   5.131  16.961  1.7030  1.1460  0.5338
10520TIP3   OH253050   0.623   0.974   4.948 -0.0193 -0.0346 -0.1807
10520TIP3    H153051   0.597   1.022   4.870  0.1185 -0.5380 -0.5406
10520TIP3    H253052   0.636   0.884   4.918  0.5663 -0.1213  0.3107
10521TIP3   OH253053   1.961   5.210   1.929  0.4648 -0.5487  0.4194
10521TIP3    H153054   1.868   5.228   1.915  0.7723 -0.0286 -1.1501
10521TIP3    H253055   2.000   5.296   1.942  1.2751 -0.3111 -2.7856
10522TIP3   OH253056   1.006   6.106   1.004  0.2704  0.0366  0.9102
10522TIP3    H153057   0.968   6.031   0.959  0.9714 -0.5218  1.2262
10522TIP3    H253058   0.935   6.169   1.010  0.3941  0.6141 -1.9752
10523TIP3   OH253059   0.226   6.444   0.627  0.3026 -0.3681  0.4225
10523TIP3    H153060   0.249   6.369   0.571  0.1187  0.6539 -1.0981
10523TIP3    H253061   0.274   6.517   0.590 -2.9624  1.2363 -1.0961
10524TIP3   OH253062   0.606   5.566   5.753  0.5425 -0.2845 -0.2287
10524TIP3    H153063   0.598   5.650   5.708  2.5914 -0.1901 -0.4966
10524TIP3    H253064   0.695   5.536   5.734  1.1089 -0.8272  2.7634
10525TIP3   OH253065   4.682   0.622   1.355  0.5579 -0.3508 -0.4753
10525TIP3    H153066   4.613   0.680   1.387  0.7856  0.0169 -0.6411
10525TIP3    H253067   4.712   0.575   1.433  1.1736  0.6070 -0.1113
10526TIP3   OH253068   2.163   5.418  12.016  0.1805 -0.5395 -0.2529
10526TIP3    H153069   2.119   5.494  11.979 -0.1693  0.0469  1.3238
10526TIP3    H253070   2.104   5.386  12.084  1.1296 -1.1439  0.3100
10527TIP3   OH253071   5.444   1.881   3.824 -0.2576 -0.1900 -0.3778
10527TIP3    H153072   5.369   1.872   3.883 -0.2433 -3.3791 -0.6384
10527TIP3    H253073   5.512   1.924   3.876 -1.1286 -0.4668  1.0179
10528TIP3   OH253074   6.542   4.990  16.578  0.1602 -0.2610  0.6890
10528TIP3    H153075   6.478   4.962  16.644  0.6653 -0.8207  0.9504
10528TIP3    H253076   6.605   5.043  16.627  0.0971 -0.0136  0.5013
10529TIP3   OH253077   6.809   3.992   5.828 -0.1167 -0.1155 -0.1785
10529TIP3    H153078   6.893   3.947   5.833  0.8679  1.6127 -0.4102
10529TIP3    H253079   6.832   4.084   5.814 -2.0345  0.5414  0.7199
10530TIP3   OH253080   4.891   3.061   3.801  0.0923  0.5128  0.5575
10530TIP3    H153081   4.860   3.099   3.884  2.1106  0.1011  1.5873
10530TIP3    H253082   4.845   2.978   3.794 -0.3092  0.6741  1.1291
10531TIP3   OH253083   3.675   0.346   2.566  0.3453  0.6625  0.1588
10531TIP3    H153084   3.761   0.354   2.525  0.2502  1.3822  0.0880
10531TIP3    H253085   3.665   0.427   2.616 -0.0108  0.2856  0.7061
10532TIP3   OH253086   1.443   4.542   5.899 -0.5036 -0.2325 -0.4733
10532TIP3    H153087   1.350   4.554   5.916  0.2417  4.2320  2.1821
10532TIP3    H253088   1.461   4.598   5.824  0.2932  0.7992  0.4486
10533TIP3   OH253089   3.000   2.563   1.222  0.5497 -0.1772  0.7524
10533TIP3    H153090   2.984   2.579   1.129  0.3797 -0.0256  0.8055
10533TIP3    H253091   2.921   2.519   1.252  0.2101  0.5952  1.0229
10534TIP3   OH253092   6.006   5.400  12.844  0.4424  0.1088  0.1158
10534TIP3    H153093   5.947   5.464  12.805  1.8575 -0.1454 -2.6928
10534TIP3    H253094   5.958   5.318  12.843  0.4651  0.0995 -1.2266
10535TIP3   OH253095   6.198   2.972  14.136  0.3257  0.1151  0.2281
10535TIP3    H153096   6.223   2.963  14.228 -2.0481  2.3394  1.2089
10535TIP3    H253097   6.160   2.887  14.113 -1.0027  0.1550  2.0221
10536TIP3   OH253098   4.990   5.771   5.358 -0.5216 -0.2856 -0.5040
10536TIP3    H153099   5.050   5.698   5.375 -1.3908 -1.0692 -0.7094
10536TIP3    H253100   5.029   5.846   5.403 -0.1892 -1.1377  0.6568
10537TIP3   OH253101   0.521   0.917   6.694 -0.7021  0.1944  0.5915
10537TIP3    H153102   0.510   1.012   6.693 -0.5481  0.2209  1.3090
10537TIP3    H253103   0.567   0.898   6.776  0.7513 -0.3365 -0.3066
10538TIP3   OH253104   6.629   4.456  13.540  0.3501  0.3818  0.0466
10538TIP3    H153105   6.657   4.548  13.542  1.1148  0.1588 -0.0998
10538TIP3    H253106   6.650   4.427  13.452  2.4354 -0.6169  0.7965
10539TIP3   OH253107   1.148   4.548  11.122  0.3119  0.5695 -0.1527
10539TIP3    H153108   1.157   4.469  11.175  0.7165  0.1825 -0.7776
10539TIP3    H253109   1.215   4.608  11.156  0.2758  0.4890  0.0593
10540TIP3   OH253110   5.694   6.678   0.418 -0.2075  0.0528 -0.1765
10540TIP3    H153111   5.775   6.679   0.469 -0.0018  0.1800 -0.5009
10540TIP3    H253112   5.645   6.753   0.451 -0.2852 -0.1390  0.1588
10541TIP3   OH253113   6.702   0.071   5.361  0.1821  0.1804 -0.3818
10541TIP3    H153114   6.702   0.140   5.427  0.7152  0.7758 -1.0045
10541TIP3    H253115   6.735  -0.006   5.408 -1.2234  0.1083  0.5388
10542TIP3   OH253116   6.132   0.276  15.140  0.3254  0.1980 -0.0842
10542TIP3    H153117   6.190   0.201  15.153 -0.3960 -0.3696 -0.0316
10542TIP3    H253118   6.114   0.309  15.228 -1.3546 -1.1526  0.1444
10543TIP3   OH253119   5.892   4.674   1.461 -0.2781  0.2071 -0.6782
10543TIP3    H153120   5.815   4.664   1.405 -0.6277 -1.5011  0.0401
10543TIP3    H253121   5.864   4.737   1.528 -1.5801 -1.3856  0.3556
10544TIP3   OH253122   6.591   4.747   5.473 -0.4137  0.1765 -0.1893
10544TIP3    H153123   6.678   4.781   5.451 -0.6071  2.2494  1.9121
10544TIP3    H253124   6.607   4.685   5.544 -0.6719  1.3525  0.9426
10545TIP3   OH253125   0.122   4.384  15.757 -0.4310  0.5735  0.7232
10545TIP3    H153126   0.030   4.362  15.743 -0.2015 -0.3240  0.5580
10545TIP3    H253127   0.149   4.427  15.675 -0.7804  1.1404  0.8976
10546TIP3   OH253128   2.939   0.792   2.555 -0.4789 -0.2724 -0.3878
10546TIP3    H153129   2.866   0.838   2.596  0.8451  1.3544  0.2244
10546TIP3    H253130   2.922   0.800   2.461 -1.1391 -0.0089 -0.2519
10547TIP3   OH253131   1.937   2.161   4.343  0.0335 -0.7167  0.0920
10547TIP3    H153132   1.878   2.122   4.407  0.3311 -0.2729  0.6476
10547TIP3    H253133   1.886   2.165   4.262 -0.6739 -0.4152  0.5446
10548TIP3   OH253134   1.890   0.676  16.950  0.3430  0.4358 -0.0475
10548TIP3    H153135   1.874   0.637  16.864 -1.8473  1.2566 -0.0707
10548TIP3    H253136   1.898   0.769  16.933 -0.9183  0.7033  0.6873
10549TIP3   OH253137   5.784   4.760  16.428 -0.3242 -0.6319  0.4702
10549TIP3    H153138   5.806   4.829  16.491  0.0512 -1.5764  1.3965
10549TIP3    H253139   5.868   4.735  16.389 -0.1381 -1.9847  1.6553
10550TIP3   OH253140   0.483   2.446  12.594  0.2698  0.3829  0.0658
10550TIP3    H153141   0.534   2.438  12.675  0.7352 -1.7934 -0.3953
10550TIP3    H253142   0.462   2.356  12.569  0.0725  0.9933 -2.1991
10551TIP3   OH253143   5.579   5.807  13.733  0.3654  0.3391 -0.1788
10551TIP3    H153144   5.611   5.717  13.738 -0.0983  0.2102  0.7337
10551TIP3    H253145   5.568   5.833  13.824  1.6372  1.7445 -0.3807
10552TIP3   OH253146   5.043   6.311  14.897  0.5014 -0.4399  0.5311
10552TIP3    H153147   5.060   6.312  14.991 -1.0086  0.3503  0.8414
10552TIP3    H253148   4.948   6.296  14.890  0.5341 -0.1857 -0.8480
10553TIP3   OH253149   3.779   3.096   3.038 -0.6399 -0.2096 -0.2988
10553TIP3    H153150   3.788   3.029   2.971 -1.5814  0.1383 -0.7989
10553TIP3    H253151   3.720   3.057   3.103 -1.3003  0.1760 -0.6606
10554TIP3   OH253152   2.078   1.305   3.921  0.2944 -0.0954 -0.4646
10554TIP3    H153153   2.082   1.215   3.953 -0.6247  0.2232  0.6300
10554TIP3    H253154   1.997   1.340   3.958  1.2240  1.5545  0.1060
10555TIP3   OH253155   1.807   5.468  11.934  0.0093 -0.1897  0.3481
10555TIP3    H153156   1.866   5.392  11.926  0.0061 -0.0485 -1.8022
10555TIP3    H253157   1.725   5.438  11.896 -0.0247  0.8271 -0.4303
10556TIP3   OH253158   5.962   3.422  11.546  0.5150 -0.0468 -0.2188
10556TIP3    H153159   6.003   3.356  11.489  1.5559 -0.3460  0.8508
10556TIP3    H253160   5.869   3.418  11.524  0.2032 -3.3276  1.1812
10557TIP3   OH253161   0.229   3.648   0.706 -0.1339 -0.4545 -0.2951
10557TIP3    H153162   0.222   3.699   0.787  0.0280 -1.2154  0.2085
10557TIP3    H253163   0.147   3.599   0.702 -0.6483  0.4423 -1.2048
10558TIP3   OH253164   6.046   6.484  11.832  0.3939  0.2419  0.0369
10558TIP3    H153165   6.034   6.577  11.850 -0.7667  0.0117  0.5932
10558TIP3    H253166   6.022   6.441  11.914 -2.5878 -0.7183 -1.1840
10559TIP3   OH253167   6.013   4.121   6.386 -0.2680 -0.0688  0.6050
10559TIP3    H153168   6.082   4.181   6.414 -0.5710 -0.2470  1.8066
10559TIP3    H253169   5.949   4.123   6.458 -2.0518  0.8839 -0.9067
10560TIP3   OH253170   2.652   1.655  11.136 -0.5790 -0.5069  0.0484
10560TIP3    H153171   2.664   1.649  11.230 -2.0916  0.5846  0.3360
10560TIP3    H253172   2.592   1.584  11.115 -2.2036  0.7433  0.3162
10561TIP3   OH253173   2.858   3.859  15.499  0.3512  0.0698 -0.4295
10561TIP3    H153174   2.874   3.811  15.418 -0.8869  1.1985 -1.3708
10561TIP3    H253175   2.764   3.875  15.500  0.5224  1.1906  0.6011
10562TIP3   OH253176   0.441   1.515   5.436  0.0068 -0.0402  0.2712
10562TIP3    H153177   0.458   1.552   5.522 -0.4534  1.2393 -0.1602
10562TIP3    H253178   0.357   1.553   5.410  0.9994  1.1009 -1.4923
10563TIP3   OH253179   3.055   0.844  16.905  0.1632  0.1835  0.0450
10563TIP3    H153180   3.030   0.936  16.896 -1.9921 -0.4231 -0.9269
10563TIP3    H253181   3.118   0.843  16.977  1.3393  2.5722 -0.8165
10564TIP3   OH253182   2.698   0.514  10.953 -0.2499 -0.4138 -0.2196
10564TIP3    H153183   2.633   0.506  11.023  0.1893 -1.5908  0.0788
10564TIP3    H253184   2.711   0.608  10.943 -0.2203 -0.2236  1.3687
10565TIP3   OH253185   2.274   2.072  13.252  0.0943  0.1219  0.0717
10565TIP3    H153186   2.324   2.109  13.325  0.3842 -0.7217  0.3124
10565TIP3    H253187   2.335   2.071  13.179  0.0831  0.1244  0.0622
10566TIP3   OH253188   5.279   1.325  11.685 -0.4587 -0.3368 -0.1772
10566TIP3    H153189   5.295   1.234  11.661 -1.3135 -0.4748 -0.2788
10566TIP3    H253190   5.212   1.320  11.753 -2.7852  0.3097 -2.2723
10567TIP3   OH253191   1.234   2.800  12.352  0.3704  0.3063  0.2327
10567TIP3    H153192   1.319   2.838  12.372  0.9453  0.0505 -1.5180
10567TIP3    H253193   1.253   2.709  12.329  0.0592  0.9055 -2.7756
10568TIP3   OH253194   4.325   5.183   4.728 -1.1153  0.4275  0.4895
10568TIP3    H153195   4.332   5.160   4.820  0.7474  0.2978  0.3483
10568TIP3    H253196   4.318   5.278   4.727 -0.4859  0.4806  0.7501
10569TIP3   OH253197   2.534   2.900   0.800 -0.3029  0.2163  0.3398
10569TIP3    H153198   2.497   2.982   0.835  0.4134  0.3823  0.7270
10569TIP3    H253199   2.501   2.896   0.710  0.7527  1.6427 -0.1435
10570TIP3   OH253200   4.952   2.481   2.794 -0.1147 -0.8964  0.6415
10570TIP3    H153201   4.974   2.510   2.706 -0.1817 -0.9506  0.6066
10570TIP3    H253202   5.021   2.516   2.849 -0.9967  0.6664  0.8260
10571TIP3   OH253203   2.587   4.959  12.434  0.2463  0.5193  0.8075
10571TIP3    H153204   2.573   5.038  12.382 -0.3310  0.0628  0.2487
10571TIP3    H253205   2.619   4.991  12.518 -0.1910  1.3638  0.6678
10572TIP3   OH253206   2.451   1.445   6.266  0.0986  0.0175 -0.3453
10572TIP3    H153207   2.469   1.403   6.182  0.1840 -0.7439  0.0467
10572TIP3    H253208   2.533   1.439   6.314 -0.4723 -1.3136  0.5300
10573TIP3   OH253209   5.445   4.868  16.411  0.3180  0.0270 -0.2304
10573TIP3    H153210   5.473   4.923  16.484 -1.7119 -0.4392  0.9902
10573TIP3    H253211   5.475   4.781  16.434  0.7798  0.0957 -0.5803
10574TIP3   OH253212   1.084   1.541   0.406  0.2479  0.3065  0.1446
10574TIP3    H153213   1.172   1.532   0.441  0.1242 -0.7187  0.2332
10574TIP3    H253214   1.040   1.459   0.430 -1.4799  1.7194  2.2172
10575TIP3   OH253215   1.588   6.814   6.525  0.0827 -0.2544  0.3988
10575TIP3    H153216   1.565   6.795   6.616  1.8479 -0.1965  0.9000
10575TIP3    H253217   1.671   6.768   6.511  1.5812  2.4057 -0.1271
10576TIP3   OH253218   0.746   6.023  12.087 -0.1241 -0.0605  0.3443
10576TIP3    H153219   0.837   6.050  12.083 -0.6845  1.9464 -2.0626
10576TIP3    H253220   0.744   5.936  12.047  0.6314  0.3811 -0.7091
10577TIP3   OH253221   1.372   3.164  15.553  1.1808  0.7214  0.6141
10577TIP3    H153222   1.287   3.178  15.512  0.8617  0.9439  1.3236
10577TIP3    H253223   1.414   3.096  15.500 -0.1263 -0.6178  1.2166
10578TIP3   OH253224   6.380   3.238   2.819  0.1196  0.1319 -0.6572
10578TIP3    H153225   6.438   3.298   2.867  1.5366 -1.4857 -0.2364
10578TIP3    H253226   6.377   3.273   2.731 -0.3469  1.6655 -0.0644
10579TIP3   OH253227   1.133   3.758  12.101 -0.7798  0.5478 -0.1317
10579TIP3    H153228   1.221   3.784  12.074 -0.1496 -0.6662  0.6584
10579TIP3    H253229   1.105   3.697  12.032 -1.7292  2.2184 -1.2921
10580TIP3   OH253230   0.073   1.305   4.093  1.1169 -0.2091 -0.1994
10580TIP3    H153231  -0.016   1.318   4.124  1.0284 -1.2271 -0.0233
10580TIP3    H253232   0.075   1.350   4.008  0.8406  0.9897  0.4084
10581TIP3   OH253233   1.937   1.974   0.416  0.2190  0.0992  0.4135
10581TIP3    H153234   1.898   2.044   0.469 -0.7104  0.0902 -0.2447
10581TIP3    H253235   1.923   1.894   0.467 -0.1881  0.1665  0.4087
10582TIP3   OH253236   3.124   0.127  12.009 -0.2025 -0.3822  0.3258
10582TIP3    H153237   3.128   0.144  11.915 -0.3137 -1.2750  0.1552
10582TIP3    H253238   3.030   0.135  12.030 -0.2189 -0.5035  0.2990
10583TIP3   OH253239   2.981   6.597  14.391 -0.2835  0.4044 -0.1947
10583TIP3    H153240   2.974   6.593  14.296 -0.1889  0.4875 -0.2051
10583TIP3    H253241   3.074   6.586  14.409 -0.1310  1.5993 -0.1785
10584TIP3   OH253242   0.888   4.433  12.560  0.3605  0.4240 -0.1629
10584TIP3    H153243   0.809   4.436  12.505  1.2960  0.9971 -1.5363
10584TIP3    H253244   0.927   4.519  12.550  1.8819 -0.2874 -0.6238
10585TIP3   OH253245   2.647   1.770  13.082  0.0952 -0.4523 -0.5574
10585TIP3    H153246   2.649   1.833  13.010  3.0577 -0.6287 -0.7385
10585TIP3    H253247   2.609   1.691  13.043 -1.3127  0.4016 -1.0019
10586TIP3   OH253248   0.453   4.315  14.578 -0.3738  0.5649  0.0113
10586TIP3    H153249   0.449   4.350  14.667 -2.8331 -2.5110  1.2811
10586TIP3    H253250   0.540   4.341  14.546  0.7006  1.6166  3.3461
10587TIP3   OH253251   0.453   2.157  15.437 -0.8739  0.6283 -0.2552
10587TIP3    H153252   0.367   2.115  15.429 -0.9233  0.5629  0.5914
10587TIP3    H253253   0.439   2.230  15.496 -0.4669  0.9704 -0.5777
10588TIP3   OH253254   0.903   6.880  13.991  0.6299 -0.0097 -0.1813
10588TIP3    H153255   0.994   6.895  14.018  1.4113 -0.4365 -2.3977
10588TIP3    H253256   0.884   6.949  13.928 -1.1572  0.9934  1.3349
10589TIP3   OH253257   4.336   2.972  12.756 -0.1336 -0.2812 -0.2737
10589TIP3    H153258   4.365   2.911  12.823 -0.4393  1.7999  1.8930
10589TIP3    H253259   4.346   2.925  12.673  0.2368 -2.9620  1.2189
10590TIP3   OH253260   2.904   0.225  12.422  0.4868  0.0027  0.6906
10590TIP3    H153261   2.843   0.200  12.491  0.9945  1.6381  1.7869
10590TIP3    H253262   2.880   0.169  12.348 -1.0085 -0.8001  1.7213
10591TIP3   OH253263   1.342   1.513  14.733 -0.1350 -0.1573  0.1431
10591TIP3    H153264   1.395   1.455  14.788 -1.4160  0.1440  1.7610
10591TIP3    H253265   1.401   1.539  14.662  0.3301 -4.0130 -1.1526
10592TIP3   OH253266   3.954   2.563   3.090  0.1356  0.2888 -0.2381
10592TIP3    H153267   3.998   2.501   3.149  2.1837  1.4461 -0.4569
10592TIP3    H253268   3.871   2.520   3.068  0.6611 -1.5272  1.0689
10593TIP3   OH253269   4.700   2.373  11.150 -0.2787 -0.0192  0.0392
10593TIP3    H153270   4.656   2.458  11.141 -1.0819 -0.4714 -0.4358
10593TIP3    H253271   4.717   2.346  11.060 -0.6733 -0.6819  0.1542
10594TIP3   OH253272   1.060   2.650  16.237  0.6649 -0.4527 -0.5441
10594TIP3    H153273   1.129   2.628  16.300 -0.9212 -0.3812  1.2968
10594TIP3    H253274   1.059   2.575  16.177  1.2880 -1.1966  0.3317
10595TIP3   OH253275   2.367   6.278   3.755  0.6243 -0.1411  0.0410
10595TIP3    H153276   2.280   6.259   3.720  1.1903  0.1478 -1.6470
10595TIP3    H253277   2.370   6.233   3.839 -1.0118 -0.4785 -0.0495
10596TIP3   OH253278   2.144   3.706   3.639  0.3039  0.8972  0.1870
10596TIP3    H153279   2.083   3.652   3.689  0.3350  0.1161 -0.6080
10596TIP3    H253280   2.087   3.762   3.585  0.2411 -0.7774 -1.5770
10597TIP3   OH253281   2.678   4.923  11.529 -0.1389 -0.3437 -0.1998
10597TIP3    H153282   2.760   4.897  11.487 -0.4289  1.1615 -1.8019
10597TIP3    H253283   2.705   4.967  11.609  0.5302 -1.2477  0.0903
10598TIP3   OH253284   1.266   3.119   4.363 -0.1779  0.1207 -0.2924
10598TIP3    H153285   1.200   3.120   4.432  0.2705 -0.2837  0.1515
10598TIP3    H253286   1.299   3.029   4.363 -1.0463 -0.2482 -1.8878
10599TIP3   OH253287   0.378   1.330   3.477 -0.0182 -0.1064 -0.1215
10599TIP3    H153288   0.341   1.418   3.468 -1.8071 -0.7599  0.3159
10599TIP3    H253289   0.324   1.288   3.545  1.0147 -1.4320 -0.0663
10600TIP3   OH253290   1.043   5.143   5.168 -0.3209  0.1372 -0.4789
10600TIP3    H153291   1.003   5.165   5.084 -0.4162  0.0208 -0.4646
10600TIP3    H253292   1.088   5.060   5.154  0.5143  0.6168 -0.6807
10601TIP3   OH253293   3.448   0.792  10.703  0.9493 -0.6857  0.1900
10601TIP3    H153294   3.406   0.871  10.738 -0.5987 -1.7232  0.7926
10601TIP3    H253295   3.432   0.796  10.609 -0.7095 -1.1181  0.4160
10602TIP3   OH253296   3.853   2.522   3.398  0.0297 -0.7646 -0.3434
10602TIP3    H153297   3.790   2.585   3.433  1.9895  0.0320  2.0471
10602TIP3    H253298   3.800   2.454   3.357 -2.3228  0.2896  0.7973
10603TIP3   OH253299   3.781   1.906   3.602 -0.0041 -0.6065 -0.6058
10603TIP3    H153300   3.874   1.927   3.615 -0.2551 -0.2353  0.7260
10603TIP3    H253301   3.782   1.821   3.559  0.9500 -1.0740  0.2985
10604TIP3   OH253302   2.151   0.763  11.812  0.3905 -0.0505 -0.3362
10604TIP3    H153303   2.108   0.700  11.754  1.0864  0.6967 -1.7099
10604TIP3    H253304   2.139   0.847  11.769 -0.0055  0.7059  1.1700
10605TIP3   OH253305   4.131   5.502   4.447  0.1085  0.2770 -0.0650
10605TIP3    H153306   4.065   5.462   4.390  1.2689 -0.1735 -1.1447
10605TIP3    H253307   4.203   5.439   4.448  0.9770  1.2520  0.1820
10606TIP3   OH253308   0.290   4.354   2.578  0.2219 -0.2771  0.0321
10606TIP3    H153309   0.251   4.442   2.580  1.5968  0.4145 -1.3023
10606TIP3    H253310   0.220   4.299   2.543 -0.2527  0.5478 -0.3631
10607TIP3   OH253311   4.684   6.392  11.989  0.5645  0.5582 -0.1991
10607TIP3    H153312   4.690   6.314  12.043  0.6403  0.7456  0.0630
10607TIP3    H253313   4.718   6.364  11.903  1.0605  0.4318  0.0323
10608TIP3   OH253314   6.355   0.347  16.720  0.0679 -0.2075 -0.2426
10608TIP3    H153315   6.285   0.372  16.660 -1.2059 -2.6490  0.0962
10608TIP3    H253316   6.433   0.389  16.684 -0.9455 -0.2698 -2.7098
10609TIP3   OH253317   5.686   3.301  10.933  0.3467  0.3620  0.4341
10609TIP3    H153318   5.767   3.349  10.953  0.5399 -0.6750  2.4274
10609TIP3    H253319   5.693   3.221  10.984 -0.9553 -0.8088 -1.1253
10610TIP3   OH253320   6.435   5.181  12.413 -0.1096 -0.5012 -0.3680
10610TIP3    H153321   6.487   5.254  12.447 -1.3117  0.6333 -0.8503
10610TIP3    H253322   6.442   5.113  12.480  0.5376  0.2939  0.3960
10611TIP3   OH253323   3.231   5.757  16.917 -0.0722 -0.1448  0.3341
10611TIP3    H153324   3.323   5.781  16.906  0.1665 -0.5524  1.2784
10611TIP3    H253325   3.203   5.805  16.995 -0.0191 -1.6867  1.3440
10612TIP3   OH253326   5.359   4.606  11.695 -0.2760 -0.2109  0.1287
10612TIP3    H153327   5.389   4.532  11.642 -1.8519 -0.3035 -0.6769
10612TIP3    H253328   5.357   4.680  11.634  1.6912  0.6593  1.0228
10613TIP3   OH253329   0.049   1.242  13.004 -1.0590  0.0785 -0.3765
10613TIP3    H153330   0.125   1.246  12.946  0.1803  1.6194  1.2257
10613TIP3    H253331  -0.023   1.276  12.952 -0.1415  0.7338 -1.2483
10614TIP3   OH253332   2.519   4.173   2.594  0.0095  0.1597  0.4975
10614TIP3    H153333   2.599   4.201   2.549  1.2373 -0.4659  2.1642
10614TIP3    H253334   2.453   4.237   2.569  0.9760  0.6224 -1.0336
10615TIP3   OH253335   0.865   3.467  15.407 -0.3975  0.2940  0.5236
10615TIP3    H153336   0.807   3.423  15.345 -0.5466 -0.4133  1.1442
10615TIP3    H253337   0.806   3.505  15.473 -0.1539 -1.3650  1.7681
10616TIP3   OH253338   6.696   0.230  10.461  0.2001  0.3369 -0.6427
10616TIP3    H153339   6.614   0.272  10.436  1.3653  3.8072  0.7552
10616TIP3    H253340   6.748   0.301  10.500  3.0068 -2.1796  0.5479
10617TIP3   OH253341   3.812   6.701  13.164  0.2957 -0.5296 -0.7452
10617TIP3    H153342   3.796   6.610  13.139  1.4207 -0.9951  0.1739
10617TIP3    H253343   3.772   6.752  13.093 -0.9422 -1.7064 -0.9355
10618TIP3   OH253344   2.423   6.374   5.188 -0.4503 -0.0833  0.0666
10618TIP3    H153345   2.494   6.421   5.144 -1.4985  0.5989 -0.9612
10618TIP3    H253346   2.420   6.289   5.143  0.6094 -0.6834  1.0683
10619TIP3   OH253347   0.086   6.679  13.842 -0.1445  0.0046 -0.4814
10619TIP3    H153348   0.162   6.624  13.860  0.1793  0.4130 -0.6052
10619TIP3    H253349   0.117   6.744  13.780 -0.8230 -0.3758 -1.2415
10620TIP3   OH253350   3.769   6.460  14.772  0.2141 -0.6163  0.3161
10620TIP3    H153351   3.747   6.371  14.800 -1.1128 -0.2185  0.5768
10620TIP3    H253352   3.685   6.501  14.750  0.8976  0.2465 -0.8188
10621TIP3   OH253353   3.473   4.256   1.958  0.3024 -0.0823  0.3180
10621TIP3    H153354   3.385   4.264   1.995  0.2667 -0.0233  0.2236
10621TIP3    H253355   3.499   4.166   1.975 -0.1353 -0.3669 -0.4309
10622TIP3   OH253356   2.233   2.919   5.718  0.5544 -0.1565 -0.3183
10622TIP3    H153357   2.143   2.892   5.734  0.4306  0.6216  0.3509
10622TIP3    H253358   2.286   2.841   5.738 -0.0693 -1.1778 -2.4139
10623TIP3   OH253359   5.618   6.115  12.426 -0.2700 -0.4871  0.2892
10623TIP3    H153360   5.583   6.200  12.452  0.2613  0.1785 -1.0949
10623TIP3    H253361   5.540   6.061  12.410 -0.7677  0.8382 -2.3183
10624TIP3   OH253362   1.116   0.389   2.909  0.4286  0.1109 -0.3364
10624TIP3    H153363   1.033   0.407   2.866  0.8948  0.9259 -0.9153
10624TIP3    H253364   1.176   0.365   2.838  0.4078 -1.6226  0.1838
10625TIP3   OH253365   3.484   5.599  11.557 -0.0240  0.1124 -0.0012
10625TIP3    H153366   3.579   5.587  11.568 -0.0949 -0.7265 -0.1747
10625TIP3    H253367   3.454   5.513  11.527 -0.9257  0.2011  0.6341
10626TIP3   OH253368   0.416   3.236  16.102  0.2664 -0.5244  0.1220
10626TIP3    H153369   0.444   3.158  16.055  1.0259  0.1881 -0.6445
10626TIP3    H253370   0.496   3.286  16.117 -0.1445 -0.1064  1.0240
10627TIP3   OH253371   5.534   5.349  12.840  0.5221  0.0826 -0.2765
10627TIP3    H153372   5.619   5.307  12.824  1.4705  1.1647  1.5701
10627TIP3    H253373   5.526   5.414  12.770  2.1170  1.2384  0.5677
10628TIP3   OH253374   6.859   3.828   2.020  0.1271  0.2978 -0.2920
10628TIP3    H153375   6.838   3.794   1.933 -0.7443  0.7452 -0.2652
10628TIP3    H253376   6.802   3.904   2.031 -1.6593 -1.1828  1.6483
10629TIP3   OH253377   6.190   1.898  17.032  0.0241 -0.1107 -0.2073
10629TIP3    H153378   6.142   1.876  16.952 -2.3896 -0.5028  1.2481
10629TIP3    H253379   6.138   1.968  17.072  1.1117 -0.0170  1.0943
10630TIP3   OH253380   1.116   2.596   3.198 -0.3903  0.6299  1.0785
10630TIP3    H153381   1.083   2.528   3.255  1.0856  0.6159  1.9711
10630TIP3    H253382   1.188   2.554   3.150 -1.1671  0.8331 -0.3151
10631TIP3   OH253383   5.039   4.655  11.694 -0.1700 -0.1653 -0.2027
10631TIP3    H153384   5.108   4.681  11.755 -1.4856 -1.5909  2.0121
10631TIP3    H253385   5.075   4.579  11.649  0.4556  0.3221 -0.5418
10632TIP3   OH253386   2.973   2.372  10.946  0.4583  0.0971 -0.2032
10632TIP3    H153387   2.984   2.412  11.032  3.3862  1.5011 -1.0936
10632TIP3    H253388   2.978   2.446  10.884 -0.1992 -1.0209 -1.6583
10633TIP3   OH253389   0.928   4.526   0.967 -0.1309 -0.1798 -0.4010
10633TIP3    H153390   0.951   4.611   1.005 -1.9627  0.4928 -0.6583
10633TIP3    H253391   0.963   4.462   1.029  2.2785  0.6728 -0.7706
10634TIP3   OH253392   0.706   6.104   1.150 -0.5220 -0.2360 -0.0225
10634TIP3    H153393   0.751   6.188   1.159 -0.3825 -0.2906 -0.2080
10634TIP3    H253394   0.616   6.127   1.129 -0.6091 -0.1237  0.4435
10635TIP3   OH253395   1.352   3.463   4.814  0.0464  0.3030 -0.2664
10635TIP3    H153396   1.417   3.447   4.746  0.0836  1.3256 -0.4838
10635TIP3    H253397   1.362   3.390   4.874 -1.4666 -1.8630 -2.4450
10636TIP3   OH253398   2.314   0.683   5.469  0.3468  0.1481 -0.2656
10636TIP3    H153399   2.303   0.753   5.534 -0.3141 -0.3455  0.1711
10636TIP3    H253400   2.406   0.687   5.445  0.5443  0.5088  0.5213
10637TIP3   OH253401   3.988   5.172  13.772  0.6711  0.0818 -0.3909
10637TIP3    H153402   4.070   5.143  13.810  0.7650 -0.6158 -1.1101
10637TIP3    H253403   3.986   5.133  13.684 -0.3777  0.1656 -0.4222
10638TIP3   OH253404   4.767   2.172   1.725 -0.4964  0.2919  0.3337
10638TIP3    H153405   4.789   2.242   1.663 -0.3926  0.0010  0.0367
10638TIP3    H253406   4.671   2.170   1.726 -0.5152 -0.7056 -0.9859
10639TIP3   OH253407   3.507   1.795   2.226  0.3404  0.5044  0.3059
10639TIP3    H153408   3.573   1.727   2.234 -0.8194 -0.5258  1.6102
10639TIP3    H253409   3.526   1.856   2.297  0.5547  0.8051 -0.0085
10640TIP3   OH253410   4.890   3.873   5.005 -0.1768  0.2600  0.2116
10640TIP3    H153411   4.885   3.779   5.025  0.5788 -0.2918 -1.9341
10640TIP3    H253412   4.802   3.906   5.022 -0.9645 -1.2399 -0.7771
10641TIP3   OH253413   5.463   3.948  11.065 -0.3609 -0.8690 -0.1683
10641TIP3    H153414   5.526   3.903  11.009  1.4530  2.5216 -1.1535
10641TIP3    H253415   5.435   3.882  11.128  2.3317 -3.2008 -1.1990
10642TIP3   OH253416   5.077   1.129   2.533 -0.1489  0.0470  0.1488
10642TIP3    H153417   5.005   1.183   2.566  0.5089  0.0472  1.6837
10642TIP3    H253418   5.156   1.179   2.552  0.3206 -0.3789 -0.6312
10643TIP3   OH253419   4.561   0.874  14.485 -0.1613 -0.5592 -0.0270
10643TIP3    H153420   4.605   0.888  14.569  2.0280  0.1914 -1.2436
10643TIP3    H253421   4.629   0.841  14.427 -1.5390 -0.6892 -1.6461
10644TIP3   OH253422   3.900   5.447  16.236 -0.0180  0.5342 -0.0160
10644TIP3    H153423   3.877   5.501  16.312  1.2450  1.7504 -0.4679
10644TIP3    H253424   3.981   5.485  16.203  0.1334 -0.7691 -1.2290
10645TIP3   OH253425   0.721   0.547  14.273  0.1234  0.0168 -0.0204
10645TIP3    H153426   0.739   0.636  14.301 -0.8135  0.4884 -0.8393
10645TIP3    H253427   0.771   0.537  14.192 -0.3084  0.0461 -0.2947
10646TIP3   OH253428   5.215   3.596  14.252 -0.0362 -0.7447 -0.0784
10646TIP3    H153429   5.160   3.615  14.327 -0.5445 -0.9525 -0.3906
10646TIP3    H253430   5.301   3.629  14.276 -0.4396  0.1720  0.1649
10647TIP3   OH253431   4.100   3.837   3.468 -0.2196 -0.5118  0.1040
10647TIP3    H153432   4.072   3.870   3.553 -2.2032  0.9348 -1.0139
10647TIP3    H253433   4.105   3.742   3.479 -0.4222 -0.3552  1.8243
10648TIP3   OH253434   6.209   4.274  12.666 -0.5463  0.4054  0.3007
10648TIP3    H153435   6.265   4.212  12.713  0.4383  0.7890 -0.3174
10648TIP3    H253436   6.137   4.293  12.726 -0.1623 -0.3321  1.0059
10649TIP3   OH253437   3.318   0.794  11.015 -0.0580 -0.6786 -0.1266
10649TIP3    H153438   3.397   0.748  10.987  0.6898 -0.1557  1.0478
10649TIP3    H253439   3.311   0.867  10.954 -0.6063 -1.6625 -1.2848
10650TIP3   OH253440   0.039   0.040  12.913 -0.1174 -0.4935 -0.3620
10650TIP3    H153441   0.102  -0.027  12.939 -1.0182 -1.1264  0.2188
10650TIP3    H253442  -0.041  -0.008  12.891 -0.6569  0.3515 -0.3166
10651TIP3   OH253443   3.759   1.017  15.701 -0.6529 -0.5951 -0.7998
10651TIP3    H153444   3.809   1.013  15.620 -1.0887 -0.0813 -1.0962
10651TIP3    H253445   3.668   1.022  15.673 -0.9737 -2.4498 -0.2719
10652TIP3   OH253446   4.771   5.869  16.012 -0.0410 -0.3983 -0.1184
10652TIP3    H153447   4.711   5.935  16.047  1.1634  0.3994  0.5425
10652TIP3    H253448   4.715   5.796  15.986 -1.5366  1.2290 -1.7596
10653TIP3   OH253449   5.273   1.958   0.735  0.4457 -0.0090  0.4492
10653TIP3    H153450   5.238   2.005   0.659  0.1846 -0.1075  0.5076
10653TIP3    H253451   5.349   1.910   0.700 -0.0721 -0.5878  0.0959
10654TIP3   OH253452   2.850   5.936  16.890 -0.9027  0.7757  0.0776
10654TIP3    H153453   2.766   5.952  16.847 -1.4429 -0.9679  0.3969
10654TIP3    H253454   2.827   5.917  16.981 -0.1827  0.1419  0.1370
10655TIP3   OH253455   0.384   4.795   2.117  0.1272 -0.3679 -1.1145
10655TIP3    H153456   0.337   4.749   2.047 -0.9786 -1.4062  0.2391
10655TIP3    H253457   0.315   4.821   2.178  0.9414  1.5882 -0.9801
10656TIP3   OH253458   5.101   4.492  16.387 -0.0213  0.1164  0.4686
10656TIP3    H153459   5.006   4.498  16.392 -0.2543 -0.7560 -1.8214
10656TIP3    H253460   5.130   4.584  16.382 -0.9251  0.3645 -0.7740
10657TIP3   OH253461   3.641   2.754   4.830 -0.3185  0.1928  0.0967
10657TIP3    H153462   3.607   2.813   4.898  0.3261 -0.2218  0.8028
10657TIP3    H253463   3.735   2.770   4.830  0.3538 -2.7963  2.3699
10658TIP3   OH253464   1.981   6.817   3.707 -0.8144 -0.2469 -0.5981
10658TIP3    H153465   1.980   6.783   3.618 -0.8334  0.1291 -0.7449
10658TIP3    H253466   2.039   6.894   3.703 -0.8767 -0.1813 -0.3063
10659TIP3   OH253467   3.894   3.410   2.448  0.3896 -0.4306 -0.3696
10659TIP3    H153468   3.920   3.377   2.362 -1.2213 -1.0248 -0.6664
10659TIP3    H253469   3.811   3.365   2.467 -0.1508  0.9470  0.7308
10660TIP3   OH253470   0.525   3.240   5.224  0.0176 -0.1642 -0.3448
10660TIP3    H153471   0.506   3.266   5.134  1.0427  0.0968 -0.4967
10660TIP3    H253472   0.514   3.321   5.275 -0.0999 -0.2072 -0.3000
10661TIP3   OH253473   1.660   0.843   3.904 -0.3057  0.4886  0.5779
10661TIP3    H153474   1.625   0.756   3.920  0.8126 -0.2667 -0.8496
10661TIP3    H253475   1.723   0.858   3.974 -0.9946  0.4434  1.2115
10662TIP3   OH253476   2.516   4.554   3.547 -0.0148  0.1762  0.2804
10662TIP3    H153477   2.574   4.625   3.519 -0.2499  0.6479  0.9707
10662TIP3    H253478   2.433   4.598   3.565 -1.2297 -0.7075 -2.5142
10663TIP3   OH253479   3.290   3.009   4.181 -0.4873 -0.3213  0.3093
10663TIP3    H153480   3.228   3.074   4.212  0.9681  1.5908 -0.5951
10663TIP3    H253481   3.320   2.965   4.261  0.4019  1.9269  1.3024
10664TIP3   OH253482   3.859   0.713  15.320  0.2177  0.6146  0.3476
10664TIP3    H153483   3.778   0.679  15.283  0.8364 -0.6616  0.1126
10664TIP3    H253484   3.854   0.690  15.413  1.4466 -1.9134 -0.1211
10665TIP3   OH253485   1.819   0.621   5.224  0.6410  0.1262  0.5489
10665TIP3    H153486   1.820   0.542   5.279 -0.3067 -0.2378  0.0718
10665TIP3    H253487   1.880   0.602   5.153  0.0725 -0.3656  0.1891
10666TIP3   OH253488   5.565   6.783   3.099 -0.4120  0.5692 -0.1681
10666TIP3    H153489   5.578   6.875   3.076 -0.2343 -0.1790 -3.5948
10666TIP3    H253490   5.479   6.762   3.064  0.6663 -1.1871 -1.9658
10667TIP3   OH253491   3.591   2.242   5.648 -0.0355  0.6371  0.3994
10667TIP3    H153492   3.648   2.314   5.676  1.1778 -0.4640  0.8468
10667TIP3    H253493   3.634   2.163   5.681 -1.3374 -0.3035 -0.0836
10668TIP3   OH253494   6.007   1.893   4.828 -0.6192  0.1109 -0.7706
10668TIP3    H153495   6.066   1.834   4.875 -1.7962 -1.2281 -0.8987
10668TIP3    H253496   5.976   1.955   4.895 -2.4549 -1.9132  0.3892
10669TIP3   OH253497   1.544   2.568   5.506  0.0788  0.1533 -0.0609
10669TIP3    H153498   1.594   2.504   5.555  0.4386  0.3094 -0.2219
10669TIP3    H253499   1.466   2.520   5.476 -0.8074  0.3956  1.7419
10670TIP3   OH253500   1.406   3.136  14.349  0.4248 -0.4292  0.7735
10670TIP3    H153501   1.474   3.177  14.295  0.0894 -1.6620 -0.6716
10670TIP3    H253502   1.331   3.194  14.341  0.6410 -0.1711  0.5917
10671TIP3   OH253503   6.081   5.182   5.842 -0.2704 -0.0794 -0.1328
10671TIP3    H153504   6.120   5.254   5.891 -0.4809 -0.3389  0.4183
10671TIP3    H253505   6.148   5.114   5.841  1.0822  1.0941 -3.0590
10672TIP3   OH253506   5.293   3.717   3.382  0.3285 -0.5585 -0.1055
10672TIP3    H153507   5.295   3.811   3.363 -2.5098 -0.5470 -0.9170
10672TIP3    H253508   5.345   3.677   3.312  1.7031  0.3900  0.3408
10673TIP3   OH253509   5.510   5.589  11.693 -0.4500 -0.1471 -0.5509
10673TIP3    H153510   5.467   5.651  11.634  2.4002  1.8132 -0.8146
10673TIP3    H253511   5.593   5.569  11.649  1.1408  0.2363  2.0672
10674TIP3   OH253512   5.533   0.339  11.595 -0.2017  0.4463  0.0694
10674TIP3    H153513   5.606   0.286  11.563 -0.6143 -0.0064 -0.1286
10674TIP3    H253514   5.566   0.428  11.592 -0.2093  0.4308 -1.5970
10675TIP3   OH253515   5.882   0.711  14.794 -0.0384 -0.6394  0.0544
10675TIP3    H153516   5.893   0.634  14.739  1.9298 -0.0882 -0.3861
10675TIP3    H253517   5.806   0.756  14.757  0.2890 -1.0968 -1.2172
10676TIP3   OH253518   3.649   0.416  12.873  0.5766 -0.2237 -0.5468
10676TIP3    H153519   3.569   0.470  12.868  0.5831 -0.1676 -0.0750
10676TIP3    H253520   3.643   0.372  12.957  1.1537 -0.0497 -0.4119
10677TIP3   OH253521   3.197   6.020  12.798 -0.3009 -0.0951  0.3872
10677TIP3    H153522   3.227   5.953  12.737  2.9507  0.6352  0.9640
10677TIP3    H253523   3.124   6.062  12.753  0.6291 -0.9247 -2.1059
10678TIP3   OH253524   3.141   4.701  12.299 -0.0536  1.1098  0.4836
10678TIP3    H153525   3.218   4.698  12.242  0.8964  0.1876  1.7507
10678TIP3    H253526   3.072   4.737  12.244  0.6190 -0.4110 -1.4691
10679TIP3   OH253527   2.921   0.074   6.203  0.2202  0.0271 -0.3016
10679TIP3    H153528   2.857   0.012   6.239 -1.7907  2.0072 -0.2511
10679TIP3    H253529   2.897   0.158   6.241  1.4786  1.2364 -2.0387
10680TIP3   OH253530   6.285   3.729  11.002 -0.5001  0.1112 -0.6066
10680TIP3    H153531   6.299   3.783  11.079  0.9737 -0.6072 -0.3355
10680TIP3    H253532   6.263   3.791  10.932  0.8261  1.0230 -0.2391
10681TIP3   OH253533   6.104   4.473   0.129 -0.1575  0.4098  0.3861
10681TIP3    H153534   6.077   4.381   0.125 -0.0773  0.4227 -1.6824
10681TIP3    H253535   6.171   4.475   0.196  0.6681 -1.3006 -0.3182
10682TIP3   OH253536   5.348   3.958   3.218  0.1722 -0.0373  0.0312
10682TIP3    H153537   5.383   4.047   3.219  1.5418 -0.4871 -2.4064
10682TIP3    H253538   5.253   3.970   3.218  0.2995  1.3365  1.5429
10683TIP3   OH253539   0.836   0.283  13.985 -0.6196  0.2711 -0.0320
10683TIP3    H153540   0.927   0.292  14.013 -0.9036 -1.1062  1.4310
10683TIP3    H253541   0.836   0.315  13.895  1.5958 -1.0163 -0.5527
10684TIP3   OH253542   0.843   0.048  12.409  0.1327  0.2256 -0.3038
10684TIP3    H153543   0.870   0.042  12.501  0.7184 -2.9537 -0.5732
10684TIP3    H253544   0.923   0.035  12.359 -0.7266 -2.6650 -1.1465
10685TIP3   OH253545   0.232   6.790   4.906  0.3012 -0.4406  0.0079
10685TIP3    H153546   0.319   6.818   4.935  0.2706 -1.2565  0.9313
10685TIP3    H253547   0.175   6.812   4.979  0.1943 -2.3812  0.5752
10686TIP3   OH253548   4.488   3.971   2.015 -0.1585  0.1199  0.8623
10686TIP3    H153549   4.499   3.878   2.035 -1.6744 -0.2334  0.2081
10686TIP3    H253550   4.555   4.014   2.067  1.1144 -1.3994  0.5672
10687TIP3   OH253551   0.075   3.694  12.522  0.2108 -0.0337  0.3615
10687TIP3    H153552   0.071   3.719  12.614  2.1482 -1.3120  0.8647
10687TIP3    H253553   0.122   3.765  12.479  2.8445 -1.1780  1.1735
10688TIP3   OH253554   1.174   0.696  14.812  0.2552 -0.0926 -0.1997
10688TIP3    H153555   1.246   0.748  14.848 -0.5873  2.0020 -1.3587
10688TIP3    H253556   1.166   0.621  14.872  1.9083  0.7976  1.2187
10689TIP3   OH253557   1.779   3.120   2.466 -0.3015 -0.1419 -0.1390
10689TIP3    H153558   1.783   3.206   2.425  3.3660  0.0636  0.3135
10689TIP3    H253559   1.694   3.084   2.439 -1.4151  3.0619 -1.3477
10690TIP3   OH253560   4.082   3.245   3.527  0.0341  0.3150 -0.3494
10690TIP3    H153561   4.022   3.171   3.541 -0.3840  0.1972 -2.4067
10690TIP3    H253562   4.042   3.318   3.575 -1.6911  0.1732 -1.4790
10691TIP3   OH253563   0.330   3.863  14.705 -0.2472  0.7379 -0.4037
10691TIP3    H153564   0.281   3.787  14.672  0.5377  0.9235 -2.1276
10691TIP3    H253565   0.285   3.938  14.666 -0.1531  1.0678  0.1230
10692TIP3   OH253566   0.421   2.762   5.146 -0.3512 -0.0980 -0.5071
10692TIP3    H153567   0.410   2.699   5.074  0.7010 -1.8567  0.8141
10692TIP3    H253568   0.331   2.783   5.173 -0.7144 -1.2965 -0.7487
10693TIP3   OH253569   3.739   5.204   2.132 -0.2995 -0.2675  0.1146
10693TIP3    H153570   3.784   5.287   2.149  0.8964 -0.7295 -0.6267
10693TIP3    H253571   3.781   5.170   2.053 -0.9510 -1.4514  0.2509
10694TIP3   OH253572   5.624   1.584  12.051  0.2240 -0.1544 -0.1693
10694TIP3    H153573   5.568   1.538  11.988  0.7786 -0.6013 -0.3406
10694TIP3    H253574   5.695   1.620  11.999 -0.6279  1.6390 -0.1688
10695TIP3   OH253575   6.597   4.283   5.157 -0.0305 -0.0055 -0.1323
10695TIP3    H153576   6.557   4.208   5.202  0.8781 -1.6776 -1.9736
10695TIP3    H253577   6.691   4.267   5.163  0.1903  1.1613 -0.2914
10696TIP3   OH253578   4.655   6.429  13.201 -0.0669  0.3804  0.4275
10696TIP3    H153579   4.620   6.506  13.246 -1.9301 -0.3931  0.3955
10696TIP3    H253580   4.725   6.398  13.258 -0.3461  1.1991  1.2455
10697TIP3   OH253581   0.082   0.199  15.249  0.2383 -0.0691 -0.0371
10697TIP3    H153582   0.029   0.251  15.310 -0.1872 -0.6266  0.0670
10697TIP3    H253583   0.172   0.217  15.276  0.0472 -0.7275  1.1178
10698TIP3   OH253584   6.238   1.143  15.786 -0.1982 -0.3113  0.2014
10698TIP3    H153585   6.232   1.234  15.756  1.1650 -0.3986 -0.4009
10698TIP3    H253586   6.192   1.142  15.869  0.2798  1.0708  0.5083
10699TIP3   OH253587   1.139   1.777   0.215  0.1629  0.1132 -0.1113
10699TIP3    H153588   1.091   1.803   0.136 -1.0670  2.5637  1.3040
10699TIP3    H253589   1.085   1.709   0.254 -0.0538  0.0074 -0.5906
10700TIP3   OH253590   1.385   4.632   3.448 -0.2230 -0.5310  0.0030
10700TIP3    H153591   1.321   4.669   3.388 -1.9133 -2.8785  0.2266
10700TIP3    H253592   1.418   4.554   3.403  0.2043 -1.0523  1.1752
10701TIP3   OH253593   4.807   4.109   0.571  0.0066 -0.4869  0.1731
10701TIP3    H153594   4.811   4.154   0.486 -0.7942  1.8388  1.2751
10701TIP3    H253595   4.881   4.048   0.569 -0.0018 -0.5333 -2.1745
10702TIP3   OH253596   0.104   4.258   6.561  0.0951 -0.1944 -0.6481
10702TIP3    H153597   0.182   4.305   6.530  0.5971 -0.6735 -0.1300
10702TIP3    H253598   0.047   4.326   6.597  0.4061  0.1231 -0.7533
10703TIP3   OH253599   0.992   0.769  16.697  0.7165  0.4351 -0.4373
10703TIP3    H153600   0.974   0.789  16.789  0.7072 -2.7477  0.3767
10703TIP3    H253601   1.060   0.701  16.700  2.0208  1.5021 -2.9006
10704TIP3   OH253602   0.219   4.897  15.729  0.7034  0.8496  0.5706
10704TIP3    H153603   0.312   4.875  15.726  0.3397 -1.3479  2.3817
10704TIP3    H253604   0.175   4.813  15.736 -1.2517  1.9177  2.1917
10705TIP3   OH253605   0.539   4.035  16.419  0.2504 -0.1118  1.1255
10705TIP3    H153606   0.490   4.018  16.499 -0.7528 -0.2262  0.5062
10705TIP3    H253607   0.524   4.128  16.400 -1.0117 -0.4791  0.1338
10706TIP3   OH253608   5.514   2.247   5.809  0.4004 -0.4126 -0.0373
10706TIP3    H153609   5.536   2.198   5.888  2.2998 -3.9013 -2.4553
10706TIP3    H253610   5.586   2.309   5.797  1.3392 -1.5169 -0.2131
10707TIP3   OH253611   0.589   4.213   1.925  0.5110 -0.5768 -0.3564
10707TIP3    H153612   0.541   4.221   1.842 -0.6737  0.5808  0.3909
10707TIP3    H253613   0.520   4.210   1.992  1.3962 -2.9162  0.5416
10708TIP3   OH253614   6.017   2.003  15.912  0.1757 -0.0445 -0.0343
10708TIP3    H153615   6.079   1.937  15.880 -0.1877 -0.3611 -0.1030
10708TIP3    H253616   6.060   2.087  15.896  0.8640 -0.2820  0.5277
10709TIP3   OH253617   2.392   2.542   0.212  0.5987 -0.2108  0.7042
10709TIP3    H153618   2.383   2.633   0.242  0.0300  0.3756 -1.1250
10709TIP3    H253619   2.485   2.532   0.193  0.6495 -0.0005  0.8352
10710TIP3   OH253620   3.803   3.682  15.234  0.1728 -0.3824  0.2707
10710TIP3    H153621   3.823   3.665  15.142  0.0096  0.5751  0.0469
10710TIP3    H253622   3.760   3.602  15.264  1.9231 -1.4523  0.0472
10711TIP3   OH253623   1.445   5.474   5.980  0.4766  0.4677 -0.3767
10711TIP3    H153624   1.400   5.556   6.002  0.1841  0.5428 -1.2204
10711TIP3    H253625   1.401   5.408   6.032 -0.3715  0.6039 -0.9046
10712TIP3   OH253626   4.710   4.407  12.789 -0.5256  0.3108 -0.0671
10712TIP3    H153627   4.766   4.398  12.712 -0.9264  0.4047 -0.3677
10712TIP3    H253628   4.717   4.322  12.834  2.3945  1.3127  1.6429
10713TIP3   OH253629   1.982   0.489   0.751  0.5116 -0.0329  0.5658
10713TIP3    H153630   1.921   0.560   0.731  1.4867  1.3194  2.1578
10713TIP3    H253631   2.069   0.528   0.740  1.1376 -1.6224 -0.6273
10714TIP3   OH253632   5.560   2.103  12.412 -0.3761  0.5665 -0.1719
10714TIP3    H153633   5.469   2.075  12.415 -0.0798 -0.5576 -0.8349
10714TIP3    H253634   5.605   2.045  12.473  0.3279 -0.8358 -1.9083
10715TIP3   OH253635   4.146   5.040  11.826 -0.0455 -0.0645 -0.0928
10715TIP3    H153636   4.182   5.023  11.913  0.6542  1.1671 -0.1194
10715TIP3    H253637   4.169   5.131  11.808 -1.8104  0.2779 -0.7878
10716TIP3   OH253638   3.595   5.672   0.332 -0.2515  0.3097  0.0819
10716TIP3    H153639   3.544   5.726   0.392  1.0040 -0.2056  1.6816
10716TIP3    H253640   3.590   5.584   0.369  1.2745  0.1361 -0.0624
10717TIP3   OH253641   6.485   1.405  15.943 -0.5368 -0.0254  0.1426
10717TIP3    H153642   6.572   1.387  15.978  0.9881  4.3253 -0.8013
10717TIP3    H253643   6.489   1.378  15.852  0.0235  0.5508 -0.0106
10718TIP3   OH253644   5.991   2.831  13.321 -0.3340 -0.1911  0.3267
10718TIP3    H153645   6.006   2.855  13.412  1.3961 -0.5017  0.1543
10718TIP3    H253646   5.953   2.909  13.281 -0.4498  0.1779  1.1401
10719TIP3   OH253647   2.542   4.229   5.229  0.3658  0.0246 -0.7925
10719TIP3    H153648   2.465   4.285   5.225 -0.5191 -1.1393 -0.6252
10719TIP3    H253649   2.561   4.208   5.137 -0.2333 -0.6231 -0.7723
10720TIP3   OH253650   4.260   6.470   5.669 -0.0734 -0.4879  0.1221
10720TIP3    H153651   4.291   6.534   5.732 -0.8106  0.1468 -0.1498
10720TIP3    H253652   4.165   6.478   5.671 -0.1181 -0.6745 -0.8397
10721TIP3   OH253653   3.433   6.764   6.527  0.2129 -0.4403 -0.3040
10721TIP3    H153654   3.416   6.741   6.618  2.7208 -1.4772 -0.0249
10721TIP3    H253655   3.450   6.680   6.484  2.2992  0.2564 -0.9534
10722TIP3   OH253656   1.758   4.615   5.815  0.4493  0.1756  0.1076
10722TIP3    H153657   1.784   4.663   5.894  0.2581  0.8054 -0.2069
10722TIP3    H253658   1.839   4.571   5.786  0.6553  0.4053  0.3314
10723TIP3   OH253659   2.864   0.720   1.978  0.1544  0.0543  0.0554
10723TIP3    H153660   2.874   0.632   2.015  0.9994  1.2206  2.8750
10723TIP3    H253661   2.771   0.738   1.985  0.0977 -0.3110  0.2965
10724TIP3   OH253662   1.412   4.706  16.176 -0.6953  0.0966  0.7794
10724TIP3    H153663   1.496   4.663  16.159 -1.0554 -1.0471  1.7374
10724TIP3    H253664   1.347   4.645  16.141 -1.1459  0.8368  0.3084
10725TIP3   OH253665   6.816   5.264   1.629  0.0678  0.1228  0.0294
10725TIP3    H153666   6.855   5.224   1.552  0.4793  0.7616 -0.1020
10725TIP3    H253667   6.804   5.192   1.691  2.9682  0.0930  0.7262
10726TIP3   OH253668   3.892   4.161   6.448 -0.2253 -0.5706  0.3692
10726TIP3    H153669   3.980   4.164   6.486  0.6009  0.1983 -1.5066
10726TIP3    H253670   3.886   4.074   6.408 -0.3457 -0.6316  0.5151
10727TIP3   OH253671   0.679   2.709  14.001 -0.0499  0.3157 -0.6009
10727TIP3    H153672   0.682   2.774  14.071  2.5554 -0.1265 -0.2166
10727TIP3    H253673   0.690   2.760  13.921  1.9407  0.4268 -0.3032
10728TIP3   OH253674   2.920   2.907  15.050  0.1927  0.1802 -0.2599
10728TIP3    H153675   2.864   2.860  14.988 -0.6599 -0.9222  1.2836
10728TIP3    H253676   3.004   2.861  15.045  0.3280  0.4967 -1.0407
10729TIP3   OH253677   1.406   5.867   4.191 -0.3620  0.4295  0.6143
10729TIP3    H153678   1.384   5.952   4.154 -0.5479 -0.1710 -0.7365
10729TIP3    H253679   1.471   5.831   4.131 -1.6183 -1.1275  0.1228
10730TIP3   OH253680   0.498   2.745   2.973 -0.7323 -0.6474  0.2767
10730TIP3    H153681   0.586   2.722   3.002  0.2486  2.1472 -0.1808
10730TIP3    H253682   0.488   2.698   2.889  0.7512 -0.2112 -0.1757
10731TIP3   OH253683   3.670   4.011  15.900  0.5712  0.2296  0.0932
10731TIP3    H153684   3.642   3.925  15.870  0.8861  0.6107 -1.3681
10731TIP3    H253685   3.671   4.004  15.996 -1.3595 -0.7580  0.0911
10732TIP3   OH253686   3.502   4.046   2.904  0.2667  0.1112 -0.3302
10732TIP3    H153687   3.457   4.023   2.823 -0.6860  0.4100  0.0955
10732TIP3    H253688   3.551   4.125   2.883 -0.6783  0.6980 -0.4039
10733TIP3   OH253689   0.566   4.703  11.110  0.0475 -0.0307  0.4510
10733TIP3    H153690   0.558   4.724  11.017  2.1579 -0.5794  0.0863
10733TIP3    H253691   0.573   4.788  11.153  0.4773  0.2001 -0.0652
10734TIP3   OH253692   0.887   1.323  14.433  0.0058 -0.0893  0.4615
10734TIP3    H153693   0.929   1.246  14.470  1.2739  0.3009 -0.1255
10734TIP3    H253694   0.821   1.288  14.373 -0.7089 -0.7082  1.5741
10735TIP3   OH253695   1.583   0.050  12.099  0.3402 -0.2159 -0.3813
10735TIP3    H153696   1.664   0.089  12.067  1.3570 -0.6127  1.5373
10735TIP3    H253697   1.611  -0.026  12.149 -1.4464 -2.1459 -2.1383
10736TIP3   OH253698   6.283   4.185   3.193  0.4300 -0.4961 -0.2604
10736TIP3    H153699   6.317   4.098   3.174  1.3135 -0.5578  1.4081
10736TIP3    H253700   6.353   4.229   3.241 -1.0221  0.1314  1.4168
10737TIP3   OH253701   4.178   1.753   0.945 -1.1793 -0.0080  0.0630
10737TIP3    H153702   4.135   1.805   0.877  0.1323 -0.6127 -1.2872
10737TIP3    H253703   4.118   1.679   0.959 -0.7212 -0.7885 -1.7186
10738TIP3   OH253704   6.231   5.004  11.087 -0.0252 -0.8522 -0.0799
10738TIP3    H153705   6.248   4.992  10.994  0.2458  0.4320 -0.2158
10738TIP3    H253706   6.306   5.054  11.119 -0.3716 -0.8320  0.7235
10739TIP3   OH253707   3.560   4.718  14.025 -0.1906 -0.1040  0.2585
10739TIP3    H153708   3.541   4.670  13.945  2.1221  0.4981 -0.7230
10739TIP3    H253709   3.481   4.706  14.079 -0.9140 -2.4027 -1.1536
10740TIP3   OH253710   6.416   1.002   6.117 -0.2980 -0.5489 -0.3562
10740TIP3    H153711   6.369   1.076   6.154  0.9331 -0.1005  0.3887
10740TIP3    H253712   6.364   0.925   6.142 -0.7584 -0.0596  0.2154
10741TIP3   OH253713   4.584   6.389  11.508  0.5514 -0.1458 -0.2789
10741TIP3    H153714   4.642   6.397  11.584 -0.2958  2.4928  0.1912
10741TIP3    H253715   4.498   6.371  11.546 -0.9543  5.7648  0.1346
10742TIP3   OH253716   0.081   2.188  14.480  0.3559 -0.4489  0.3346
10742TIP3    H153717   0.110   2.099  14.498 -0.8304 -0.3929  2.9566
10742TIP3    H253718   0.090   2.234  14.564 -1.3764  1.2098 -0.3095
10743TIP3   OH253719   6.770   4.805   4.529 -0.9644  0.0126 -0.2035
10743TIP3    H153720   6.722   4.757   4.596 -0.2074 -0.1160  0.2526
10743TIP3    H253721   6.861   4.799   4.556 -0.7625  0.8717 -0.6733
10744TIP3   OH253722   4.964   5.412  11.954  0.2327 -0.5154 -0.0339
10744TIP3    H153723   5.028   5.433  11.886  0.2907  0.0521  0.1919
10744TIP3    H253724   5.005   5.442  12.035  0.7341 -2.3694  0.4413
10745TIP3   OH253725   2.761   5.345   3.270  0.5529 -0.2311 -0.1888
10745TIP3    H153726   2.763   5.309   3.182 -2.1413 -1.7698  0.2734
10745TIP3    H253727   2.719   5.431   3.260  2.5268  0.7193 -0.6656
10746TIP3   OH253728   6.293   5.740   1.848 -0.1242  0.4848  0.1205
10746TIP3    H153729   6.351   5.666   1.829 -1.6739 -1.0212  0.8860
10746TIP3    H253730   6.243   5.754   1.768  0.0026  0.5251  0.0498
10747TIP3   OH253731   0.202   5.992   4.987  0.1821  0.1436 -0.1945
10747TIP3    H153732   0.270   5.944   4.939 -0.2904 -0.7472  0.0142
10747TIP3    H253733   0.157   6.043   4.920  0.3275 -0.1310 -0.5072
10748TIP3   OH253734   1.557   5.835   1.116  0.3147  0.1141 -0.2820
10748TIP3    H153735   1.495   5.865   1.182  0.5816  1.0557 -0.4421
10748TIP3    H253736   1.626   5.901   1.116  0.9247 -0.5024 -0.6602
10749TIP3   OH253737   2.841   1.655  12.835  0.1873  0.3417 -0.0350
10749TIP3    H153738   2.843   1.585  12.770 -0.1860 -0.1532  0.4718
10749TIP3    H253739   2.798   1.728  12.792  0.7854  0.3375 -0.6464
10750TIP3   OH253740   1.880   6.095   5.467 -0.3791 -0.1507  0.2486
10750TIP3    H153741   1.849   6.055   5.548 -0.1048  0.1692  0.5176
10750TIP3    H253742   1.882   6.023   5.404  0.9986 -0.7864  0.9639
10751TIP3   OH253743   6.209   0.060  12.364 -0.1982  0.0114 -0.2174
10751TIP3    H153744   6.178   0.141  12.323  0.0358 -0.3972 -1.2516
10751TIP3    H253745   6.130   0.011  12.384 -0.3063  0.0261 -0.6004
10752TIP3   OH253746   1.747   0.235  15.579  0.0655 -0.4852 -0.5184
10752TIP3    H153747   1.777   0.300  15.642 -0.0960 -1.5890  0.7207
10752TIP3    H253748   1.824   0.218  15.524  0.4380 -0.1252 -0.1125
10753TIP3   OH253749   5.991   6.835  12.187  0.3232 -0.0629 -0.6039
10753TIP3    H153750   6.078   6.836  12.147  0.0173  0.6875 -1.2608
10753TIP3    H253751   5.937   6.785  12.127  1.0081 -3.6090  1.4285
10754TIP3   OH253752   4.839   2.647  11.492 -0.1339  0.9090  0.0072
10754TIP3    H153753   4.917   2.598  11.519 -0.3355 -0.4224 -1.7078
10754TIP3    H253754   4.846   2.731  11.539  2.4335  0.9195 -0.2748
10755TIP3   OH253755   4.566   4.995  14.489 -0.0202  0.5669 -0.1865
10755TIP3    H153756   4.556   4.923  14.427  3.3035 -1.1906  1.0957
10755TIP3    H253757   4.607   5.065  14.437 -0.6424  0.4788 -0.8013
10756TIP3   OH253758   5.895   5.863  13.346 -0.0787  0.3044 -0.5797
10756TIP3    H153759   5.823   5.800  13.341  0.3546 -0.1063 -2.8255
10756TIP3    H253760   5.852   5.947  13.363 -0.7472 -0.3926  1.4535
10757TIP3   OH253761   4.883   2.293  16.409 -0.0088 -0.4783 -0.2101
10757TIP3    H153762   4.950   2.359  16.427 -1.5004  0.8235  0.8342
10757TIP3    H253763   4.893   2.229  16.480  0.2108 -0.3646 -0.1372
10758TIP3   OH253764   1.113   2.565   0.242 -0.5274 -0.4187  0.4344
10758TIP3    H153765   1.111   2.556   0.337  1.5064  2.9893  0.9683
10758TIP3    H253766   1.043   2.628   0.222  1.2471  1.6405  0.2641
10759TIP3   OH253767   1.333   4.818   5.789  0.4321  0.1943 -0.8848
10759TIP3    H153768   1.344   4.806   5.883  1.9461  0.8765 -0.9440
10759TIP3    H253769   1.415   4.787   5.751 -0.0575  0.1781 -1.9593
10760TIP3   OH253770   6.577   5.621  11.442 -0.2095 -0.2200  0.4220
10760TIP3    H153771   6.600   5.679  11.515  1.1620 -0.7629  0.4480
10760TIP3    H253772   6.601   5.671  11.364 -3.7336  1.3002  0.1264
10761TIP3   OH253773   1.916   5.360   4.377  0.0891  0.1439 -0.4654
10761TIP3    H153774   1.857   5.411   4.432  0.2925 -0.7294  0.5769
10761TIP3    H253775   1.858   5.305   4.324 -0.0671  0.0768 -0.2241
10762TIP3   OH253776   2.877   0.835   5.079 -0.2613 -0.0215 -0.2794
10762TIP3    H153777   2.800   0.890   5.061  0.8344  1.5966 -0.2525
10762TIP3    H253778   2.880   0.828   5.174  0.4264  1.1706 -0.1942
10763TIP3   OH253779   5.169   0.883   5.168  0.6426 -0.2748 -0.0599
10763TIP3    H153780   5.124   0.909   5.249 -0.4835 -1.3035 -0.3318
10763TIP3    H253781   5.210   0.799   5.188  0.9922 -0.1764 -0.3408
10764TIP3   OH253782   4.060   3.161   0.154 -0.1097  0.5002  0.3037
10764TIP3    H153783   4.029   3.106   0.081  0.6305 -1.7874  1.6078
10764TIP3    H253784   4.058   3.250   0.119 -0.6050 -0.4052 -2.2230
10765TIP3   OH253785   3.377   5.192   2.473 -0.4285 -0.4108  0.5557
10765TIP3    H153786   3.450   5.161   2.526 -1.0841 -1.6531  0.7828
10765TIP3    H253787   3.302   5.188   2.532 -1.1840 -1.8909 -0.4355
10766TIP3   OH253788   4.275   3.247  16.399 -0.0297 -0.2601  0.0272
10766TIP3    H153789   4.301   3.249  16.491  0.6817 -1.5787 -0.1175
10766TIP3    H253790   4.207   3.179  16.395  0.0509 -0.3194 -0.4462
10767TIP3   OH253791   0.256   1.682   0.472  0.0568  0.4548  0.2398
10767TIP3    H153792   0.193   1.611   0.457 -2.0329  2.2126  0.2472
10767TIP3    H253793   0.211   1.761   0.443  1.3211  2.1418  2.5172
10768TIP3   OH253794   2.003   2.616  14.913 -0.0837  0.0436  0.3662
10768TIP3    H153795   2.032   2.650  14.828  0.9248  0.3392  0.8226
10768TIP3    H253796   1.968   2.692  14.959  0.3148  0.0781  0.6123
10769TIP3   OH253797   0.221   5.531  15.908  0.0852 -0.2426  0.1759
10769TIP3    H153798   0.263   5.518  15.823  0.3348 -1.9191  0.5204
10769TIP3    H253799   0.246   5.620  15.934 -1.0671  0.8187 -2.0580
10770TIP3   OH253800   3.242   4.506   5.520 -0.1344 -0.1310  0.3957
10770TIP3    H153801   3.235   4.468   5.432  0.3297 -0.4763  0.4993
10770TIP3    H253802   3.309   4.452   5.563  1.2061  1.3492  0.2614
10771TIP3   OH253803   6.874   3.181  12.600 -0.3856 -0.3854  0.2070
10771TIP3    H153804   6.871   3.263  12.649 -1.1946  0.2394 -0.8485
10771TIP3    H253805   6.883   3.207  12.509 -1.1566 -1.4508 -0.2015
10772TIP3   OH253806   6.524   3.089  10.950  0.1542 -0.0234  0.4073
10772TIP3    H153807   6.574   3.056  10.876 -0.5056 -0.1044 -0.0065
10772TIP3    H253808   6.556   3.178  10.963  0.5255 -0.1338  0.2557
10773TIP3   OH253809   5.145   2.275  11.269 -0.0981  0.5063 -0.2497
10773TIP3    H153810   5.055   2.264  11.298  0.2365 -2.2258  0.0612
10773TIP3    H253811   5.142   2.264  11.174 -0.0593 -0.2528 -0.1752
10774TIP3   OH253812   3.442   0.305   5.490  0.2462 -0.1062 -0.1089
10774TIP3    H153813   3.414   0.214   5.476  0.5010 -0.0458 -1.0330
10774TIP3    H253814   3.361   0.356   5.487  0.2503 -0.1378 -1.0534
10775TIP3   OH253815   5.151   5.956  12.631 -0.5647  0.3861  0.0776
10775TIP3    H153816   5.210   6.029  12.650 -1.6040  1.1238  0.5684
10775TIP3    H253817   5.097   5.988  12.559  2.1614 -1.7309 -3.1906
10776TIP3   OH253818   1.034   0.870  12.055 -0.1303  0.3361 -0.2185
10776TIP3    H153819   1.053   0.932  12.126 -0.7804 -0.5533  0.7495
10776TIP3    H253820   0.941   0.881  12.038 -0.4861 -1.0939  0.6810
10777TIP3   OH253821   0.402   6.212  15.989  0.5218  0.3873  0.3009
10777TIP3    H153822   0.483   6.226  16.037  1.6820 -0.3650 -1.3381
10777TIP3    H253823   0.366   6.300  15.977  0.3754  0.6243  2.1459
10778TIP3   OH253824   3.885   0.115  14.487  0.2404 -0.3779  0.1206
10778TIP3    H153825   3.869   0.038  14.542  0.6303  0.5152  1.5537
10778TIP3    H253826   3.884   0.188  14.548  0.9709  0.6438 -1.0436
10779TIP3   OH253827   2.537   5.155   5.656 -0.3936  0.0117  0.2720
10779TIP3    H153828   2.516   5.195   5.741 -0.5493  0.6633 -0.0698
10779TIP3    H253829   2.628   5.180   5.640 -0.8644  1.3168 -0.5267
10780TIP3   OH253830   6.580   5.425   2.697  0.3734 -0.1421 -0.8167
10780TIP3    H153831   6.619   5.447   2.613  0.9406  1.0145 -0.2654
10780TIP3    H253832   6.486   5.438   2.684  0.4569 -0.0247 -1.2946
10781TIP3   OH253833   0.728   5.715   4.074  0.4707 -0.1295  0.3789
10781TIP3    H153834   0.724   5.809   4.057  1.6101 -0.2230 -0.5499
10781TIP3    H253835   0.773   5.679   3.997  3.6741 -0.9160  2.4447
10782TIP3   OH253836   0.178   5.999  15.977 -0.9717 -0.0761 -0.4366
10782TIP3    H153837   0.170   5.952  15.894  1.3815 -0.4631 -0.5028
10782TIP3    H253838   0.232   6.075  15.956  2.2982 -1.7393  1.2057
10783TIP3   OH253839   5.815   3.898  11.046 -0.4525  0.1248  0.3126
10783TIP3    H153840   5.748   3.912  11.113  0.0937  1.7390  0.5700
10783TIP3    H253841   5.770   3.914  10.963 -1.0069 -1.3946  0.2879
10784TIP3   OH253842   1.069   3.875   2.091 -0.4164  0.0533 -0.2277
10784TIP3    H153843   1.130   3.801   2.088 -0.3965  0.0504  0.1720
10784TIP3    H253844   1.126   3.952   2.081 -0.2956  0.0691  0.4874
10785TIP3   OH253845   6.482   5.002  12.208 -0.3996 -0.2595  0.2207
10785TIP3    H153846   6.445   5.067  12.268  0.1178 -2.7052  3.4452
10785TIP3    H253847   6.576   5.015  12.214 -0.3050 -1.1000  0.7047
10786TIP3   OH253848   6.177   3.375  13.530  0.0347 -0.2621 -0.5031
10786TIP3    H153849   6.197   3.299  13.476 -0.9958 -0.2633 -0.9057
10786TIP3    H253850   6.085   3.394  13.512 -0.5148 -0.5859  1.6541
10787TIP3   OH253851   2.699   5.921  15.282 -0.5227  0.0380  0.9109
10787TIP3    H153852   2.729   6.010  15.261  0.3768 -0.8975 -2.4620
10787TIP3    H253853   2.728   5.868  15.207 -2.3758 -2.8284  2.0525
10788TIP3   OH253854   6.133   5.741   4.759 -0.6215  0.1386 -0.3035
10788TIP3    H153855   6.123   5.670   4.823  4.1076 -0.3308  0.2631
10788TIP3    H253856   6.135   5.696   4.674  3.9027 -1.0101  0.1265
10789TIP3   OH253857   5.261   2.766  14.298 -0.4558  0.5423  0.1458
10789TIP3    H153858   5.204   2.801  14.230 -4.0206 -1.8501  1.6265
10789TIP3    H253859   5.247   2.824  14.374 -2.5845 -1.0607  1.0859
10790TIP3   OH253860   5.657   6.866   2.020  0.2448 -0.4220 -0.4034
10790TIP3    H153861   5.728   6.825   2.069  2.5117 -1.3361 -4.0742
10790TIP3    H253862   5.602   6.793   1.990  0.9976 -0.3225 -2.1540
10791TIP3   OH253863   6.694   2.623   0.609 -0.3266  0.0503  0.0309
10791TIP3    H153864   6.600   2.620   0.590 -0.6588  1.6944  1.2202
10791TIP3    H253865   6.707   2.558   0.677 -0.6114 -0.1497 -0.1044
10792TIP3   OH253866   2.862   0.705  10.686 -1.1681  0.0724  0.0438
10792TIP3    H153867   2.811   0.783  10.667  0.7449  1.2833 -0.4440
10792TIP3    H253868   2.934   0.736  10.741 -1.5028 -1.7529  1.6111
10793TIP3   OH253869   1.872   6.196   1.936  0.0303 -0.0304  0.1548
10793TIP3    H153870   1.927   6.247   1.876  0.7858  0.4722  1.2563
10793TIP3    H253871   1.931   6.132   1.975 -0.2741  0.1488  0.9287
10794TIP3   OH253872   3.728   5.455  11.516 -0.2264  0.0186 -0.2529
10794TIP3    H153873   3.804   5.402  11.540 -0.3096  0.3947  0.9252
10794TIP3    H253874   3.653   5.396  11.527 -0.1016 -0.4628 -1.7713
10795TIP3   OH253875   0.607   1.645   2.757  0.0370 -0.0362 -0.1319
10795TIP3    H153876   0.664   1.621   2.830 -0.4719 -0.5661  0.0967
10795TIP3    H253877   0.641   1.595   2.683  1.7568  1.9338 -0.7689
10796TIP3   OH253878   3.450   6.645  13.767  0.9141 -0.8977 -0.8701
10796TIP3    H153879   3.440   6.578  13.835 -0.8654  2.0954  2.1401
10796TIP3    H253880   3.504   6.713  13.808 -0.1067  0.9827 -2.4435
10797TIP3   OH253881   5.106   2.298  15.334  0.0963  0.1338  0.6524
10797TIP3    H153882   5.059   2.379  15.317  0.0879  0.1595  0.7981
10797TIP3    H253883   5.069   2.235  15.272  1.4288  0.7298 -0.8193
10798TIP3   OH253884   2.119   3.051  15.352  0.0466 -0.1791  0.5723
10798TIP3    H153885   2.034   3.037  15.393  0.0601 -1.9646  0.0796
10798TIP3    H253886   2.104   3.031  15.260  0.8132  0.2829  0.3460
10799TIP3   OH253887   3.443   1.447   6.458  0.0241  0.3741 -0.1697
10799TIP3    H153888   3.508   1.510   6.490  0.4829 -0.2561  0.1515
10799TIP3    H253889   3.449   1.453   6.363  0.4213  0.4586 -0.1435
10800TIP3   OH253890   2.614   3.974  16.833 -0.6361 -0.3194  0.0974
10800TIP3    H153891   2.550   4.019  16.778  1.5289 -0.3983 -2.7134
10800TIP3    H253892   2.692   3.968  16.778  0.7268 -3.2155  2.1225
10801TIP3   OH253893   1.509   4.845   0.403 -0.1981 -0.1927 -0.0303
10801TIP3    H153894   1.514   4.899   0.325  1.8308 -2.1807 -1.3920
10801TIP3    H253895   1.584   4.873   0.456 -1.8874  1.5594  1.6254
10802TIP3   OH253896   4.945   5.994   3.002  0.1418 -0.4478  0.2498
10802TIP3    H153897   4.991   5.972   3.083  0.0098  0.0265  0.4559
10802TIP3    H253898   4.999   6.060   2.960 -0.4091  0.2143  0.5605
10803TIP3   OH253899   5.730   1.235  13.036  1.0792 -0.1324 -0.2054
10803TIP3    H153900   5.821   1.260  13.021  1.2655 -0.0911  0.9479
10803TIP3    H253901   5.734   1.164  13.100  0.2205  1.4457  1.7182
10804TIP3   OH253902   3.304   1.913  14.452  0.1681  0.3847 -0.8202
10804TIP3    H153903   3.324   1.956  14.535 -1.2891 -1.2048  0.4086
10804TIP3    H253904   3.210   1.895  14.456 -0.2648  1.5285 -3.4609
10805TIP3   OH253905   2.531   4.991   6.602  0.6444  0.3544 -0.3670
10805TIP3    H153906   2.441   5.021   6.588  0.0987 -0.1321  1.7865
10805TIP3    H253907   2.569   5.055   6.663  0.6168 -1.2292  1.4158
10806TIP3   OH253908   1.744   2.776   2.479  0.6071  0.0514  0.8106
10806TIP3    H153909   1.832   2.801   2.451  1.1581 -0.5311  1.9235
10806TIP3    H253910   1.754   2.756   2.573 -0.7915  0.3627  1.0511
10807TIP3   OH253911   0.877   0.455   0.460  0.4516  0.7513  0.4312
10807TIP3    H153912   0.968   0.482   0.447  0.2760  1.3107  0.3233
10807TIP3    H253913   0.877   0.410   0.544  0.8892  0.4579  0.2760
10808TIP3   OH253914   0.808   2.255   3.814 -0.2563 -0.6574 -0.2159
10808TIP3    H153915   0.814   2.245   3.719  2.3427  1.0758 -0.3244
10808TIP3    H253916   0.897   2.240   3.845 -0.5608  1.0700  1.6819
10809TIP3   OH253917   4.776   1.581  12.975  0.2094  0.1896 -0.0364
10809TIP3    H153918   4.697   1.607  13.021  0.7024  1.8291 -0.0195
10809TIP3    H253919   4.753   1.585  12.882  0.5625  1.9106 -0.0890
10810TIP3   OH253920   0.782   2.751  14.518 -0.2909  0.3944 -0.1000
10810TIP3    H153921   0.786   2.681  14.583 -0.7953 -0.3905 -0.8917
10810TIP3    H253922   0.873   2.779  14.507  0.0212 -0.6407 -0.2938
10811TIP3   OH253923   1.093   6.624  11.701 -0.6405  0.0754 -0.9236
10811TIP3    H153924   1.002   6.603  11.683 -1.4499  1.8297  0.6700
10811TIP3    H253925   1.091   6.716  11.728  1.6253  0.1934 -0.9374
10812TIP3   OH253926   6.374   4.785   0.908 -0.3988  0.3183 -0.4615
10812TIP3    H153927   6.387   4.751   0.997 -3.0190  0.5051  0.0790
10812TIP3    H253928   6.423   4.867   0.907 -1.0849  0.7948  1.1738
10813TIP3   OH253929   4.829   4.408   5.832  0.2055 -0.3111  0.2841
10813TIP3    H153930   4.833   4.448   5.745  1.0098  0.1739  0.5318
10813TIP3    H253931   4.795   4.477   5.889  0.7845 -0.2453  0.5585
10814TIP3   OH253932   3.029   2.757   0.194  0.0888  0.0420 -0.5130
10814TIP3    H153933   2.998   2.843   0.166 -0.3381  0.0749  0.0472
10814TIP3    H253934   3.007   2.752   0.287 -0.6072 -0.9808 -0.7118
10815TIP3   OH253935   5.219   6.270   1.957 -0.4560  0.1127 -0.0188
10815TIP3    H153936   5.313   6.276   1.942 -0.3486 -0.1501  0.5417
10815TIP3    H253937   5.204   6.321   2.037 -0.9592  1.0940 -0.7094
10816TIP3   OH253938   2.360   6.679  11.573  0.7339 -0.5385 -0.2138
10816TIP3    H153939   2.362   6.728  11.491  1.2015  0.1102  0.1755
10816TIP3    H253940   2.318   6.596  11.550 -0.6070  0.2681 -0.7522
10817TIP3   OH253941   4.479   0.328   4.994 -0.1615 -0.3475  0.1860
10817TIP3    H153942   4.427   0.400   5.030  1.1603  1.1751 -0.8301
10817TIP3    H253943   4.558   0.325   5.048  0.4822 -0.0081 -0.7223
10818TIP3   OH253944   0.082   0.377  11.713 -0.3270 -0.1019  0.1380
10818TIP3    H153945   0.056   0.452  11.766 -0.7680 -0.5326  0.5352
10818TIP3    H253946   0.036   0.389  11.630  0.3661  0.5739 -0.1672
10819TIP3   OH253947   0.645   3.654  11.721 -0.6996  0.3077  0.5660
10819TIP3    H153948   0.695   3.708  11.783 -0.8819 -1.7544  2.6401
10819TIP3    H253949   0.559   3.644  11.761 -0.6625 -1.5251  0.2623
10820TIP3   OH253950   6.866   5.105   1.385  0.2221  0.0272 -0.2085
10820TIP3    H153951   6.857   5.034   1.449  0.3271  0.1051 -0.1071
10820TIP3    H253952   6.954   5.094   1.349  0.3951  0.3620  0.1135
10821TIP3   OH253953   3.628   5.943   3.422  0.2615 -0.2340 -0.5519
10821TIP3    H153954   3.722   5.939   3.405  0.2222  1.9715 -1.6545
10821TIP3    H253955   3.616   6.024   3.471 -1.1338 -0.0904 -1.0841
10822TIP3   OH253956   4.759   2.368   4.843  0.3723 -0.0105  0.2100
10822TIP3    H153957   4.764   2.338   4.752  0.8439 -1.0984  0.5710
10822TIP3    H253958   4.832   2.325   4.886  0.6855  1.1962  0.9260
10823TIP3   OH253959   1.861   5.897   3.029 -0.1491 -0.3505 -0.3303
10823TIP3    H153960   1.954   5.875   3.025 -0.0152  0.3244 -3.6652
10823TIP3    H253961   1.831   5.859   3.112  3.0296 -0.6415  0.8301
10824TIP3   OH253962   6.768   3.577   2.116  0.6109  0.1175  0.1010
10824TIP3    H153963   6.794   3.655   2.067 -1.2522  0.1775 -0.9078
10824TIP3    H253964   6.826   3.508   2.083  0.8698  0.6427 -0.5669
10825TIP3   OH253965   6.873   6.802   5.577 -0.2531  0.4511 -0.3097
10825TIP3    H153966   6.859   6.714   5.613 -1.4235  0.3746 -0.8887
10825TIP3    H253967   6.819   6.859   5.631 -0.2141  0.6781 -0.5090
10826TIP3   OH253968   0.602   5.824   4.949 -0.2848 -0.0205 -0.1259
10826TIP3    H153969   0.649   5.900   4.983 -0.1681 -0.4159  0.5997
10826TIP3    H253970   0.539   5.801   5.018  2.2630 -2.9497  1.4675
10827TIP3   OH253971   3.295   6.692  13.539 -0.5203 -0.2165 -0.6390
10827TIP3    H153972   3.367   6.682  13.600 -0.1184  0.4191 -1.0007
10827TIP3    H253973   3.327   6.753  13.473 -1.6571  0.6787 -0.3856
10828TIP3   OH253974   2.528   1.719   4.411 -0.4066  0.1224  0.4996
10828TIP3    H153975   2.508   1.631   4.442 -0.2098 -0.8404 -1.9114
10828TIP3    H253976   2.618   1.735   4.439 -0.0544 -0.9124  0.0009
10829TIP3   OH253977   5.649   1.411  14.826  0.5251 -0.1207 -0.1838
10829TIP3    H153978   5.640   1.398  14.731 -0.1643 -1.1044  0.0016
10829TIP3    H253979   5.659   1.322  14.861  1.2098  0.2601  0.6327
10830TIP3   OH253980   4.627   1.932  14.162 -0.2619  0.3913 -0.6824
10830TIP3    H153981   4.710   1.896  14.195 -0.0393  0.7848 -0.7951
10830TIP3    H253982   4.654   2.005  14.105 -0.7228  1.3547  0.2912
10831TIP3   OH253983   0.297   5.832   5.883  0.3819 -0.8864 -0.5402
10831TIP3    H153984   0.271   5.864   5.969  0.3299  0.5600 -1.0653
10831TIP3    H253985   0.364   5.766   5.901 -0.5013 -1.4948  0.6468
10832TIP3   OH253986   4.933   4.197  11.420 -0.4466 -0.1884 -0.1607
10832TIP3    H153987   5.001   4.179  11.355 -0.5843  3.0398 -1.3787
10832TIP3    H253988   4.967   4.160  11.501  2.0794 -0.0069 -1.0599
10833TIP3   OH253989   4.125   1.975  13.303 -0.6268 -1.0530 -0.1073
10833TIP3    H153990   4.214   1.990  13.271 -0.6389  0.6425  0.5715
10833TIP3    H253991   4.136   1.923  13.382 -0.1466 -0.1930  0.4138
10834TIP3   OH253992   0.060   0.571   1.964  0.3344  0.1442  0.2424
10834TIP3    H153993   0.012   0.650   1.941 -0.8801 -0.9514 -1.2631
10834TIP3    H253994   0.142   0.577   1.915 -0.2735 -0.0432 -0.8413
10835TIP3   OH253995   1.154   5.582  14.159  0.2805  0.5254 -0.0359
10835TIP3    H153996   1.125   5.662  14.205 -0.2429 -0.2589  1.0490
10835TIP3    H253997   1.249   5.587  14.161  0.2522  1.1661 -0.0425
10836TIP3   OH253998   4.740   3.286   4.214 -0.0651  0.0160 -0.5680
10836TIP3    H153999   4.775   3.370   4.242  0.1910 -0.2395 -0.1060
10836TIP3    H254000   4.757   3.227   4.288 -1.7281 -0.0428 -0.1875
10837TIP3   OH254001   3.178   3.285   3.192 -0.1239  0.0471 -0.6134
10837TIP3    H154002   3.111   3.305   3.258  0.4150  2.4723 -0.7253
10837TIP3    H254003   3.254   3.257   3.243  0.4844  2.4728 -0.0765
10838TIP3   OH254004   3.923   0.445   1.842  0.3721 -0.1431 -0.3552
10838TIP3    H154005   3.976   0.379   1.887  0.7243 -1.0237 -2.0130
10838TIP3    H254006   3.904   0.408   1.757  0.5028  1.8541 -1.3260
10839TIP3   OH254007   3.477   3.570   2.514  0.1317  0.2912 -0.4708
10839TIP3    H154008   3.415   3.595   2.446 -0.6403 -0.4497 -0.0619
10839TIP3    H254009   3.563   3.594   2.478 -0.2448 -0.1594 -1.7354
10840TIP3   OH254010   2.388   5.813  16.386 -0.3998 -0.4914  0.0179
10840TIP3    H154011   2.311   5.853  16.427  0.4929  0.4849  0.8288
10840TIP3    H254012   2.461   5.841  16.442  0.4719 -1.9467 -0.3345
10841TIP3   OH254013   2.145   2.133   5.600 -0.5987 -0.0254  0.2404
10841TIP3    H154014   2.078   2.097   5.658 -0.9120  0.4771  0.1956
10841TIP3    H254015   2.170   2.060   5.544 -0.5983 -0.4049  0.7233
10842TIP3   OH254016   3.522   1.444   1.851 -0.3877  0.0705 -0.4774
10842TIP3    H154017   3.556   1.427   1.763 -0.6190  1.1003 -0.7859
10842TIP3    H254018   3.578   1.515   1.884 -0.2362 -0.3830  0.2458
10843TIP3   OH254019   6.439   4.547  13.830 -0.3539 -0.1384  0.0409
10843TIP3    H154020   6.478   4.608  13.893  0.0202  0.7389 -0.9980
10843TIP3    H254021   6.514   4.515  13.779 -0.8318  0.5831 -1.1480
10844TIP3   OH254022   2.320   0.557  14.437 -0.2804  0.0035 -0.2976
10844TIP3    H154023   2.321   0.556  14.533  1.1405  1.7004 -0.2522
10844TIP3    H254024   2.257   0.489  14.413 -0.8196 -0.3123  1.8377
10845TIP3   OH254025   3.511   0.511   0.491 -0.0743 -0.0021  0.2026
10845TIP3    H154026   3.505   0.416   0.479  0.5948 -0.1545  0.9822
10845TIP3    H254027   3.603   0.532   0.476 -0.1730  0.4969  0.2666
10846TIP3   OH254028   3.080   5.930   4.507 -0.1839  0.7401 -0.0897
10846TIP3    H154029   3.121   5.997   4.563  1.7504 -1.2727  1.0623
10846TIP3    H254030   3.114   5.948   4.419  0.6606  1.0195  0.2893
10847TIP3   OH254031   5.262   4.529  15.090  0.3381 -0.7465 -0.7732
10847TIP3    H154032   5.183   4.476  15.089 -0.1008 -0.1369 -2.1706
10847TIP3    H254033   5.290   4.532  15.181 -2.2336  0.4584  0.0492
10848TIP3   OH254034   2.085   4.350   5.033 -0.1387  0.7247 -0.2506
10848TIP3    H154035   2.142   4.336   4.958  2.0334 -2.0627  1.7033
10848TIP3    H254036   2.004   4.386   4.996  2.5493  4.4557 -3.2445
10849TIP3   OH254037   6.087   1.593  15.419  0.5034  0.1884 -0.1311
10849TIP3    H154038   6.129   1.546  15.491  0.8053  1.5539  0.6234
10849TIP3    H254039   6.008   1.544  15.401  1.1841 -1.0351  0.0979
10850TIP3   OH254040   5.729   4.220  12.160 -0.1568 -0.2262  0.0559
10850TIP3    H154041   5.693   4.226  12.249  0.1702  2.3844  0.0656
10850TIP3    H254042   5.700   4.299  12.116  2.0650 -0.0662 -1.2744
10851TIP3   OH254043   6.676   6.216   2.961  0.0123  0.3039  0.1506
10851TIP3    H154044   6.768   6.193   2.951 -0.1659 -0.2494 -0.2396
10851TIP3    H254045   6.639   6.209   2.873  0.1392  3.0313 -0.2261
10852TIP3   OH254046   3.683   4.063   4.258  0.2352  0.0957  0.4662
10852TIP3    H154047   3.735   3.997   4.211 -0.3226  1.0073 -1.5283
10852TIP3    H254048   3.593   4.048   4.228 -0.8320 -1.5552  3.9723
10853TIP3   OH254049   3.684   6.595  16.838  0.1761  0.0607  0.8273
10853TIP3    H154050   3.676   6.507  16.874 -2.3209 -0.3463 -0.5146
10853TIP3    H254051   3.630   6.594  16.759  1.5014  2.3146 -0.2225
10854TIP3   OH254052   0.368   5.599   3.316 -0.0115 -0.0012  0.3874
10854TIP3    H154053   0.377   5.694   3.323 -2.3138  0.1768  2.3658
10854TIP3    H254054   0.430   5.565   3.380 -1.0767  0.3554  1.6575
10855TIP3   OH254055   0.912   2.978   0.760  0.2340 -0.3634 -0.1912
10855TIP3    H154056   0.943   3.044   0.822  0.1185 -0.3032 -0.1977
10855TIP3    H254057   0.881   2.906   0.814 -0.0026 -0.2498 -0.1775
10856TIP3   OH254058   2.106   6.174  16.389  0.0916  0.2461  0.6909
10856TIP3    H154059   2.023   6.127  16.396  1.5729 -2.9149 -0.8569
10856TIP3    H254060   2.135   6.158  16.299  2.8564  0.3436  1.4826
10857TIP3   OH254061   6.872   1.007  16.540 -0.2155 -0.0178  0.0170
10857TIP3    H154062   6.924   0.982  16.616  1.6945 -1.0389 -1.5470
10857TIP3    H254063   6.931   0.997  16.465 -1.8259  1.5544 -1.5668
10858TIP3   OH254064   1.731   0.706   0.123  0.4654  0.2827 -0.3009
10858TIP3    H154065   1.804   0.697   0.062  0.3512 -0.1386 -0.3793
10858TIP3    H254066   1.669   0.763   0.078  0.8273  0.7924 -0.1550
10859TIP3   OH254067   3.514   3.060  16.751 -0.2699  0.4333  0.1595
10859TIP3    H154068   3.599   3.104  16.745 -0.6061  0.9894 -0.8483
10859TIP3    H254069   3.482   3.059  16.661 -1.8716  1.3349  0.6755
10860TIP3   OH254070   1.335   1.901   1.046 -0.4727  0.1406  0.4960
10860TIP3    H154071   1.374   1.847   0.978  2.7073  1.0808  1.3934
10860TIP3    H254072   1.335   1.990   1.009 -0.0695  0.4310  1.1766
10861TIP3   OH254073   2.792   1.738  16.769  0.7513 -0.5221 -0.0803
10861TIP3    H154074   2.870   1.731  16.824  0.6549  0.9869  0.3079
10861TIP3    H254075   2.727   1.683  16.812  0.7509  0.4457  1.2446
10862TIP3   OH254076   6.496   3.944  14.205  0.1874 -0.2759  0.3885
10862TIP3    H154077   6.560   3.873  14.193 -0.8839 -1.0952 -0.7683
10862TIP3    H254078   6.411   3.902  14.191 -0.5038  1.1367  0.1878
10863TIP3   OH254079   1.201   2.698   1.687 -0.1748 -0.2318 -0.2705
10863TIP3    H154080   1.274   2.720   1.746 -0.0382 -1.1835 -0.0738
10863TIP3    H254081   1.123   2.722   1.736 -0.0546 -0.8403  0.2350
10864TIP3   OH254082   2.106   1.988   4.198  0.0766 -0.1539  0.4329
10864TIP3    H154083   2.173   2.055   4.190 -1.3984  1.2799 -0.7380
10864TIP3    H254084   2.027   2.035   4.226 -1.1621 -1.2471 -1.0067
10865TIP3   OH254085   2.465   1.050  14.541  0.0826 -0.2830  0.4477
10865TIP3    H154086   2.432   0.963  14.521  0.1036 -0.3272  0.6104
10865TIP3    H254087   2.548   1.056  14.493  0.5320 -0.6855  1.1653
10866TIP3   OH254088   3.340   3.948   3.094  0.0559 -0.3450  0.1056
10866TIP3    H154089   3.403   3.967   3.025  0.0864  0.3123  0.3136
10866TIP3    H254090   3.388   3.890   3.154  0.1929 -0.5100 -0.1632
10867TIP3   OH254091   1.876   5.964  11.444 -0.1280 -0.0777 -0.2919
10867TIP3    H154092   1.914   6.047  11.415  0.2457 -0.8635 -2.1776
10867TIP3    H254093   1.783   5.985  11.458  0.3809  1.1715  1.5562
10868TIP3   OH254094   1.234   0.601   2.456  0.5675  0.9615  0.4466
10868TIP3    H154095   1.152   0.553   2.443  0.8989  0.3768  0.5059
10868TIP3    H254096   1.221   0.682   2.405 -0.0300  0.8631  0.4261
10869TIP3   OH254097   3.126   6.633   3.150  0.2307 -0.3663  0.4179
10869TIP3    H154098   3.123   6.600   3.239  2.0017  2.5366  1.7241
10869TIP3    H254099   3.209   6.601   3.115 -0.0947 -0.8524  0.0792
10870TIP3   OH254100   3.994   5.921   5.601 -0.2238 -0.2892  0.6737
10870TIP3    H154101   4.077   5.913   5.648 -0.0725  0.5441  0.5597
10870TIP3    H254102   3.957   6.004   5.630 -1.0440 -0.6716  0.7568
10871TIP3   OH254103   3.915   1.082   2.449  0.7666 -0.3697  0.7362
10871TIP3    H154104   3.938   1.079   2.542 -0.2395 -0.1998  0.9940
10871TIP3    H254105   3.841   1.142   2.444  2.5744  1.9331 -0.5569
10872TIP3   OH254106   5.165   4.789  14.853  0.6135 -0.2892  0.3421
10872TIP3    H154107   5.177   4.791  14.758 -2.4155 -0.2065 -0.1280
10872TIP3    H254108   5.176   4.697  14.876 -0.7795 -0.6924 -0.4752
10873TIP3   OH254109   3.503   2.765   2.843  0.5735 -0.2553 -0.4694
10873TIP3    H154110   3.483   2.769   2.936  0.7723 -0.0026 -0.4352
10873TIP3    H254111   3.493   2.856   2.812  0.7576 -0.2920 -0.6408
10874TIP3   OH254112   4.404   2.197  11.975 -0.3560  0.2761 -0.1280
10874TIP3    H154113   4.385   2.217  12.067  0.2040  1.5254 -0.2621
10874TIP3    H254114   4.325   2.154  11.943  0.5136 -3.0349  1.7045
10875TIP3   OH254115   2.908   4.059  12.118  0.3057 -0.2421  0.0356
10875TIP3    H154116   2.877   4.148  12.102  1.3632  0.1340 -0.0015
10875TIP3    H254117   2.959   4.037  12.040  0.8586 -0.5009  0.4624
10876TIP3   OH254118   4.331   4.108   5.081  0.2276 -0.0724 -0.3034
10876TIP3    H154119   4.339   4.203   5.077  0.9541 -0.1227 -0.1660
10876TIP3    H254120   4.298   4.091   5.170  2.3293 -0.0644  0.5364
10877TIP3   OH254121   1.773   4.106   1.331  0.1915 -0.5601 -0.1888
10877TIP3    H154122   1.809   4.180   1.283 -1.1817 -0.3789 -0.9788
10877TIP3    H254123   1.844   4.041   1.332  0.6193 -0.1368 -1.4830
10878TIP3   OH254124   4.463   5.499  12.017 -0.3516 -0.4888 -0.0173
10878TIP3    H154125   4.457   5.558  11.941 -1.9282  1.8373  1.7335
10878TIP3    H254126   4.557   5.485  12.029  0.2354  2.7441  0.1376
10879TIP3   OH254127   2.185   3.369   0.837  1.1129  0.5733  0.1119
10879TIP3    H154128   2.222   3.284   0.815 -0.9672 -0.1338 -1.0037
10879TIP3    H254129   2.124   3.351   0.908 -1.1340  0.5838 -1.6859
10880TIP3   OH254130   2.278   5.312  16.940  0.3052 -0.3311  0.2219
10880TIP3    H154131   2.236   5.339  17.021  3.0290  0.3151  1.5158
10880TIP3    H254132   2.234   5.364  16.872 -1.1682  0.0372  1.4058
10881TIP3   OH254133   3.640   2.491  15.397  0.1251  0.0628 -0.0681
10881TIP3    H154134   3.590   2.439  15.459  0.5008 -1.8906 -1.3239
10881TIP3    H254135   3.649   2.577  15.440 -1.0290 -0.6836  1.8063
10882TIP3   OH254136   4.846   1.678  12.320  0.1212  0.1871 -0.1569
10882TIP3    H154137   4.803   1.764  12.323  0.2031  0.2177  0.2649
10882TIP3    H254138   4.822   1.637  12.404  0.0830 -0.2007 -0.3555
10883TIP3   OH254139   5.268   0.285   2.301 -0.1822 -0.1884  0.4211
10883TIP3    H154140   5.201   0.328   2.247 -1.5299 -1.9057  0.6396
10883TIP3    H254141   5.243   0.307   2.391  1.4479  1.7882  0.4559
10884TIP3   OH254142   1.216   2.404   1.255 -0.1250 -0.0467  0.0442
10884TIP3    H154143   1.194   2.464   1.184  1.5608  1.4697  0.7186
10884TIP3    H254144   1.273   2.339   1.216  0.8582  0.8257 -0.0306
10885TIP3   OH254145   6.299   6.152   4.108 -0.8093 -0.5322  0.0419
10885TIP3    H154146   6.256   6.237   4.097 -0.2609 -0.2466  0.0740
10885TIP3    H254147   6.254   6.111   4.182 -1.7757 -0.7196 -0.6249
10886TIP3   OH254148   0.865   2.942   6.054 -0.5078 -0.0367 -0.0953
10886TIP3    H154149   0.784   2.904   6.019 -0.5955  1.3912 -1.5316
10886TIP3    H254150   0.884   3.015   5.996  1.6051 -0.0822  0.4847
10887TIP3   OH254151   1.043   5.446  16.347  0.2753  0.1845  0.1920
10887TIP3    H154152   1.064   5.411  16.433  1.7834  1.4335  0.3833
10887TIP3    H254153   1.061   5.539  16.354 -2.0991  0.7765 -0.7501
10888TIP3   OH254154   1.705   5.279  13.439 -0.0145  0.0607 -0.0807
10888TIP3    H154155   1.719   5.185  13.450  1.2572  0.5229  3.3775
10888TIP3    H254156   1.784   5.309  13.393  0.6942 -0.2638  0.8994
10889TIP3   OH254157   5.232   2.709  15.437  0.1698 -0.1845 -0.3041
10889TIP3    H154158   5.176   2.785  15.450 -0.8423 -1.0134  0.3134
10889TIP3    H254159   5.321   2.743  15.444 -0.2773  0.6663  1.7378
10890TIP3   OH254160   1.663   4.398  14.618  0.2988  0.4745 -0.3011
10890TIP3    H154161   1.622   4.369  14.699 -2.1160  2.0065 -0.8744
10890TIP3    H254162   1.623   4.344  14.550  1.5833 -0.1286 -0.6066
10891TIP3   OH254163   2.589   1.601   4.985  0.2840 -0.4687  0.1775
10891TIP3    H154164   2.564   1.662   5.055 -1.3576  1.0995 -1.6557
10891TIP3    H254165   2.654   1.649   4.933 -0.0113 -0.8013 -0.5180
10892TIP3   OH254166   3.617   6.306  13.378  0.3174  0.0862  0.1687
10892TIP3    H154167   3.632   6.250  13.303  1.4119 -0.0087  0.4412
10892TIP3    H254168   3.531   6.345  13.362 -0.0410 -0.9316 -0.4796
10893TIP3   OH254169   4.515   3.629  11.274  0.1210 -0.0376  0.3799
10893TIP3    H154170   4.525   3.602  11.183  1.2522 -0.7509  0.6898
10893TIP3    H254171   4.604   3.624  11.310 -0.2574  0.5396  1.4384
10894TIP3   OH254172   3.319   6.555   2.290 -0.3254 -0.3407  0.0798
10894TIP3    H154173   3.323   6.606   2.371  1.2129  0.9781 -0.7695
10894TIP3    H254174   3.384   6.596   2.233 -0.8603 -1.6947 -1.5710
10895TIP3   OH254175   1.756   1.794   1.631  0.1544  0.3508 -0.0247
10895TIP3    H154176   1.816   1.867   1.613 -0.1997  0.6656  0.0593
10895TIP3    H254177   1.814   1.720   1.650  0.5969 -0.0028 -2.3300
10896TIP3   OH254178   4.044   2.622  15.908 -0.0019  0.3779 -0.1702
10896TIP3    H154179   4.083   2.584  15.830 -1.8554 -1.5383 -0.2549
10896TIP3    H254180   4.119   2.643  15.965  1.3745  1.6869 -2.3141
10897TIP3   OH254181   1.284   2.361  16.067  0.0545 -0.2891  0.1725
10897TIP3    H154182   1.197   2.322  16.077  0.6144 -1.2751  1.7447
10897TIP3    H254183   1.324   2.313  15.995 -0.2763 -0.6948  0.2561
10898TIP3   OH254184   2.689   6.768   5.972 -0.0668 -0.1050 -0.4656
10898TIP3    H154185   2.674   6.847   6.023  2.0435  0.0041  0.0905
10898TIP3    H254186   2.612   6.714   5.988 -0.5708  0.9499  0.8801
10899TIP3   OH254187   5.539   5.176   4.581 -0.1109 -0.5761  0.3936
10899TIP3    H154188   5.561   5.160   4.672  2.2060 -2.0251 -0.3443
10899TIP3    H254189   5.505   5.092   4.549 -0.0119 -0.3563 -0.3079
10900TIP3   OH254190   4.098   5.803  11.954 -0.7109  0.2575  0.2488
10900TIP3    H154191   4.141   5.748  11.888 -1.1857  1.4971 -1.1403
10900TIP3    H254192   4.035   5.745  11.996  0.2053 -0.7863  0.2231
10901TIP3   OH254193   4.915   4.493  10.829  0.0246 -0.0321  0.4081
10901TIP3    H154194   4.934   4.421  10.889 -2.0128 -0.1668  0.9801
10901TIP3    H254195   4.876   4.450  10.753  0.6048  0.3273 -0.1056
10902TIP3   OH254196   3.479   2.388   0.126  0.0576 -0.2516  0.4660
10902TIP3    H154197   3.445   2.343   0.203 -0.9691  1.4876  1.0969
10902TIP3    H254198   3.409   2.449   0.101  1.1170  0.5497 -0.6956
10903TIP3   OH254199   6.322   6.063  12.373 -0.4227 -0.3402  0.5354
10903TIP3    H154200   6.334   6.153  12.404  0.5069 -0.2183 -0.1158
10903TIP3    H254201   6.290   6.073  12.284 -1.1064 -0.6695  0.7401
10904TIP3   OH254202   0.101   2.008  12.280 -0.2509  0.5075  0.2856
10904TIP3    H154203   0.010   2.011  12.249 -0.4626  3.2158  0.9723
10904TIP3    H254204   0.151   2.047  12.209  0.3412 -0.4438  0.1625
10905TIP3   OH254205   2.357   0.924  13.300  0.4682 -0.4031  0.1276
10905TIP3    H154206   2.311   0.841  13.294 -0.0157 -0.3505  2.3064
10905TIP3    H254207   2.433   0.905  13.356  0.8179  0.4186 -0.0530
10906TIP3   OH254208   5.316   0.615   0.740  0.3894 -0.2931 -0.7269
10906TIP3    H154209   5.354   0.536   0.701 -0.8262 -0.9595 -0.6073
10906TIP3    H254210   5.228   0.589   0.767  0.8021  0.4396  1.5445
10907TIP3   OH254211   0.858   4.502   0.507  0.2766 -0.5680  0.4985
10907TIP3    H154212   0.874   4.408   0.511 -1.3710 -0.8425  3.3387
10907TIP3    H254213   0.764   4.510   0.495  0.4320  0.7478 -0.0170
10908TIP3   OH254214   2.869   0.144   1.777 -0.5198  0.0092 -0.1875
10908TIP3    H154215   2.944   0.086   1.769  0.1256  0.9232 -0.9195
10908TIP3    H254216   2.843   0.137   1.869 -0.4185 -1.3648 -0.2492
10909TIP3   OH254217   2.829   1.860  12.636  0.1653  0.8994  0.5211
10909TIP3    H154218   2.913   1.905  12.651  0.0242  0.8126  1.6781
10909TIP3    H254219   2.834   1.831  12.545  2.4257 -1.1399  1.1602
10910TIP3   OH254220   5.449   5.986  14.681 -0.3687  1.3292 -0.1967
10910TIP3    H154221   5.421   6.023  14.764 -0.7919 -1.0787  0.8135
10910TIP3    H254222   5.541   5.965  14.693 -0.5040  0.7040 -0.2001
10911TIP3   OH254223   4.809   2.423   0.898  0.0885  0.5016  0.2503
10911TIP3    H154224   4.747   2.496   0.890 -2.5742 -1.6169  0.3389
10911TIP3    H254225   4.869   2.435   0.824 -0.4759  2.5476  0.0585
10912TIP3   OH254226   2.057   4.537   4.145  0.8863  0.3354  0.3060
10912TIP3    H154227   2.059   4.521   4.240 -0.7664 -0.8867  0.1747
10912TIP3    H254228   2.116   4.611   4.132  3.2402 -1.0843  1.9621
10913TIP3   OH254229   4.802   4.840   2.756  0.6910  0.9527 -0.2248
10913TIP3    H154230   4.844   4.905   2.700  0.3974  0.1020 -1.4761
10913TIP3    H254231   4.862   4.765   2.756  0.7789  1.0035  0.7696
10914TIP3   OH254232   2.028   2.565   3.438 -0.3371  0.2373  0.0826
10914TIP3    H154233   2.084   2.506   3.489 -0.5252  0.4722  0.5735
10914TIP3    H254234   2.074   2.649   3.440 -0.6081  0.3817  0.3216
10915TIP3   OH254235   5.386   2.306  12.646 -0.4828 -0.5858  0.1046
10915TIP3    H154236   5.468   2.326  12.601 -0.3141  0.4183  0.8225
10915TIP3    H254237   5.400   2.336  12.736 -1.2720 -1.3605  0.5030
10916TIP3   OH254238   5.925   1.550  11.495 -0.3066  0.0267  0.5726
10916TIP3    H154239   6.010   1.510  11.515 -0.6305 -0.7341  0.4136
10916TIP3    H254240   5.861   1.498  11.542 -0.5869  1.4271  1.8293
10917TIP3   OH254241   3.827   2.017  13.496  0.2238 -0.1445  0.1419
10917TIP3    H154242   3.849   2.020  13.403  1.0481 -1.8848  0.2439
10917TIP3    H254243   3.906   2.046  13.541 -0.9286  3.1069  0.3164
10918TIP3   OH254244   1.642   4.815  16.562  0.3393 -0.0052 -0.1488
10918TIP3    H154245   1.627   4.910  16.563  0.0211 -0.0565  0.6681
10918TIP3    H254246   1.636   4.789  16.654  0.7194 -0.7752 -0.3365
10919TIP3   OH254247   3.286   6.767  11.709 -0.2125  0.6165 -0.4359
10919TIP3    H154248   3.322   6.849  11.675  0.0751  0.3909 -0.6782
10919TIP3    H254249   3.198   6.762  11.671 -1.2574  2.0670  1.5735
10920TIP3   OH254250   2.861   4.559  12.384  0.2932  0.3086  0.3918
10920TIP3    H154251   2.940   4.612  12.376 -0.1782  0.7345 -2.6367
10920TIP3    H254252   2.889   4.470  12.361  0.0716  0.2849  0.2082
10921TIP3   OH254253   6.422   6.169   0.419 -0.1340  0.2383 -0.9997
10921TIP3    H154254   6.338   6.195   0.381 -1.0727  1.3495  1.6022
10921TIP3    H254255   6.404   6.087   0.464  0.9106 -0.9559 -2.6461
10922TIP3   OH254256   6.717   2.593  12.277  0.4859 -0.2994 -0.8211
10922TIP3    H154257   6.770   2.619  12.352  0.3534 -0.5594 -0.6366
10922TIP3    H254258   6.728   2.664  12.214 -2.4896  1.9275  0.9200
10923TIP3   OH254259   0.435   1.454  11.924 -0.1001  0.1132  0.5700
10923TIP3    H154260   0.453   1.388  11.991  0.8537  0.8522  1.0681
10923TIP3    H254261   0.371   1.512  11.966 -0.6262 -0.2566  0.2847
10924TIP3   OH254262   6.724   1.832  14.457  0.1579 -0.2685  0.0250
10924TIP3    H154263   6.648   1.796  14.412 -0.4373  0.8229  0.1135
10924TIP3    H254264   6.743   1.913  14.409 -0.8071  1.1929  1.9853
10925TIP3   OH254265   3.770   6.671   5.842 -0.3214  0.1944 -0.6245
10925TIP3    H154266   3.766   6.737   5.773 -1.5102 -1.3538 -2.1300
10925TIP3    H254267   3.727   6.712   5.917 -0.4766  1.3534 -1.3270
10926TIP3   OH254268   3.946   6.578  11.333  0.4709  0.1561 -0.1368
10926TIP3    H154269   3.854   6.556  11.319  0.5077  0.1724 -0.3958
10926TIP3    H254270   3.982   6.591  11.246  0.2504  2.1206  0.0248
10927TIP3   OH254271   0.150   5.003  13.920 -0.1489  0.2281 -0.2135
10927TIP3    H154272   0.094   4.927  13.937  1.7096 -1.1073  0.1547
10927TIP3    H254273   0.152   5.010  13.825 -1.1033  0.4336 -0.2266
10928TIP3   OH254274   1.794   1.499   0.132  0.0619  0.3438  0.7697
10928TIP3    H154275   1.804   1.445   0.210 -1.9978  1.4157  1.8371
10928TIP3    H254276   1.834   1.583   0.155 -0.5683  0.6699  0.7058
10929TIP3   OH254277   0.308   6.391   4.162  0.1136  0.6209  0.1045
10929TIP3    H154278   0.238   6.332   4.190 -0.8391  1.0053 -1.3688
10929TIP3    H254279   0.307   6.462   4.226 -1.0348  0.7566 -0.0408
10930TIP3   OH254280   4.219   4.278  12.141  0.0755 -0.6644 -0.5179
10930TIP3    H154281   4.314   4.276  12.126  0.5044  0.2358  1.6743
10930TIP3    H254282   4.207   4.347  12.206 -2.3699  0.8242 -2.3841
10931TIP3   OH254283   1.926   3.667  11.303 -0.6770  0.6085  0.1838
10931TIP3    H154284   1.888   3.653  11.216  0.5341 -1.2685 -0.1030
10931TIP3    H254285   1.934   3.579  11.340 -0.4967  1.3158  1.9142
10932TIP3   OH254286   4.650   0.525   4.415  0.1135  0.6129 -0.1227
10932TIP3    H154287   4.644   0.492   4.325  1.4295  1.4790 -0.5471
10932TIP3    H254288   4.741   0.510   4.440 -0.7350 -1.8201  1.9726
10933TIP3   OH254289   5.942   2.423  16.623 -0.3044 -0.4611 -0.0564
10933TIP3    H154290   5.872   2.462  16.675 -0.2476 -2.2069  1.4417
10933TIP3    H254291   6.022   2.453  16.665 -0.1174  0.7842 -1.2125
10934TIP3   OH254292   2.638   5.443  13.172  0.3685 -0.3246 -0.3595
10934TIP3    H154293   2.709   5.383  13.194 -0.0571 -0.6251  0.2108
10934TIP3    H254294   2.645   5.453  13.077  0.3328 -1.4316 -0.4940
10935TIP3   OH254295   1.052   3.087  13.518  0.2218  0.5335 -0.7630
10935TIP3    H154296   1.094   3.081  13.604 -1.7526 -0.7524  0.1887
10935TIP3    H254297   1.003   3.169  13.521  0.6678  0.8032 -0.9010
10936TIP3   OH254298   0.518   0.184  16.814  0.1548 -0.4332  0.1696
10936TIP3    H154299   0.595   0.128  16.804  0.4747  0.1473 -0.6631
10936TIP3    H254300   0.493   0.207  16.725 -1.7623 -1.6275  0.3503
10937TIP3   OH254301   0.473   2.853  10.698  0.5474  0.0087 -0.6122
10937TIP3    H154302   0.457   2.857  10.604  0.9738 -2.5947 -0.8696
10937TIP3    H254303   0.490   2.760  10.715  0.5616  0.4338  2.0259
10938TIP3   OH254304   3.461   0.498  12.073 -0.0741  0.1420  0.1734
10938TIP3    H154305   3.524   0.433  12.041  1.8504  2.2546 -0.6038
10938TIP3    H254306   3.402   0.512  11.999  2.9421  3.2822 -1.9018
10939TIP3   OH254307   4.986   0.451   2.418  0.5027  0.1451 -0.6825
10939TIP3    H154308   4.927   0.525   2.430 -1.4361 -1.5827  1.4103
10939TIP3    H254309   4.948   0.381   2.471  3.2460 -1.8081 -1.0666
10940TIP3   OH254310   6.299   5.115   0.165 -0.0393 -0.6366 -0.2638
10940TIP3    H154311   6.283   5.021   0.161  0.1431 -0.6920  0.2117
10940TIP3    H254312   6.316   5.132   0.258  0.7665 -0.2746 -0.4694
10941TIP3   OH254313   1.679   5.622   5.898 -0.2536 -0.5643  0.4975
10941TIP3    H154314   1.710   5.640   5.987 -1.3426 -1.0267  0.9838
10941TIP3    H254315   1.610   5.556   5.910 -1.2924  0.3069 -0.5615
10942TIP3   OH254316   4.396   3.452  15.788 -0.1062 -0.6660  0.4615
10942TIP3    H154317   4.368   3.408  15.868  0.0975 -1.8298 -0.0925
10942TIP3    H254318   4.316   3.463  15.737 -0.6748  2.1682  1.7356
10943TIP3   OH254319   4.410   5.140   3.369  0.5625 -0.2318  0.1954
10943TIP3    H154320   4.435   5.204   3.302  1.4423  0.5392  1.2280
10943TIP3    H254321   4.368   5.193   3.438 -1.3103 -1.1408 -0.1842
10944TIP3   OH254322   3.312   6.490  11.644  0.0362  0.4070 -0.1968
10944TIP3    H154323   3.324   6.578  11.608  1.7656 -0.2447 -1.3338
10944TIP3    H254324   3.219   6.473  11.634 -0.3610  2.1357  0.1625
10945TIP3   OH254325   1.943   3.844  12.960 -0.6310  0.0485 -0.0798
10945TIP3    H154326   1.958   3.763  12.911 -1.1024  0.6425 -1.2369
10945TIP3    H254327   2.024   3.859  13.008  0.6290  0.5382 -2.2751
10946TIP3   OH254328   3.822   2.076  13.224 -0.5012  0.3251 -0.0219
10946TIP3    H154329   3.915   2.074  13.200 -0.4432 -2.1050  0.1619
10946TIP3    H254330   3.776   2.056  13.143 -0.5927 -2.4305  0.6264
10947TIP3   OH254331   4.143   5.669  11.415  0.3864 -0.0810 -0.0867
10947TIP3    H154332   4.206   5.717  11.361 -0.6978  1.0909 -0.3602
10947TIP3    H254333   4.079   5.735  11.441  0.1672 -0.8932  1.5741
10948TIP3   OH254334   1.926   3.611   2.100 -0.2692  0.4509  0.6739
10948TIP3    H154335   1.882   3.600   2.015 -1.6643  0.4342  1.3740
10948TIP3    H254336   2.020   3.609   2.079 -0.5625 -1.2586 -0.6530
10949TIP3   OH254337   5.317   2.772   4.530 -0.6506  0.1619  0.0433
10949TIP3    H154338   5.249   2.705   4.541 -0.0340 -0.6094 -0.7433
10949TIP3    H254339   5.327   2.810   4.617 -0.2735 -1.5116  0.7789
10950TIP3   OH254340   3.795   5.353  13.630  0.4740 -0.3280 -0.1389
10950TIP3    H154341   3.726   5.307  13.678  0.7504 -0.5053  0.0913
10950TIP3    H254342   3.871   5.296  13.637  0.6824 -0.0682 -0.2766
10951TIP3   OH254343   2.768   0.792  10.981  0.4846  0.2932  0.0398
10951TIP3    H154344   2.752   0.880  11.015  0.4738  0.1329  0.4598
10951TIP3    H254345   2.845   0.800  10.926 -1.0091  1.1042 -2.0673
10952TIP3   OH254346   2.542   5.221  12.339 -0.0522  0.3044  0.2987
10952TIP3    H154347   2.455   5.234  12.302 -0.4400  3.7536  2.0455
10952TIP3    H254348   2.595   5.293  12.304  1.7592 -0.9465  0.3173
10953TIP3   OH254349   6.459   1.051   3.674 -0.1394  0.2081 -0.2051
10953TIP3    H154350   6.461   0.955   3.666 -0.1628  0.1464  0.4744
10953TIP3    H254351   6.431   1.082   3.588  3.1269 -0.2173 -1.5731
10954TIP3   OH254352   1.407   1.148   6.052  0.0506 -0.0468  0.2840
10954TIP3    H154353   1.330   1.093   6.068  0.3263 -0.3963  0.4196
10954TIP3    H254354   1.389   1.192   5.969 -0.8094  0.7573  0.8754
10955TIP3   OH254355   1.619   3.513  13.988  0.1619  0.2053 -0.3631
10955TIP3    H154356   1.670   3.460  14.048  0.3799  0.5096 -0.2805
10955TIP3    H254357   1.606   3.596  14.033 -0.2595  0.1922 -0.4535
10956TIP3   OH254358   1.778   1.612  12.173 -1.0283  0.0244 -0.1776
10956TIP3    H154359   1.826   1.554  12.115 -1.3950  0.2629 -0.7201
10956TIP3    H254360   1.701   1.563  12.199 -1.9224  0.6666 -1.5333
10957TIP3   OH254361   2.300   2.709  14.196  0.5283 -0.5969 -0.6279
10957TIP3    H154362   2.384   2.738  14.161  0.5442 -1.2388 -1.1365
10957TIP3    H254363   2.323   2.638  14.257  0.4018 -0.3503 -0.2926
10958TIP3   OH254364   1.371   5.731  11.014 -0.1198  0.0125  0.1101
10958TIP3    H154365   1.450   5.784  11.003 -0.7621  0.8601 -0.5997
10958TIP3    H254366   1.399   5.642  10.994  0.9007  0.1143  0.9665
10959TIP3   OH254367   4.941   1.757  11.370 -0.4946 -0.1263  0.0861
10959TIP3    H154368   5.011   1.788  11.313 -0.7437 -0.5284 -0.4589
10959TIP3    H254369   4.960   1.794  11.456 -1.7942  3.1269 -0.9014
10960TIP3   OH254370   3.312   0.045   3.382 -0.1120 -0.0567 -0.6414
10960TIP3    H154371   3.273   0.129   3.357 -0.5652 -0.8724 -2.9143
10960TIP3    H254372   3.245  -0.020   3.359  0.3859 -1.0895  0.7038
10961TIP3   OH254373   4.764   0.310  15.874  0.0809  0.3670 -0.4927
10961TIP3    H154374   4.814   0.382  15.913 -0.0680  0.9011 -1.2697
10961TIP3    H254375   4.824   0.269  15.813  0.0117  0.1281 -0.4028
10962TIP3   OH254376   5.269   1.235   2.046 -0.3503 -0.2314 -0.0573
10962TIP3    H154377   5.175   1.246   2.064 -0.3629 -1.7328  1.0006
10962TIP3    H254378   5.278   1.256   1.953 -1.8133 -0.4597 -0.2873
10963TIP3   OH254379   2.070   2.490  16.423  0.0811 -0.2047  0.0873
10963TIP3    H154380   2.121   2.571  16.430 -0.8574  0.3375  1.0101
10963TIP3    H254381   2.086   2.445  16.506  0.2384 -0.7492 -0.2367
10964TIP3   OH254382   6.174   3.034  16.990 -0.1017 -0.1593  0.6151
10964TIP3    H154383   6.213   2.978  17.057  0.7584 -1.9553 -1.2779
10964TIP3    H254384   6.248   3.062  16.936 -0.9239  0.1777 -0.3636
10965TIP3   OH254385   0.047   6.270  11.237  0.2456  0.8597  0.1514
10965TIP3    H154386   0.105   6.195  11.254 -1.6522 -0.2048  2.6088
10965TIP3    H254387   0.005   6.249  11.154  0.2094 -0.5122  0.4872
10966TIP3   OH254388   5.638   2.849   4.291 -0.0334 -0.7434  0.5143
10966TIP3    H154389   5.594   2.878   4.371  0.2177  0.2943  0.2871
10966TIP3    H254390   5.569   2.804   4.242 -1.1243  1.5611 -0.2162
10967TIP3   OH254391   4.831   4.656   4.275 -0.1338  0.9467  0.4845
10967TIP3    H154392   4.811   4.638   4.183  0.0212 -2.4013  0.9809
10967TIP3    H254393   4.926   4.664   4.277  0.0636 -1.1032  0.6009
10968TIP3   OH254394   0.771   3.340  14.598 -0.0406 -0.2690 -0.1393
10968TIP3    H154395   0.750   3.283  14.524  0.2353  0.5525 -0.8662
10968TIP3    H254396   0.812   3.281  14.662  0.5287 -0.8416 -1.0014
10969TIP3   OH254397   4.582   6.400  16.790  0.0773  0.2107  0.4311
10969TIP3    H154398   4.544   6.437  16.711  0.4806  0.0532  0.1603
10969TIP3    H254399   4.573   6.306  16.780 -1.0230  0.2257  1.1529
10970TIP3   OH254400   6.329   5.087  14.993  0.0474 -0.0081 -0.1935
10970TIP3    H154401   6.319   5.181  14.979  0.0661 -0.0488 -0.4750
10970TIP3    H254402   6.240   5.055  15.005 -0.0254 -0.0756 -0.8700
10971TIP3   OH254403   3.347   3.267  16.058 -0.0942 -0.3063  1.0301
10971TIP3    H154404   3.399   3.347  16.054 -0.4442 -0.1145 -0.7217
10971TIP3    H254405   3.269   3.291  16.108  0.3304  0.1138  1.4989
10972TIP3   OH254406   3.776   0.930   2.990 -0.2761 -0.3475  0.1141
10972TIP3    H154407   3.821   0.849   3.015 -0.1366 -0.1466  0.5306
10972TIP3    H254408   3.684   0.912   3.006 -0.4747 -1.1064 -1.6913
10973TIP3   OH254409   2.083   1.306   5.387 -0.4704 -0.0430 -0.5339
10973TIP3    H154410   2.002   1.256   5.384  0.7388 -2.3960  1.6333
10973TIP3    H254411   2.055   1.397   5.402 -2.7052 -0.7814  0.1945
10974TIP3   OH254412   1.585   4.959   3.875  0.3662 -0.1434  0.1430
10974TIP3    H154413   1.538   4.953   3.791 -0.4692  0.9524  0.5020
10974TIP3    H254414   1.557   5.043   3.911  0.2018 -0.8906  1.8255
10975TIP3   OH254415   2.395   2.438   5.339  0.2627 -0.0035 -0.4525
10975TIP3    H154416   2.426   2.518   5.381  1.6362 -1.2630  1.0495
10975TIP3    H254417   2.321   2.409   5.393 -0.0001  0.0355 -0.7842
10976TIP3   OH254418   2.054   1.136  11.450 -0.0161  0.4827  0.2109
10976TIP3    H154419   1.978   1.194  11.449 -1.3785 -1.1576  1.2196
10976TIP3    H254420   2.035   1.071  11.382  2.2331  1.9985 -2.0172
10977TIP3   OH254421   5.786   1.401  15.663  0.0224 -0.7381  0.0940
10977TIP3    H154422   5.713   1.352  15.626 -0.5224  0.3266 -0.2581
10977TIP3    H254423   5.786   1.484  15.616  0.1996  0.0808  1.4910
10978TIP3   OH254424   1.958   5.271   6.525  0.3858 -0.0915 -0.1545
10978TIP3    H154425   1.868   5.270   6.492  0.1583 -0.0958  0.4386
10978TIP3    H254426   1.973   5.182   6.557  0.2885  0.1250  0.5260
10979TIP3   OH254427   4.655   0.310   0.232  0.1236  0.1160 -0.8589
10979TIP3    H154428   4.689   0.307   0.143  2.1249 -0.5555 -0.1337
10979TIP3    H254429   4.731   0.333   0.286 -1.2719  1.6142  0.5859
10980TIP3   OH254430   5.445   6.414   3.598  0.4091  0.0418  0.3725
10980TIP3    H154431   5.421   6.494   3.646  1.5757  0.6667 -0.0640
10980TIP3    H254432   5.421   6.343   3.657 -3.1405  0.5239 -0.2569
10981TIP3   OH254433   6.831   1.870   3.606  0.5079  0.3143 -0.1697
10981TIP3    H154434   6.789   1.942   3.652  0.7873  1.1728 -1.2141
10981TIP3    H254435   6.759   1.816   3.574  0.2991  0.1001  0.6498
10982TIP3   OH254436   4.876   0.503   0.612  0.4862  0.2657  0.4379
10982TIP3    H154437   4.882   0.598   0.599  1.3796  0.4793  2.0371
10982TIP3    H254438   4.960   0.479   0.651  0.9974 -1.5219 -1.5546
10983TIP3   OH254439   1.340   2.146   2.329  0.0842  0.2303 -0.3876
10983TIP3    H154440   1.272   2.193   2.282 -1.4449 -1.2519  0.2480
10983TIP3    H254441   1.317   2.155   2.421  0.4111 -0.7789 -0.1912
10984TIP3   OH254442   6.426   5.251  12.012 -0.3911 -0.3459 -0.1585
10984TIP3    H154443   6.408   5.169  12.059  0.6268 -1.9124 -2.3271
10984TIP3    H254444   6.345   5.302  12.022 -0.6584 -1.0910  2.1650
10985TIP3   OH254445   0.223   3.359   3.820 -0.2818 -0.1708 -0.6408
10985TIP3    H154446   0.272   3.371   3.739  0.2380 -0.2312 -0.3366
10985TIP3    H254447   0.184   3.445   3.838 -2.4714 -0.7147 -2.2647
10986TIP3   OH254448   0.104   0.626  13.242  0.3084 -0.3160  0.3735
10986TIP3    H154449   0.194   0.624  13.209  0.4983 -0.8572  0.9031
10986TIP3    H254450   0.101   0.555  13.307 -0.3373  0.0869  0.7901
10987TIP3   OH254451   6.021   5.561   3.485  0.1194 -0.2581  0.4024
10987TIP3    H154452   6.100   5.556   3.431  1.1894 -1.6982  1.9816
10987TIP3    H254453   6.010   5.472   3.519 -1.2587  0.3011  1.5040
10988TIP3   OH254454   1.049   0.658  15.427 -0.3350 -0.4352 -0.4325
10988TIP3    H154455   1.128   0.686  15.472 -0.8710 -0.3353  0.4704
10988TIP3    H254456   1.080   0.620  15.345  0.6958 -1.1117  0.2585
10989TIP3   OH254457   4.748   4.175  15.735  0.2263  0.1358 -0.0282
10989TIP3    H154458   4.841   4.178  15.711  0.6498  1.4897  1.5432
10989TIP3    H254459   4.748   4.132  15.821 -0.4997  0.8156  0.3185
10990TIP3   OH254460   0.726   3.973   4.099 -0.1752  0.3182 -0.5524
10990TIP3    H154461   0.698   3.947   4.011 -0.2293  0.4372 -0.5706
10990TIP3    H254462   0.815   3.940   4.106 -0.4963 -0.5224 -0.3030
10991TIP3   OH254463   1.009   0.686   5.494 -0.0566  0.0699  0.5906
10991TIP3    H154464   1.026   0.726   5.580 -0.8004  0.4126  0.5787
10991TIP3    H254465   1.092   0.642   5.472  0.8907  1.8222  0.4744
10992TIP3   OH254466   3.553   0.901   0.674 -0.0282  0.0085 -0.3312
10992TIP3    H154467   3.624   0.841   0.696 -2.0590 -3.2597 -1.7854
10992TIP3    H254468   3.523   0.936   0.757  1.7734 -0.3432  0.5061
10993TIP3   OH254469   0.425   1.191  15.627 -0.3090  0.2558  0.1367
10993TIP3    H154470   0.478   1.144  15.563 -1.6531 -0.7207 -0.2885
10993TIP3    H254471   0.355   1.131  15.650 -1.6003  1.7356  0.2361
10994TIP3   OH254472   2.143   5.482  12.946 -0.5299 -0.3109  0.0001
10994TIP3    H154473   2.213   5.545  12.929  1.2472 -2.0082  0.7254
10994TIP3    H254474   2.187   5.406  12.983 -2.2129 -3.0398 -3.0625
10995TIP3   OH254475   0.648   6.205   3.148  0.3387 -0.0313 -0.4144
10995TIP3    H154476   0.590   6.228   3.076 -1.2072 -0.0945  0.7774
10995TIP3    H254477   0.591   6.193   3.223  1.7435 -1.4573  0.5049
10996TIP3   OH254478   4.040   2.073  13.659 -0.1151  0.2919  0.2143
10996TIP3    H154479   4.091   2.143  13.619  0.2326  0.5556  1.0862
10996TIP3    H254480   4.105   2.018  13.703 -0.5496  0.6264  1.3304
10997TIP3   OH254481   6.571   3.717   1.398 -0.4130 -0.1876 -0.0269
10997TIP3    H154482   6.478   3.730   1.413 -0.5901 -0.2811 -0.9312
10997TIP3    H254483   6.603   3.801   1.365 -0.2821 -0.2898 -0.1682
10998TIP3   OH254484   3.602   5.138   4.462 -0.0689  0.3914 -0.5226
10998TIP3    H154485   3.585   5.228   4.489 -1.7135  1.1558 -3.5904
10998TIP3    H254486   3.542   5.084   4.513 -0.9326  1.3521 -0.5154
10999TIP3   OH254487   5.840   1.787  13.523 -0.2244  0.2936  0.3570
10999TIP3    H154488   5.808   1.696  13.522 -0.4454  0.3307 -1.8264
10999TIP3    H254489   5.924   1.782  13.569 -0.1427 -1.0631  0.1099
11000TIP3   OH254490   6.632   3.692  14.199  0.0458  0.4676  0.2327
11000TIP3    H154491   6.720   3.724  14.178 -0.3615  2.2657  1.0153
11000TIP3    H254492   6.621   3.614  14.145  2.2334 -0.0081  0.3518
11001TIP3   OH254493   5.757   4.189  15.548  0.0334 -0.7366 -0.0941
11001TIP3    H154494   5.671   4.212  15.583 -0.4564 -0.9303 -1.1587
11001TIP3    H254495   5.800   4.144  15.621 -0.4146  0.1445  0.7475
11002TIP3   OH254496   6.061   0.812  13.385  0.1573 -0.6742  0.4075
11002TIP3    H154497   6.002   0.831  13.313 -1.3529 -0.1674  1.7311
11002TIP3    H254498   6.116   0.891  13.393  0.0387 -0.5600  0.1013
11003TIP3   OH254499   1.061   5.702  13.352 -0.6364  0.2892 -0.6534
11003TIP3    H154500   1.088   5.694  13.260 -2.2477  0.2349 -1.1538
11003TIP3    H254501   1.049   5.796  13.365  0.5947  0.3934 -0.1739
11004TIP3   OH254502   2.671   6.465   5.125 -0.5046  0.4001  0.3519
11004TIP3    H154503   2.742   6.411   5.160  0.0260 -0.4261 -1.8600
11004TIP3    H254504   2.713   6.522   5.061 -1.6977  0.4725 -0.4011
11005TIP3   OH254505   0.014   5.290  13.629 -0.2111 -0.0308 -0.2382
11005TIP3    H154506   0.053   5.331  13.706 -0.8308 -0.2477  0.1982
11005TIP3    H254507   0.074   5.311  13.557 -0.6564  1.9006 -0.1013
11006TIP3   OH254508   1.333   3.238   4.126  0.0085  0.0775 -0.1233
11006TIP3    H154509   1.264   3.304   4.118 -2.3750 -2.3747 -1.2930
11006TIP3    H254510   1.326   3.205   4.215  2.2197  2.2861  0.9845
11007TIP3   OH254511   1.566   3.030  12.251  0.2638  0.3780  0.3081
11007TIP3    H154512   1.648   2.985  12.232 -0.1659 -2.0809  3.3636
11007TIP3    H254513   1.592   3.110  12.296  1.0278  0.3944 -0.1571
11008TIP3   OH254514   5.116   4.743  16.517  0.0973 -0.5279 -1.1539
11008TIP3    H154515   5.185   4.809  16.509 -0.7615  0.2959 -2.1636
11008TIP3    H254516   5.051   4.769  16.452 -1.6213 -0.7043  0.4077
11009TIP3   OH254517   6.196   2.870  15.497  0.1568  0.1682  0.1665
11009TIP3    H154518   6.207   2.801  15.563 -1.2348 -0.5981 -0.3550
11009TIP3    H254519   6.150   2.827  15.425  0.2343  1.3873 -0.6369
11010TIP3   OH254520   1.623   0.434   4.648 -0.0764  0.4414 -0.3599
11010TIP3    H154521   1.627   0.480   4.732  1.4132 -0.9423  0.3804
11010TIP3    H254522   1.696   0.373   4.650 -0.9868 -0.8052 -1.9938
11011TIP3   OH254523   2.442   2.867   2.900 -0.0259  0.1575  0.1556
11011TIP3    H154524   2.435   2.891   2.993  0.2958  1.9043 -0.2275
11011TIP3    H254525   2.533   2.841   2.889 -0.0286  0.0841  0.3027
11012TIP3   OH254526   5.006   0.713  13.894  0.3976 -0.1766  0.5318
11012TIP3    H154527   5.051   0.631  13.915  0.9492 -0.4922 -1.5876
11012TIP3    H254528   5.077   0.776  13.880  0.1516 -0.1992 -0.9957
11013TIP3   OH254529   1.191   2.847   5.365 -0.6953 -0.2092 -0.0094
11013TIP3    H154530   1.183   2.752   5.359 -1.3786 -0.2912  1.6443
11013TIP3    H254531   1.239   2.862   5.446 -1.5033  0.8805  0.2917
11014TIP3   OH254532   4.050   2.674   2.862  0.2216 -0.5660  0.2424
11014TIP3    H154533   4.026   2.623   2.939  0.0522 -1.5433 -0.4309
11014TIP3    H254534   4.090   2.753   2.896  2.5690 -2.1226  1.3161
11015TIP3   OH254535   5.537   6.604   0.215  0.1206  0.4704 -0.5812
11015TIP3    H154536   5.496   6.680   0.173 -1.4102  1.0103  1.7598
11015TIP3    H254537   5.575   6.639   0.295  2.4852 -0.6475 -1.1269
11016TIP3   OH254538   3.292   1.338  16.922 -0.2353 -0.6395 -0.2413
11016TIP3    H154539   3.329   1.373  17.003 -0.9531  0.4675 -0.3656
11016TIP3    H254540   3.197   1.342  16.935 -0.4155  1.0024 -1.6954
11017TIP3   OH254541   1.305   2.469  11.889 -0.4071 -0.6626 -0.0830
11017TIP3    H154542   1.395   2.450  11.862 -0.2132 -0.6850  0.5561
11017TIP3    H254543   1.314   2.512  11.974 -0.9269  0.6513 -0.6569
11018TIP3   OH254544   1.477   4.359   2.994  0.4532  0.3830 -0.3909
11018TIP3    H154545   1.521   4.364   2.910  1.1980  3.1450  0.0571
11018TIP3    H254546   1.384   4.356   2.973  0.6751 -1.5498 -1.2901
11019TIP3   OH254547   3.670   6.144  11.023  0.3367  0.0334 -0.1752
11019TIP3    H154548   3.604   6.107  10.965 -0.8792 -0.5815  1.5020
11019TIP3    H254549   3.628   6.222  11.060  1.1025  0.4523 -0.1880
11020TIP3   OH254550   6.724   4.763   3.406  0.0467  0.2348  0.5239
11020TIP3    H154551   6.717   4.736   3.314 -1.1464 -0.0610  0.6911
11020TIP3    H254552   6.777   4.843   3.403 -1.6962  1.4125 -0.6667
11021TIP3   OH254553   3.975   3.327   3.217 -0.2741 -0.1346  0.3215
11021TIP3    H154554   4.053   3.297   3.172 -1.0145 -1.5814 -0.0429
11021TIP3    H254555   3.959   3.261   3.285 -0.9319  0.3738  0.6786
11022TIP3   OH254556   2.797   3.814  16.363  0.3258  0.1144 -0.2503
11022TIP3    H154557   2.851   3.739  16.341 -0.5761 -0.0602 -1.9903
11022TIP3    H254558   2.707   3.787  16.343  0.0353  1.8390 -1.5603
11023TIP3   OH254559   4.707   2.032  14.827 -0.5632  0.0127  0.2810
11023TIP3    H154560   4.772   2.038  14.897  1.1946  3.2837 -1.3727
11023TIP3    H254561   4.627   2.065  14.866  0.4699  2.0898  0.8235
11024TIP3   OH254562   4.409   5.868  15.824  0.0167 -0.1808  0.2595
11024TIP3    H154563   4.359   5.929  15.878 -2.0350 -3.6429  2.6294
11024TIP3    H254564   4.369   5.875  15.737 -2.8460 -0.7911  1.4081
11025TIP3   OH254565   2.905   1.379  16.804 -0.7113 -0.3193 -0.4567
11025TIP3    H154566   2.813   1.393  16.827 -0.3428 -0.7972  1.4113
11025TIP3    H254567   2.938   1.467  16.786 -1.2296 -0.0036  0.0783
11026TIP3   OH254568   2.455   5.257   5.893  0.1146 -0.4612 -0.3051
11026TIP3    H154569   2.393   5.199   5.937 -0.9175  1.3092  0.6718
11026TIP3    H254570   2.401   5.314   5.839  0.9712  0.4645 -0.2171
11027TIP3   OH254571   6.122   2.868   4.314  0.0851 -0.0707 -0.4206
11027TIP3    H154572   6.040   2.908   4.344 -0.6041 -0.3235 -1.8645
11027TIP3    H254573   6.190   2.910   4.366 -0.8850  0.7879  0.1917
11028TIP3   OH254574   3.215   2.773  12.982  0.0103 -0.0938  0.3365
11028TIP3    H154575   3.196   2.839  12.917  0.9375  0.1279  0.2708
11028TIP3    H254576   3.306   2.790  13.007  0.0182 -0.8673  0.8679
11029TIP3   OH254577   1.274   5.122  13.795 -0.2771 -0.1590  0.4676
11029TIP3    H154578   1.208   5.143  13.729 -0.7584  1.6776  1.4738
11029TIP3    H254579   1.356   5.153  13.756 -0.4052 -0.0265  0.2998
11030TIP3   OH254580   1.076   5.567  16.719  0.7163 -0.5709 -0.0131
11030TIP3    H154581   1.023   5.500  16.677  1.2671 -0.8800 -0.2292
11030TIP3    H254582   1.111   5.619  16.646  1.3127 -0.8305  0.0843
11031TIP3   OH254583   1.912   0.583  15.524  0.1675  0.3754  0.0570
11031TIP3    H154584   1.862   0.656  15.561  0.4632 -0.0420  1.3472
11031TIP3    H254585   1.856   0.547  15.456 -0.9228  0.4634  0.8848
11032TIP3   OH254586   6.177   4.512   1.184 -0.2058 -0.2007 -0.0352
11032TIP3    H154587   6.191   4.537   1.092  1.4284 -1.5567 -0.2187
11032TIP3    H254588   6.108   4.446   1.180  0.5850 -1.0220 -0.4379
11033TIP3   OH254589   5.420   4.309   2.479 -0.6531  0.3700 -0.1947
11033TIP3    H154590   5.387   4.232   2.433 -0.6323  0.5405 -0.4969
11033TIP3    H254591   5.342   4.355   2.509 -0.6669  0.2674 -0.0736
11034TIP3   OH254592   1.937   1.083   2.460  0.1508 -0.4732 -0.4176
11034TIP3    H154593   1.873   1.072   2.390  1.2837 -0.9424 -1.4169
11034TIP3    H254594   1.940   1.177   2.475 -0.2879 -0.3903 -0.8193
11035TIP3   OH254595   4.070   4.902  11.581 -0.0275 -0.3912  0.2477
11035TIP3    H154596   4.104   4.950  11.506 -0.9843  0.9921  0.6611
11035TIP3    H254597   4.093   4.956  11.657  0.5160 -1.5367  0.9340
11036TIP3   OH254598   3.289   3.205   2.206 -0.6800 -0.2982  0.1201
11036TIP3    H154599   3.335   3.264   2.266 -0.2614 -0.5015  0.0071
11036TIP3    H254600   3.357   3.144   2.176 -1.0123 -0.5628 -0.1037
11037TIP3   OH254601   0.317   3.944  16.602  0.2194 -0.2802  0.6965
11037TIP3    H154602   0.241   3.911  16.552  0.2898  0.8030 -0.1629
11037TIP3    H254603   0.379   3.872  16.600 -0.9854 -1.4107  1.9053
11038TIP3   OH254604   0.449   6.274   5.661  0.4434 -0.4692 -0.5127
11038TIP3    H154605   0.428   6.304   5.749 -3.2383  0.0538 -1.4132
11038TIP3    H254606   0.502   6.345   5.623 -1.9833  1.6487 -0.2072
11039TIP3   OH254607   3.957   0.367   4.909 -0.2394  0.1598  0.0619
11039TIP3    H154608   4.007   0.398   4.834  0.0087  0.2523  0.2636
11039TIP3    H254609   3.950   0.273   4.896 -0.0231  0.1487  0.0270
11040TIP3   OH254610   1.838   2.189  11.029  0.2125 -0.1947 -0.0314
11040TIP3    H154611   1.850   2.108  10.980  0.1878 -0.1612 -0.0912
11040TIP3    H254612   1.751   2.219  11.006  1.5634  1.8691 -2.9890
11041TIP3   OH254613   2.018   2.180   5.918 -0.3001 -0.7845  0.2478
11041TIP3    H154614   1.958   2.230   5.973 -1.3205 -0.4864 -1.0678
11041TIP3    H254615   2.105   2.212   5.942 -0.7113 -0.6054  1.5958
11042TIP3   OH254616   0.552   4.247   4.198 -0.0547 -0.2154  0.3229
11042TIP3    H154617   0.598   4.186   4.255 -0.4749  1.8932  3.1065
11042TIP3    H254618   0.526   4.194   4.122  3.3539 -2.3942  0.4760
11043TIP3   OH254619   6.813   5.092  14.769 -0.5730 -0.1088 -0.2653
11043TIP3    H154620   6.887   5.064  14.823 -2.3386 -3.4840  0.6952
11043TIP3    H254621   6.840   5.071  14.680  0.6222  1.2644 -0.2565
11044TIP3   OH254622   4.959   3.638  11.599  0.1420 -0.5740 -0.3496
11044TIP3    H154623   4.929   3.678  11.680  0.3628  1.7869 -1.3752
11044TIP3    H254624   4.973   3.546  11.622 -0.0129 -0.0264  2.2051
11045TIP3   OH254625   6.132   3.439  12.064  0.8094 -0.2426 -0.0155
11045TIP3    H154626   6.109   3.472  11.976 -0.9963 -1.2026  0.0612
11045TIP3    H254627   6.210   3.490  12.088  0.8092  0.6954 -1.7891
11046TIP3   OH254628   6.692   2.133   0.820 -0.0622  0.1305  0.2649
11046TIP3    H154629   6.771   2.121   0.768 -0.8805 -1.0682 -0.7464
11046TIP3    H254630   6.631   2.179   0.762 -0.7034 -0.5057  0.4097
11047TIP3   OH254631   4.927   1.220  14.703  0.4629  0.5317  0.5321
11047TIP3    H154632   4.834   1.224  14.722  0.8002  1.5796  2.1498
11047TIP3    H254633   4.950   1.128  14.718 -0.1750  0.4079  0.7955
11048TIP3   OH254634   2.452   3.225  11.343 -0.0647  0.2893 -0.1852
11048TIP3    H154635   2.380   3.267  11.298  0.0964 -0.6261 -1.3342
11048TIP3    H254636   2.413   3.188  11.422 -0.5196  1.1627  0.0061
11049TIP3   OH254637   4.732   1.153  12.860  0.2252 -0.1993 -0.0388
11049TIP3    H154638   4.791   1.078  12.853 -0.0858 -0.4899  0.3927
11049TIP3    H254639   4.772   1.220  12.804 -0.9691 -1.5925 -2.7448
11050TIP3   OH254640   6.830   6.356   0.114 -0.0091 -0.7982 -0.3770
11050TIP3    H154641   6.842   6.283   0.053 -0.4754 -3.4032  2.3861
11050TIP3    H254642   6.741   6.345   0.147  0.5218 -0.0614  1.4022
11051TIP3   OH254643   5.667   2.887  11.808 -0.1267 -0.0271  0.1994
11051TIP3    H154644   5.741   2.826  11.796 -0.2833  0.0688 -1.4135
11051TIP3    H254645   5.704   2.959  11.858  1.7057  1.3572 -2.8899
11052TIP3   OH254646   5.045   5.991   1.615  0.6264  0.0251  0.6333
11052TIP3    H154647   5.104   5.946   1.675  0.7593 -1.1225 -0.3245
11052TIP3    H254648   5.103   6.037   1.554  0.5386 -0.8941 -0.1527
11053TIP3   OH254649   0.290   4.092  11.317 -0.2053 -0.8935  0.3062
11053TIP3    H154650   0.204   4.108  11.354 -0.2067  0.5329 -0.2469
11053TIP3    H254651   0.275   4.087  11.222  0.4432  0.7224  0.0689
11054TIP3   OH254652   2.777   3.270   1.431 -0.1437  0.4506  0.0665
11054TIP3    H154653   2.772   3.312   1.345 -2.1348 -1.1498 -0.6678
11054TIP3    H254654   2.726   3.326   1.488 -0.4227  0.5302 -0.2556
11055TIP3   OH254655   1.520   2.064   6.320  0.7056 -0.0026  0.2841
11055TIP3    H154656   1.556   2.149   6.347 -2.0166  0.6268  2.3393
11055TIP3    H254657   1.428   2.082   6.301 -0.2558 -2.6706  1.9106
11056TIP3   OH254658   5.689   0.681   0.177  0.2328 -0.2780 -0.1362
11056TIP3    H154659   5.782   0.669   0.161  0.1159 -3.6853  0.9323
11056TIP3    H254660   5.683   0.703   0.270 -0.0699 -0.5360 -0.0940
11057TIP3   OH254661   0.962   2.120  10.946  0.0422  0.0130 -0.2825
11057TIP3    H154662   1.043   2.072  10.931 -0.2661 -0.1803 -1.3660
11057TIP3    H254663   0.908   2.101  10.870  0.0635  2.4419 -0.9775
11058TIP3   OH254664   2.645   6.663  12.978  0.9247 -0.3125 -0.6263
11058TIP3    H154665   2.664   6.700  13.064  0.0565  0.5736 -0.7999
11058TIP3    H254666   2.623   6.571  12.996 -0.2855  0.1164  0.2530
11059TIP3   OH254667   1.081   0.127   0.533  0.3426  0.5601  0.4792
11059TIP3    H154668   1.140   0.178   0.479  0.7322 -1.2179 -0.8561
11059TIP3    H254669   1.056   0.052   0.478 -0.4028 -0.5457  2.2295
11060TIP3   OH254670   5.768   5.791   0.804 -0.3409  0.2621  0.2778
11060TIP3    H154671   5.746   5.784   0.712  0.9736 -0.7957  0.0132
11060TIP3    H254672   5.701   5.741   0.850 -0.9930  0.7869 -0.0818
11061TIP3   OH254673   2.401   2.297   5.077 -0.4853  0.0213 -0.2160
11061TIP3    H154674   2.365   2.346   5.003 -0.6220  1.7351  0.9120
11061TIP3    H254675   2.377   2.349   5.153  1.2124 -0.7252  0.8844
11062TIP3   OH254676   6.035   4.901   4.551 -0.2910 -0.0836  0.1562
11062TIP3    H154677   6.021   4.829   4.490 -1.3351  1.1911 -1.2110
11062TIP3    H254678   6.129   4.920   4.546 -0.3342 -0.1111 -0.9597
11063TIP3   OH254679   3.548   1.299  13.064  0.1994 -0.4094  0.2798
11063TIP3    H154680   3.507   1.288  13.149 -0.5851  0.3941  0.0183
11063TIP3    H254681   3.639   1.273  13.077 -0.3057 -1.9556  0.9369
11064TIP3   OH254682   0.740   0.398  12.448 -0.3444  0.5918  0.3268
11064TIP3    H154683   0.723   0.489  12.472 -1.6448  0.2401  0.8227
11064TIP3    H254684   0.705   0.347  12.520 -2.7714 -0.4412 -1.4405
11065TIP3   OH254685   5.781   3.340  15.312  0.0049  0.5181  0.2576
11065TIP3    H154686   5.849   3.393  15.269  1.5105 -0.5496  1.2044
11065TIP3    H254687   5.742   3.400  15.375  0.6934  0.9156  0.3270
11066TIP3   OH254688   3.730   2.242  15.734  0.2555  0.4617 -0.0356
11066TIP3    H154689   3.687   2.190  15.801 -0.6097 -0.6215 -1.3701
11066TIP3    H254690   3.662   2.300  15.701  0.1590 -0.2736 -1.1912
11067TIP3   OH254691   1.075   1.470  11.768  0.0428  0.6291 -0.0708
11067TIP3    H154692   1.142   1.512  11.715 -0.2543  0.6743 -0.4184
11067TIP3    H254693   1.121   1.403  11.818  0.7426  2.1744  1.4308
11068TIP3   OH254694   5.212   4.731  14.228  0.5378 -0.6601 -0.3831
11068TIP3    H154695   5.304   4.712  14.246  0.6184 -1.1048 -1.2243
11068TIP3    H254696   5.203   4.722  14.133 -0.3763 -0.6281 -0.3153
11069TIP3   OH254697   1.022   4.158  11.466  0.2854 -0.1662  0.2982
11069TIP3    H154698   1.013   4.066  11.493  1.7970 -0.3406  0.3138
11069TIP3    H254699   0.999   4.208  11.544  0.2556 -0.5500  0.5399
11070TIP3   OH254700   1.068   1.431  14.680  0.8057 -0.7122  0.4056
11070TIP3    H154701   1.031   1.518  14.699  0.8945 -0.8971  1.4693
11070TIP3    H254702   1.162   1.445  14.677  0.8018 -0.7152  0.2316
11071TIP3   OH254703   2.693   2.974   4.055 -0.0317 -0.0996 -0.5724
11071TIP3    H154704   2.767   2.931   4.097 -0.6634 -0.7946 -0.1531
11071TIP3    H254705   2.632   2.994   4.126 -1.2053 -1.4729 -1.1359
11072TIP3   OH254706   0.180   2.487   4.281  0.2114 -0.2702  0.2476
11072TIP3    H154707   0.091   2.521   4.269  0.2694 -0.4806 -0.8526
11072TIP3    H254708   0.175   2.434   4.361 -0.2578  1.0055  1.0993
11073TIP3   OH254709   2.450   2.779  11.633  0.0602  0.2148 -0.6088
11073TIP3    H154710   2.505   2.802  11.708 -1.4605  0.5653  0.4549
11073TIP3    H254711   2.487   2.698  11.600  1.1116  0.3598  0.1619
11074TIP3   OH254712   5.839   4.399  16.480 -0.2687 -0.3503  0.6665
11074TIP3    H154713   5.802   4.316  16.508  1.2116 -1.1904  0.2283
11074TIP3    H254714   5.902   4.422  16.548  1.1501 -0.8854 -0.4123
11075TIP3   OH254715   2.749   2.076   3.724  0.6683 -0.5225  0.6375
11075TIP3    H154716   2.811   2.141   3.692  1.3414 -0.6296  1.6700
11075TIP3    H254717   2.804   2.010   3.766 -0.0674 -1.2888  0.4173
11076TIP3   OH254718   2.716   4.953   5.090 -0.2477  0.1451  0.2193
11076TIP3    H154719   2.740   4.886   5.026 -1.5994  0.7486 -0.9697
11076TIP3    H254720   2.768   5.030   5.064 -0.1774  0.1436  0.3571
11077TIP3   OH254721   5.295   4.169  15.722  0.1459  0.2603 -0.4936
11077TIP3    H154722   5.389   4.159  15.732  0.1647  0.3033 -0.6194
11077TIP3    H254723   5.274   4.254  15.760  0.1752  0.3009 -0.5668
11078TIP3   OH254724   2.755   0.540   4.187 -0.4839  0.1623 -0.1040
11078TIP3    H154725   2.671   0.510   4.152 -0.7539  1.4792 -0.6428
11078TIP3    H254726   2.753   0.635   4.176  1.2401  0.1846 -0.4769
11079TIP3   OH254727   6.382   0.966  16.761 -0.0038  0.1270 -0.6785
11079TIP3    H154728   6.433   1.022  16.820  0.3177  0.8285 -1.6066
11079TIP3    H254729   6.435   0.887  16.752 -0.1424 -0.0600  0.1142
11080TIP3   OH254730   5.257   1.921  10.712 -0.1738 -0.6610  0.7057
11080TIP3    H154731   5.186   1.893  10.654 -0.3278  2.5525 -0.9020
11080TIP3    H254732   5.239   2.014  10.729  3.8492  0.5034 -0.2696
11081TIP3   OH254733   3.090   2.352   0.099 -0.0500  0.3413 -0.2688
11081TIP3    H154734   3.012   2.314   0.061 -0.9702  0.8689  1.0223
11081TIP3    H254735   3.152   2.280   0.106 -0.3251 -0.0342 -1.4904
11082TIP3   OH254736   3.570   1.367  14.685 -0.3560 -0.1412 -0.3846
11082TIP3    H154737   3.594   1.447  14.639  5.3729 -0.6229  1.0094
11082TIP3    H254738   3.516   1.396  14.758  0.8704  2.3962 -0.3970
11083TIP3   OH254739   2.979   6.126   0.969 -0.0173 -0.2292 -0.8866
11083TIP3    H154740   3.072   6.102   0.977 -0.2869 -1.1512 -0.3730
11083TIP3    H254741   2.933   6.043   0.965 -1.2208 -0.0337  3.4445
11084TIP3   OH254742   6.515   1.856   3.193  0.5021 -0.4059  0.1998
11084TIP3    H154743   6.433   1.906   3.201  0.6188 -0.0668 -0.6045
11084TIP3    H254744   6.495   1.771   3.232  0.8501  0.8226  3.3530
11085TIP3   OH254745   0.826   4.361   0.223  0.7049 -0.4169  0.1226
11085TIP3    H154746   0.912   4.324   0.241  0.8024 -0.2283  0.0538
11085TIP3    H254747   0.844   4.451   0.195  0.4433 -0.1468  0.7953
11086TIP3   OH254748   3.321   4.842   2.139 -0.5403 -0.8126  0.2051
11086TIP3    H154749   3.383   4.858   2.068 -2.2832 -0.3652 -1.2719
11086TIP3    H254750   3.370   4.863   2.219  0.9924  0.1541 -0.9497
11087TIP3   OH254751   2.048   6.066   0.075 -0.7578 -0.0654 -0.2996
11087TIP3    H154752   2.096   6.060   0.157 -2.9538 -2.7487  0.9331
11087TIP3    H254753   2.109   6.035   0.009  0.8079  1.4664  0.3650
11088TIP3   OH254754   3.997   4.065  16.010  0.4075  0.2837  0.3995
11088TIP3    H154755   3.919   4.016  16.037  1.1392 -0.6250  0.9101
11088TIP3    H254756   3.981   4.084  15.917 -0.6108  0.4902  0.6000
11089TIP3   OH254757   4.478   0.773   1.112  0.1195 -0.3773  0.3892
11089TIP3    H154758   4.541   0.745   1.045 -0.4832 -1.0468  0.0771
11089TIP3    H254759   4.489   0.868   1.118 -0.0134 -0.2615 -0.8865
11090TIP3   OH254760   6.240   0.435   3.481 -0.3356 -0.3097  0.4643
11090TIP3    H154761   6.279   0.359   3.437 -0.9168 -0.2335 -0.2138
11090TIP3    H254762   6.242   0.505   3.416 -1.2091 -0.1938  0.5396
11091TIP3   OH254763   2.101   3.619   5.741  0.5007  0.0253  0.3713
11091TIP3    H154764   2.115   3.524   5.730  0.8735  0.0481  0.6220
11091TIP3    H254765   2.188   3.657   5.728  0.2612  0.3843 -0.2400
11092TIP3   OH254766   3.237   3.009  11.418 -0.1744 -0.8189 -0.5849
11092TIP3    H154767   3.194   3.085  11.379 -2.8177 -1.7702  0.2163
11092TIP3    H254768   3.256   2.952  11.344  0.6326  0.0356 -1.0566
11093TIP3   OH254769   0.374   2.393   3.457  0.6379  0.0100  0.8629
11093TIP3    H154770   0.412   2.475   3.486 -1.2849  1.4798 -0.5253
11093TIP3    H254771   0.310   2.418   3.390  0.3003 -2.6561  0.0667
11094TIP3   OH254772   0.955   1.976   5.881 -0.5034 -0.3987 -0.1205
11094TIP3    H154773   0.863   1.972   5.908 -0.4557  1.8504  0.5406
11094TIP3    H254774   0.953   1.952   5.788 -1.6945 -0.7815 -0.0167
11095TIP3   OH254775   4.825   5.009  15.372  0.2158  0.3199 -0.3101
11095TIP3    H154776   4.871   5.092  15.387  1.6232 -0.4385 -0.2267
11095TIP3    H254777   4.803   4.978  15.459 -1.4233  1.1763 -0.3905
11096TIP3   OH254778   4.182   3.393   2.437 -0.2259  0.3128  0.7667
11096TIP3    H154779   4.164   3.321   2.376 -0.3884 -0.4257  1.6650
11096TIP3    H254780   4.096   3.433   2.453 -0.1248  0.7675  0.2081
11097TIP3   OH254781   1.141   2.559   6.730 -0.1606  0.4613  0.0176
11097TIP3    H154782   1.224   2.511   6.725  0.3566  1.3857 -0.8965
11097TIP3    H254783   1.130   2.578   6.823 -0.4387 -1.4752  0.4045
11098TIP3   OH254784   5.625   2.706  14.883 -0.2846  0.1683 -0.1715
11098TIP3    H154785   5.640   2.705  14.788  0.3827 -0.9843 -0.0750
11098TIP3    H254786   5.709   2.728  14.921 -0.1302 -0.9663  0.1927
11099TIP3   OH254787   3.460   6.747  14.142 -0.0953 -0.9963 -0.3159
11099TIP3    H154788   3.368   6.764  14.124  0.1724 -0.5789 -1.3549
11099TIP3    H254789   3.495   6.831  14.171 -0.0426 -1.1559  0.0864
11100TIP3   OH254790   3.966   2.809  13.744  0.4703 -0.0967 -0.5108
11100TIP3    H154791   3.931   2.721  13.735 -0.0097  0.0885 -0.5372
11100TIP3    H254792   3.993   2.834  13.655  2.2375 -0.8577 -0.2170
11101TIP3   OH254793   4.074   6.223   5.462  0.8675  0.3216  0.1430
11101TIP3    H154794   4.015   6.232   5.387  1.3246  0.0664 -0.2529
11101TIP3    H254795   4.017   6.232   5.538  0.6682  2.5623 -0.2022
11102TIP3   OH254796   3.636   3.148   1.930 -0.4717  0.1407 -0.0740
11102TIP3    H154797   3.721   3.174   1.895 -0.5811  1.2465  0.4431
11102TIP3    H254798   3.579   3.223   1.915 -1.3523 -0.5551 -0.3446
11103TIP3   OH254799   2.505   1.330  15.805 -0.5199  0.0636  0.2162
11103TIP3    H154800   2.472   1.251  15.848 -2.6385  0.6122 -0.2802
11103TIP3    H254801   2.489   1.400  15.868 -0.5694  0.3908 -0.1525
11104TIP3   OH254802   3.121   1.597  12.702 -0.0967  0.5241  0.3868
11104TIP3    H154803   3.159   1.550  12.777  1.2311  1.6108  0.4416
11104TIP3    H254804   3.027   1.598  12.719  0.1352  0.3185  1.7974
11105TIP3   OH254805   4.985   4.582  12.670  0.1963  0.1365 -0.2731
11105TIP3    H154806   5.071   4.575  12.628  0.5802  0.6847  0.3837
11105TIP3    H254807   4.922   4.575  12.599  0.7413 -1.4869 -0.6204
11106TIP3   OH254808   4.801   5.365   0.592  0.3063 -0.1350 -0.2997
11106TIP3    H154809   4.720   5.319   0.614 -0.3479  1.1522  0.0682
11106TIP3    H254810   4.849   5.371   0.675  0.7868 -0.8683 -0.5106
11107TIP3   OH254811   0.869   6.602   4.391  0.1006 -0.3474 -0.7850
11107TIP3    H154812   0.844   6.661   4.462 -0.2602  0.6204 -1.6971
11107TIP3    H254813   0.958   6.630   4.367  0.2741 -0.7603 -0.6393
11108TIP3   OH254814   2.749   3.332  11.039 -0.0626  0.1668  0.0259
11108TIP3    H154815   2.705   3.416  11.027  0.3924  0.4711  0.4758
11108TIP3    H254816   2.683   3.267  11.016 -1.5367  0.5295  2.8038
11109TIP3   OH254817   1.821   3.637   1.825  0.1616 -0.5741  0.1414
11109TIP3    H154818   1.869   3.620   1.745 -0.0260 -0.1773 -0.0538
11109TIP3    H254819   1.741   3.681   1.797  1.2723  1.9694  0.7590
11110TIP3   OH254820   0.634   5.637   6.404 -0.2373  0.1919 -0.0659
11110TIP3    H154821   0.665   5.571   6.342  0.0330  0.4321 -0.1879
11110TIP3    H254822   0.672   5.610   6.488 -1.7372 -0.9210  0.2808
11111TIP3   OH254823   0.348   4.773  12.495 -0.4164  0.5146 -0.0766
11111TIP3    H154824   0.416   4.777  12.562 -0.9574 -1.6340  0.6633
11111TIP3    H254825   0.268   4.800  12.540 -0.6699 -0.3119 -0.0288
11112TIP3   OH254826   5.880   3.922   3.178  0.0749 -0.5654 -0.1025
11112TIP3    H154827   5.802   3.977   3.190 -0.0308 -0.3928 -1.5095
11112TIP3    H254828   5.887   3.910   3.084  0.6948 -2.1274  0.1092
11113TIP3   OH254829   5.453   4.029  13.069 -0.1628 -0.1558 -0.2836
11113TIP3    H154830   5.446   4.110  13.020 -0.7868 -0.9412 -1.5518
11113TIP3    H254831   5.511   3.974  13.017  0.1548 -0.5803  0.4962
11114TIP3   OH254832   3.662   5.787  16.692 -0.3605 -0.0149  0.0372
11114TIP3    H154833   3.703   5.836  16.621  0.0518 -0.4820 -0.0572
11114TIP3    H254834   3.604   5.724  16.648  1.8090 -2.0848 -0.0767
11115TIP3   OH254835   4.937   3.118   2.805 -0.2346  0.6336 -0.1284
11115TIP3    H154836   4.896   3.141   2.889 -1.9802 -1.5846 -0.2760
11115TIP3    H254837   4.889   3.170   2.740  0.1110  1.2374  0.0949
11116TIP3   OH254838   0.074   6.476   4.843 -0.4351  0.6973 -0.0848
11116TIP3    H154839   0.023   6.503   4.766 -1.8867  0.0310  0.5959
11116TIP3    H254840   0.010   6.432   4.899  0.9634 -0.3802  0.7171
11117TIP3   OH254841   5.728   2.786  14.046 -0.2922  0.0715 -0.2346
11117TIP3    H154842   5.651   2.789  14.104 -0.3731 -2.1206 -0.1351
11117TIP3    H254843   5.700   2.732  13.972  0.7619  0.2897 -0.8066
11118TIP3   OH254844   4.524   6.217   1.095 -0.6340  0.2968  0.7194
11118TIP3    H154845   4.434   6.189   1.116 -0.7194 -0.8006 -0.9556
11118TIP3    H254846   4.515   6.266   1.014  0.4045 -0.8150 -0.1035
11119TIP3   OH254847   3.563   3.228   1.240 -0.4083 -0.1075  0.2565
11119TIP3    H154848   3.627   3.298   1.250  0.7605 -1.1977  0.7181
11119TIP3    H254849   3.606   3.163   1.185 -0.0973 -1.9849  2.5655
11120TIP3   OH254850   6.166   1.890  14.853 -0.6348  0.0804  0.7275
11120TIP3    H154851   6.262   1.895  14.859 -0.5563  2.0757 -0.9670
11120TIP3    H254852   6.148   1.893  14.759 -2.3766 -0.6278  1.0011
11121TIP3   OH254853   4.546   2.358  16.710 -0.2924  0.2120  0.4455
11121TIP3    H154854   4.479   2.427  16.711 -0.0350  0.4734 -0.0065
11121TIP3    H254855   4.583   2.360  16.798 -0.4556  0.4858  0.5112
11122TIP3   OH254856   2.815   3.983   0.574  0.2239  0.5742 -0.4338
11122TIP3    H154857   2.754   4.055   0.590  0.1303  0.9151 -2.1518
11122TIP3    H254858   2.781   3.910   0.626  0.4668  1.8004  1.5659
11123TIP3   OH254859   3.242   3.997   0.766 -0.0620  0.0430  0.8371
11123TIP3    H154860   3.179   4.026   0.700 -0.2096 -0.1081  0.9113
11123TIP3    H254861   3.188   3.974   0.842  0.1529  0.9870  1.2978
11124TIP3   OH254862   4.486   0.186  16.262  0.3707  0.1034  0.4076
11124TIP3    H154863   4.428   0.110  16.262 -1.4814  1.4639  0.3310
11124TIP3    H254864   4.562   0.158  16.211 -0.5842 -1.4731 -0.2093
11125TIP3   OH254865   3.337   6.536  11.177 -0.3435  0.4064  0.4673
11125TIP3    H154866   3.297   6.498  11.099 -0.6219  0.1421  0.7353
11125TIP3    H254867   3.395   6.605  11.144  0.5915 -0.5991 -0.0642
11126TIP3   OH254868   2.076   1.378  12.648 -0.1536 -0.0815 -0.3441
11126TIP3    H154869   2.134   1.309  12.678 -0.0613 -0.0151 -0.3703
11126TIP3    H254870   2.128   1.428  12.585 -0.4115 -0.3462 -0.7768
11127TIP3   OH254871   3.292   6.386  11.911 -0.2571 -0.2151  0.7961
11127TIP3    H154872   3.253   6.432  11.837  0.4915  0.2764  0.7027
11127TIP3    H254873   3.382   6.369  11.884 -0.2298 -0.8128  1.2466
11128TIP3   OH254874   6.682   2.261   2.954  0.3730 -0.2779 -0.2849
11128TIP3    H154875   6.654   2.351   2.936  1.3255 -0.4662 -3.1331
11128TIP3    H254876   6.600   2.211   2.960 -0.1959  0.7952  1.8972
11129TIP3   OH254877   3.180   2.053  15.534 -0.4683  0.2168  0.1416
11129TIP3    H154878   3.231   1.998  15.474 -1.4810  0.2305 -0.7702
11129TIP3    H254879   3.235   2.062  15.612  1.1661  0.7032 -1.0118
11130TIP3   OH254880   1.189   0.769   2.138 -0.3070  0.3532 -0.4356
11130TIP3    H154881   1.249   0.697   2.117 -1.1096 -0.1141 -1.2217
11130TIP3    H254882   1.117   0.728   2.185 -2.0713  0.0935 -3.1279
11131TIP3   OH254883   5.636   6.048  16.011 -0.1732 -0.0946  0.0874
11131TIP3    H154884   5.709   6.004  15.968  1.4198  1.8603  0.6884
11131TIP3    H254885   5.572   5.978  16.026  1.4006 -1.7931 -0.7762
11132TIP3   OH254886   6.439   0.563   1.293  0.0253 -0.1782  0.1103
11132TIP3    H154887   6.441   0.473   1.262 -1.8132 -0.7347  1.4179
11132TIP3    H254888   6.507   0.568   1.360 -0.8880 -1.0799  1.1400
11133TIP3   OH254889   3.174   5.881   1.468 -0.3308  0.1164 -0.2814
11133TIP3    H154890   3.154   5.928   1.549 -1.2044 -0.9206  0.1307
11133TIP3    H254891   3.229   5.808   1.495  1.6948  1.2833 -1.0256
11134TIP3   OH254892   3.429   0.507  11.101 -0.6784 -0.0250  0.1506
11134TIP3    H154893   3.500   0.504  11.038 -0.0453 -0.0425  0.8523
11134TIP3    H254894   3.369   0.438  11.074  1.0789 -2.1378  1.2984
11135TIP3   OH254895   5.445   3.694   2.068  0.3546  0.8208  0.0996
11135TIP3    H154896   5.536   3.721   2.066  0.5308  0.2309 -0.4207
11135TIP3    H254897   5.400   3.754   2.008  0.6180  0.4117 -0.5232
11136TIP3   OH254898   3.269   6.498  10.923  0.1015  1.0009  0.4097
11136TIP3    H154899   3.303   6.456  10.844  3.3761  0.6198  1.8660
11136TIP3    H254900   3.236   6.583  10.894  0.5207  0.5659 -1.4470
11137TIP3   OH254901   6.846   3.291   4.908  0.0139  0.4434 -0.2169
11137TIP3    H154902   6.857   3.369   4.961  1.7154  1.7621 -2.3280
11137TIP3    H254903   6.915   3.232   4.937 -0.4694  0.2255  0.5135
11138TIP3   OH254904   0.871   3.693   0.406 -0.3096 -0.0811  0.4039
11138TIP3    H154905   0.783   3.700   0.441 -0.8205 -0.7573 -0.7095
11138TIP3    H254906   0.928   3.693   0.483 -1.2894  0.1105  1.1373
11139TIP3   OH254907   1.957   4.270   1.185 -0.7562 -0.5564 -0.2306
11139TIP3    H154908   1.923   4.334   1.123 -1.8162 -0.7748  0.1008
11139TIP3    H254909   1.994   4.201   1.130  1.4678  0.8489 -0.5928
11140TIP3   OH254910   4.279   5.276  11.821  0.8325 -0.2224 -0.5015
11140TIP3    H154911   4.311   5.308  11.906 -0.2373  1.6888 -0.7598
11140TIP3    H254912   4.358   5.272  11.767  1.5104 -1.3235  0.5064
11141TIP3   OH254913   1.657   1.666  12.935  0.0470  0.8357  0.4869
11141TIP3    H154914   1.603   1.597  12.972  0.7044  0.5380  0.9021
11141TIP3    H254915   1.606   1.701  12.862 -0.1253 -0.3398  0.0313
11142TIP3   OH254916   5.781   3.567  16.625  0.4962  0.4014 -0.3749
11142TIP3    H154917   5.805   3.611  16.707  1.0730  0.6408 -0.6640
11142TIP3    H254918   5.686   3.564  16.626  0.5077 -1.1086  1.0966
11143TIP3   OH254919   0.713   0.829  16.384 -0.4321  0.2130 -0.2380
11143TIP3    H154920   0.719   0.924  16.373  2.9123  0.5023  2.2553
11143TIP3    H254921   0.697   0.817  16.478  0.2826 -1.6749 -0.3170
11144TIP3   OH254922   5.929   3.101  13.304 -0.7312  0.2600  0.1647
11144TIP3    H154923   5.984   3.169  13.264 -0.1008  0.0008  0.5726
11144TIP3    H254924   5.854   3.092  13.244  0.3255 -0.3318 -1.1070
11145TIP3   OH254925   2.514   1.395  13.496  0.5034  0.5279 -0.5377
11145TIP3    H154926   2.522   1.479  13.451  1.7325  1.4914  1.3404
11145TIP3    H254927   2.536   1.330  13.430  1.0302  1.7808 -1.6393
11146TIP3   OH254928   5.811   3.704   2.176  0.0548 -0.0141 -0.5918
11146TIP3    H154929   5.867   3.779   2.196 -0.0764  0.4754 -1.9513
11146TIP3    H254930   5.861   3.628   2.206 -0.0942  0.6224  1.4260
11147TIP3   OH254931   0.277   6.485  14.502  0.4328 -0.2405  0.0689
11147TIP3    H154932   0.217   6.469  14.429  0.7742 -2.3864  0.2126
11147TIP3    H254933   0.355   6.523  14.461 -0.9912  2.8531 -0.0941
11148TIP3   OH254934   4.981   5.013  11.104  0.1137 -0.7357  0.7066
11148TIP3    H154935   4.967   4.977  11.016  0.7414 -0.4697  0.4899
11148TIP3    H254936   4.972   4.938  11.163 -1.1190 -0.7726  0.4980
11149TIP3   OH254937   3.898   1.810  12.359 -0.0816  0.0361 -0.0407
11149TIP3    H154938   3.869   1.854  12.279 -0.5755 -1.2882 -0.6018
11149TIP3    H254939   3.915   1.720  12.333 -0.0073 -0.3550  1.2983
11150TIP3   OH254940   3.386   0.199  14.971 -0.1269  0.0502 -0.2774
11150TIP3    H154941   3.330   0.171  14.898 -0.4543 -1.2120  0.4399
11150TIP3    H254942   3.341   0.168  15.049  0.3702  1.1479  0.4626
11151TIP3   OH254943   4.936   1.253   5.455 -0.3838 -0.1569 -0.0553
11151TIP3    H154944   4.954   1.179   5.514  1.2232 -0.4771 -0.9031
11151TIP3    H254945   5.019   1.301   5.451 -1.2576  1.4018  0.0556
11152TIP3   OH254946   2.321   5.360   1.070  0.0112 -0.6954 -0.1487
11152TIP3    H154947   2.409   5.386   1.097  0.2263 -0.5383 -0.9715
11152TIP3    H254948   2.330   5.268   1.045 -0.3970 -1.1312  1.1891
11153TIP3   OH254949   1.809   1.181  15.414  0.0768 -0.9270 -0.3126
11153TIP3    H154950   1.765   1.128  15.480  1.1220  1.5684  2.6066
11153TIP3    H254951   1.740   1.237  15.379  0.0120 -0.2723  0.8200
11154TIP3   OH254952   0.483   0.427  13.452 -0.3142  0.2819 -0.2802
11154TIP3    H154953   0.572   0.463  13.448  0.0057 -0.5596 -1.1935
11154TIP3    H254954   0.457   0.415  13.361 -1.2644  0.2663 -0.0195
11155TIP3   OH254955   6.761   3.412  15.239  0.1960  0.1817 -0.0279
11155TIP3    H154956   6.810   3.451  15.311  0.0231 -0.6173  0.5348
11155TIP3    H254957   6.701   3.351  15.281  0.5407 -0.7686 -0.8907
11156TIP3   OH254958   1.478   0.158  16.763  0.2198  0.2560 -0.4376
11156TIP3    H154959   1.562   0.184  16.726 -1.2732  1.4177 -3.3159
11156TIP3    H254960   1.448   0.235  16.812  0.3772  0.1905 -0.2352
11157TIP3   OH254961   1.337   0.527   4.528  0.4843 -0.0030 -0.1766
11157TIP3    H154962   1.405   0.539   4.594  0.1681  0.3338  0.0944
11157TIP3    H254963   1.338   0.608   4.478 -0.7602  0.6696  0.8177
11158TIP3   OH254964   1.614   0.798   5.487  0.4234 -0.3521  0.2189
11158TIP3    H154965   1.531   0.797   5.440  0.3356 -0.4419  0.3729
11158TIP3    H254966   1.610   0.877   5.541  0.2529 -0.5837  0.5498
11159TIP3   OH254967   2.311   6.491  14.735  0.0894 -0.1259 -0.0554
11159TIP3    H154968   2.387   6.546  14.754 -0.0819  0.1158 -0.0550
11159TIP3    H254969   2.237   6.540  14.772 -0.0430 -0.4480  0.1049
11160TIP3   OH254970   6.562   5.108  10.374  0.1792  0.2014 -0.1926
11160TIP3    H154971   6.468   5.099  10.360  0.3317  0.1825 -1.2610
11160TIP3    H254972   6.570   5.182  10.434 -0.4936  0.5896 -0.5702
11161TIP3   OH254973   5.296   2.253   5.624 -0.5577 -0.2846  0.6728
11161TIP3    H154974   5.355   2.263   5.699 -1.3776 -1.6180  1.5565
11161TIP3    H254975   5.354   2.246   5.549  0.2884  1.1507  1.1528
11162TIP3   OH254976   5.823   0.680   4.625 -0.6134  0.0281 -0.4314
11162TIP3    H154977   5.769   0.756   4.604 -0.4941 -0.0046 -0.8671
11162TIP3    H254978   5.902   0.691   4.572 -0.6107 -0.4154 -0.5245
11163TIP3   OH254979   3.270   2.135  13.895 -0.3581 -0.3017  0.0070
11163TIP3    H154980   3.303   2.217  13.860 -0.4159 -0.4882 -0.4928
11163TIP3    H254981   3.333   2.069  13.866  0.7449 -0.2043  1.9960
11164TIP3   OH254982   2.750   4.826   1.613 -0.3633 -0.3853  0.2761
11164TIP3    H154983   2.798   4.744   1.622 -2.4494 -2.0971 -2.4227
11164TIP3    H254984   2.726   4.850   1.703  3.0397 -0.8728  1.4443
11165TIP3   OH254985   4.198   0.058  13.287 -0.1092 -0.6074  0.4983
11165TIP3    H154986   4.227   0.129  13.231 -0.2606 -0.3028  0.8032
11165TIP3    H254987   4.149  -0.001  13.229 -1.0327  0.1530  0.4789
11166TIP3   OH254988   2.025   1.704   1.506 -0.5113  0.9253  0.2464
11166TIP3    H154989   1.939   1.682   1.469 -0.1264 -1.1426  0.4649
11166TIP3    H254990   2.088   1.661   1.448  0.2061 -0.1714  1.7655
11167TIP3   OH254991   4.725   4.161  13.583 -0.4844 -0.0636 -0.4563
11167TIP3    H154992   4.643   4.164  13.534 -0.3254 -0.7919 -0.7762
11167TIP3    H254993   4.712   4.223  13.655 -0.8406  0.7684 -1.2197
11168TIP3   OH254994   4.099   6.098  12.736  0.6588  0.0366 -0.6032
11168TIP3    H154995   4.123   6.165  12.671  0.1682  0.3727 -0.4462
11168TIP3    H254996   4.173   6.038  12.737  0.3221 -0.4515 -2.1067
11169TIP3   OH254997   5.878   3.620   4.028 -0.0690 -0.1162  0.1626
11169TIP3    H154998   5.935   3.677   3.976 -1.7906  1.8808  0.3202
11169TIP3    H254999   5.937   3.554   4.065  1.6657  0.1866 -1.8635
11170TIP3   OH255000   5.984   5.328   4.685 -0.4432  0.3001  0.3951
11170TIP3    H155001   5.930   5.250   4.676 -1.4803  0.9794  0.4487
11170TIP3    H255002   6.001   5.336   4.779  0.4172 -0.3385  0.3002
11171TIP3   OH255003   1.370   2.391   5.378 -0.0291  0.5200  0.4709
11171TIP3    H155004   1.416   2.341   5.311  2.7405  0.4187  2.2640
11171TIP3    H255005   1.287   2.416   5.338  2.2762  2.3888 -3.7977
11172TIP3   OH255006   6.099   6.408   3.672  1.2120 -0.2025  1.1350
11172TIP3    H155007   6.093   6.463   3.750  1.2225  2.0760 -0.3733
11172TIP3    H255008   6.055   6.458   3.603  0.5826 -2.4437 -0.1958
11173TIP3   OH255009   2.905   3.807   3.247 -0.1572  0.7302 -0.4726
11173TIP3    H155010   2.971   3.740   3.228  0.1227  0.3983  1.4150
11173TIP3    H255011   2.821   3.760   3.243  0.0047  0.3413  0.4053
11174TIP3   OH255012   5.723   4.299   2.168 -0.6483 -0.8209 -0.3353
11174TIP3    H155013   5.687   4.381   2.135  0.2478 -0.3626 -0.2229
11174TIP3    H255014   5.718   4.307   2.264 -0.9076 -1.0593 -0.3282
11175TIP3   OH255015   5.313   0.238   5.023  0.5196 -0.0470 -0.1752
11175TIP3    H155016   5.351   0.325   5.033  1.2312 -0.3960  0.1820
11175TIP3    H255017   5.345   0.189   5.098  0.2579 -0.6711 -0.4688
11176TIP3   OH255018   5.461   3.349  14.615  0.8118 -0.0305  0.0632
11176TIP3    H155019   5.505   3.432  14.633  1.5266  0.2261 -2.4605
11176TIP3    H255020   5.385   3.349  14.674  1.8250  1.5218  1.4418
11177TIP3   OH255021   1.859   2.360   3.483  0.6318 -0.1571 -0.3451
11177TIP3    H155022   1.887   2.327   3.398  0.3786 -0.1900 -0.4157
11177TIP3    H255023   1.897   2.448   3.488 -1.6294  0.9892 -1.6908
11178TIP3   OH255024   5.834   2.717   2.128 -0.2274  0.0414 -0.5098
11178TIP3    H155025   5.880   2.726   2.211  0.5607  1.6796 -1.0929
11178TIP3    H255026   5.851   2.626   2.102 -1.1535 -0.7589  1.4617
11179TIP3   OH255027   4.328   6.165   5.464  0.0477  0.1131  0.0834
11179TIP3    H155028   4.334   6.077   5.427  0.1761  0.5006 -0.8573
11179TIP3    H255029   4.234   6.186   5.460  0.1208  0.3500 -0.5190
11180TIP3   OH255030   1.257   1.466   5.168  0.2958 -0.3182  0.0566
11180TIP3    H155031   1.181   1.511   5.131  0.5630  0.6650  0.6703
11180TIP3    H255032   1.307   1.437   5.092  0.9595  1.8800 -0.4230
11181TIP3   OH255033   4.670   5.437  14.801 -0.3271 -0.1674 -0.4610
11181TIP3    H155034   4.706   5.455  14.715  2.4896 -0.0718  0.6377
11181TIP3    H255035   4.683   5.343  14.813  0.2408 -0.0116  0.2233
11182TIP3   OH255036   6.713   4.049   1.896  0.1653 -0.1901 -0.1013
11182TIP3    H155037   6.699   4.047   1.801 -0.5639  0.9134 -0.0411
11182TIP3    H255038   6.625   4.065   1.932  0.2622 -1.5863  0.8242
11183TIP3   OH255039   4.969   0.363   5.616 -0.0856  0.7971  0.5122
11183TIP3    H155040   4.895   0.423   5.605 -0.3512  0.4725  0.5407
11183TIP3    H255041   5.019   0.373   5.535  1.1557  2.8042  1.4404
11184TIP3   OH255042   6.458   0.861  12.432  0.2239 -0.3979 -0.9758
11184TIP3    H155043   6.498   0.912  12.502 -1.8135 -0.7990  0.5598
11184TIP3    H255044   6.364   0.865  12.449 -0.2278 -1.8514 -2.7716
11185TIP3   OH255045   2.168   5.507  15.112 -0.1741 -0.3121  0.0069
11185TIP3    H155046   2.086   5.502  15.161 -0.3824 -1.0563 -0.3871
11185TIP3    H255047   2.229   5.453  15.162 -0.6474 -1.8630 -0.9892
11186TIP3   OH255048   0.060   0.658   3.589  0.0939 -0.2519  0.0539
11186TIP3    H155049   0.020   0.573   3.575 -0.7895  0.0543  0.6272
11186TIP3    H255050   0.074   0.663   3.683  0.2663  0.1788  0.0073
11187TIP3   OH255051   3.912   3.726  16.320  0.0200 -0.0844 -0.0635
11187TIP3    H155052   4.000   3.690  16.310 -0.6983 -1.8067 -0.5426
11187TIP3    H255053   3.858   3.676  16.259 -1.4492  0.3802  0.7999
11188TIP3   OH255054   3.244   2.739  13.637  0.3810  0.2463 -0.1985
11188TIP3    H155055   3.214   2.786  13.560  2.2725  0.7783 -0.6685
11188TIP3    H255056   3.179   2.758  13.704 -1.0785  0.1130 -1.5152
11189TIP3   OH255057   3.196   4.862   1.423 -0.6770 -0.6621  0.4891
11189TIP3    H155058   3.177   4.929   1.489  1.4774  1.9197 -1.3148
11189TIP3    H255059   3.268   4.812   1.460  2.3620  2.4455 -0.7132
11190TIP3   OH255060   1.310   3.023  14.575  0.2251  0.0904  0.1641
11190TIP3    H155061   1.264   2.945  14.543  0.8004  0.2288 -1.0580
11190TIP3    H255062   1.343   3.065  14.496 -0.1015  1.6072  0.8055
11191TIP3   OH255063   4.760   0.340  16.994  0.2315  0.8176 -0.2066
11191TIP3    H155064   4.854   0.333  16.975  0.3513 -0.8382  0.7201
11191TIP3    H255065   4.745   0.433  17.010  1.5964  1.1849 -0.9401
11192TIP3   OH255066   3.165   2.749   5.614 -0.1045  0.3058 -0.6567
11192TIP3    H155067   3.081   2.793   5.626  1.0708  2.2364  0.9716
11192TIP3    H255068   3.187   2.714   5.700  0.0909 -1.5271 -1.4052
11193TIP3   OH255069   2.811   2.466  11.418  0.2960 -0.0281  0.3882
11193TIP3    H155070   2.887   2.486  11.472  0.3768 -1.1709  0.7357
11193TIP3    H255071   2.781   2.381  11.451  1.0915 -1.3945 -2.1559
11194TIP3   OH255072   1.710   2.131   1.188  0.1799 -0.1794  0.2233
11194TIP3    H155073   1.690   2.050   1.234  1.6039 -0.9051 -0.3505
11194TIP3    H255074   1.795   2.115   1.147 -0.8768  0.4854 -2.4689
11195TIP3   OH255075   5.173   1.857  12.849  0.4171 -0.2618 -0.2129
11195TIP3    H155076   5.265   1.832  12.853  0.4055 -0.7370 -2.0028
11195TIP3    H255077   5.172   1.941  12.802 -0.1507 -1.1224 -1.8174
11196TIP3   OH255078   3.328   5.285  16.485 -0.3403 -0.3170 -0.0509
11196TIP3    H155079   3.422   5.292  16.504 -0.3977  0.3903  0.0023
11196TIP3    H255080   3.299   5.376  16.477 -1.1916 -0.5079  0.7688
11197TIP3   OH255081   0.387   4.736  12.858 -0.3060 -0.4204  0.0122
11197TIP3    H155082   0.379   4.642  12.872  1.1739 -0.5647  0.0701
11197TIP3    H255083   0.450   4.745  12.787 -1.9567  0.5090 -1.4044
11198TIP3   OH255084   4.054   4.266   2.958  0.0630  0.2224  0.5062
11198TIP3    H155085   4.118   4.198   2.935 -1.4060 -0.7257 -1.0183
11198TIP3    H255086   4.013   4.233   3.038 -2.1041 -1.8800 -1.3221
11199TIP3   OH255087   4.201   1.231  16.453  0.5067  0.1660  0.3161
11199TIP3    H155088   4.267   1.161  16.449  1.0116  0.6487 -0.0093
11199TIP3    H255089   4.176   1.235  16.545  1.5032  0.4901  0.5798
11200TIP3   OH255090   2.997   4.447  13.436 -0.4582  0.0818 -0.4302
11200TIP3    H155091   2.920   4.504  13.430 -0.9797 -0.6761 -1.2112
11200TIP3    H255092   2.991   4.410  13.524  0.6350  2.2072  0.6145
11201TIP3   OH255093   6.495   4.185  15.214 -0.6999  0.2215 -0.9845
11201TIP3    H155094   6.568   4.126  15.233 -0.2161  0.5177 -1.8542
11201TIP3    H255095   6.445   4.140  15.146 -0.5985  0.5877 -1.3083
11202TIP3   OH255096   5.961   2.361   4.770 -0.4384  0.0436  0.1568
11202TIP3    H155097   5.892   2.424   4.750  0.0854  0.6094  0.0973
11202TIP3    H255098   6.041   2.402   4.736  0.5411  1.0820  3.3818
11203TIP3   OH255099   4.733   5.551   4.715 -0.0657 -0.2303 -0.1294
11203TIP3    H155100   4.707   5.637   4.750  2.4825  0.7532 -0.4304
11203TIP3    H255101   4.719   5.559   4.621  0.2391 -0.1062 -0.1655
11204TIP3   OH255102   0.783   4.747   4.935  0.4095 -0.7010  0.5295
11204TIP3    H155103   0.711   4.684   4.938 -0.6265  0.2853 -1.5183
11204TIP3    H255104   0.835   4.722   4.859 -0.1407  0.9391 -0.4589
11205TIP3   OH255105   4.562   4.315   4.115  0.1508  0.0724 -0.6566
11205TIP3    H155106   4.614   4.368   4.176 -0.1896  0.2748 -0.5374
11205TIP3    H255107   4.621   4.299   4.041  0.2348  0.7067 -0.7403
11206TIP3   OH255108   3.439   3.397  12.624 -0.2765 -0.8103  0.3617
11206TIP3    H155109   3.354   3.439  12.619  0.0475  0.2708  2.5168
11206TIP3    H255110   3.475   3.403  12.536 -1.7694  0.1468 -0.2115
11207TIP3   OH255111   6.105   4.630  10.255  0.2554  0.2271  0.2639
11207TIP3    H155112   6.146   4.588  10.179 -0.6578 -2.6980  1.2598
11207TIP3    H255113   6.054   4.560  10.296 -2.7173  2.7363  1.2052
11208TIP3   OH255114   1.124   6.001   4.100 -0.6256 -0.1374  0.1499
11208TIP3    H155115   1.114   5.929   4.038 -0.1109  0.3104 -0.4786
11208TIP3    H255116   1.206   6.043   4.074  1.2647 -1.7347  3.0143
11209TIP3   OH255117   5.203   0.317   6.118 -0.0050 -0.9118 -0.0872
11209TIP3    H155118   5.112   0.320   6.146  0.1393  4.2996  0.8927
11209TIP3    H255119   5.200   0.327   6.023 -0.5980  0.8979  0.0727
11210TIP3   OH255120   6.622   2.495  14.820  0.1463 -0.9206 -1.1705
11210TIP3    H155121   6.641   2.564  14.757 -2.2994 -1.2553 -2.3974
11210TIP3    H255122   6.687   2.427  14.802  1.7825  0.4752 -0.8002
11211TIP3   OH255123   2.960   4.946  13.947  0.2682 -0.5241 -0.7999
11211TIP3    H155124   2.977   4.987  13.862 -0.5874 -1.0375 -1.2279
11211TIP3    H255125   2.948   4.854  13.927  0.7963 -0.7736 -0.0108
11212TIP3   OH255126   2.706   6.587   0.203  0.5497 -0.0848 -0.3758
11212TIP3    H155127   2.775   6.529   0.236 -0.4371 -1.1742 -0.1812
11212TIP3    H255128   2.625   6.550   0.237 -0.1691  1.0204 -0.8329
11213TIP3   OH255129   3.243   2.395   3.650 -0.1823 -0.8161 -0.0073
11213TIP3    H155130   3.215   2.309   3.620  0.3024 -1.0925  0.3174
11213TIP3    H255131   3.336   2.384   3.672  0.5093  0.3275 -2.0557
11214TIP3   OH255132   4.663   3.629   0.263  0.6828 -0.0961  0.0965
11214TIP3    H155133   4.624   3.679   0.336  1.6262  0.6589  0.1038
11214TIP3    H255134   4.640   3.680   0.185 -0.0638 -0.7426 -0.1229
11215TIP3   OH255135   3.169   0.847   3.174 -0.0399 -0.3413  0.3934
11215TIP3    H155136   3.208   0.784   3.235  0.9886 -0.2455 -0.1325
11215TIP3    H255137   3.183   0.932   3.214  1.2715 -0.2186 -0.2745
11216TIP3   OH255138   3.256   2.774  15.254 -0.2813  0.0606 -0.1223
11216TIP3    H155139   3.274   2.797  15.163 -0.6009  0.4822 -0.0803
11216TIP3    H255140   3.323   2.818  15.304  0.6376 -1.1504 -0.2431
11217TIP3   OH255141   0.955   2.244   5.790  0.0233  0.0798  0.3354
11217TIP3    H155142   0.915   2.291   5.863  0.6868  0.3442  0.5335
11217TIP3    H255143   0.961   2.153   5.821 -0.1401  0.0991  0.4246
11218TIP3   OH255144   4.449   0.588   5.664 -0.3197 -0.3537 -0.4740
11218TIP3    H155145   4.418   0.500   5.686 -1.0020 -0.4273 -1.6328
11218TIP3    H255146   4.473   0.626   5.748 -2.9410 -0.5387  0.4710
11219TIP3   OH255147   1.400   5.111  11.254 -0.3234 -0.6887  0.3796
11219TIP3    H155148   1.346   5.073  11.185 -1.2188  0.1396  0.6110
11219TIP3    H255149   1.377   5.061  11.333 -1.5422  0.3218  0.6959
11220TIP3   OH255150   3.633   5.671  13.356  0.1066 -0.2033 -0.1199
11220TIP3    H155151   3.573   5.598  13.368 -1.2560  0.8650 -0.2619
11220TIP3    H255152   3.666   5.690  13.444  1.2052 -1.5705 -0.2114
11221TIP3   OH255153   0.380   3.531  15.068 -0.5279  0.1975 -0.1159
11221TIP3    H155154   0.428   3.448  15.070 -2.1809 -0.8259 -0.9124
11221TIP3    H255155   0.441   3.595  15.105  1.5084 -0.9844 -1.2879
11222TIP3   OH255156   2.678   4.826   1.166  0.7438 -0.0322 -0.3077
11222TIP3    H155157   2.735   4.886   1.117  0.6217 -0.0884 -0.5180
11222TIP3    H255158   2.691   4.741   1.124 -1.2590  0.3712 -1.9197
11223TIP3   OH255159   5.569   2.440  14.164  0.3883 -0.7748  0.1741
11223TIP3    H155160   5.621   2.441  14.084  1.3426  0.0516  0.7728
11223TIP3    H255161   5.478   2.447  14.135  0.3894 -3.9631 -1.0157
11224TIP3   OH255162   4.589   5.437  12.715  0.0358  0.1410  0.2446
11224TIP3    H155163   4.682   5.440  12.692  0.1115 -2.5223 -0.0210
11224TIP3    H255164   4.548   5.498  12.654  1.3189 -0.4364 -1.2862
11225TIP3   OH255165   3.677   2.499   0.556 -0.1946 -0.0182  0.2048
11225TIP3    H155166   3.750   2.534   0.608 -0.0264  0.6529 -0.4594
11225TIP3    H255167   3.687   2.404   0.562  0.5664  0.0637  0.3580
11226TIP3   OH255168   1.905   6.297   2.473  0.4063 -0.2731  0.0874
11226TIP3    H155169   1.821   6.256   2.452 -0.0235 -0.1731  1.5629
11226TIP3    H255170   1.929   6.344   2.393 -1.4521  0.5818  0.0023
11227TIP3   OH255171   2.240   1.281   6.471  0.4994  0.2208 -0.2635
11227TIP3    H155172   2.326   1.322   6.488  0.6580  0.6847 -1.9240
11227TIP3    H255173   2.180   1.326   6.530  0.9007  2.0605 -1.1713
11228TIP3   OH255174   6.490   4.951  14.093  0.4201 -0.3188  0.8365
11228TIP3    H155175   6.407   4.906  14.076  1.2111 -2.1456  1.4518
11228TIP3    H255176   6.477   5.040  14.062 -1.3362 -0.9111 -0.2452
11229TIP3   OH255177   1.038   2.101   3.136  0.4749  0.0075 -0.1982
11229TIP3    H155178   1.129   2.124   3.154  0.6583 -0.9837  0.2178
11229TIP3    H255179   1.041   2.055   3.052  0.2956  0.3643 -0.4006
11230TIP3   OH255180   3.428   1.916  13.822  0.2334 -0.1385 -0.1526
11230TIP3    H155181   3.476   1.937  13.902  1.2664 -1.5698 -0.3664
11230TIP3    H255182   3.494   1.918  13.753 -0.2298 -1.0203 -0.6316
11231TIP3   OH255183   5.992   1.011  11.998 -0.0917 -1.0296  0.3689
11231TIP3    H155184   6.041   0.978  11.922  0.4485 -1.3139  0.8380
11231TIP3    H255185   5.909   1.041  11.961  0.9579  0.7729 -0.6710
11232TIP3   OH255186   2.896   0.310   6.342  0.5223  0.1755  0.2123
11232TIP3    H155187   2.979   0.356   6.333  1.1710 -0.5989  1.7061
11232TIP3    H255188   2.833   0.378   6.364  0.9533  0.6573 -0.0152
11233TIP3   OH255189   2.205   4.016  15.263 -0.3002 -0.4150  0.6103
11233TIP3    H155190   2.128   3.958  15.259  0.7833 -1.9732  1.4895
11233TIP3    H255191   2.169   4.101  15.288 -2.0177 -0.4899 -1.2933
11234TIP3   OH255192   5.501   2.915  14.626  0.1146 -0.2054 -0.1871
11234TIP3    H155193   5.533   2.835  14.583 -0.7180  0.0172 -1.2806
11234TIP3    H255194   5.573   2.943  14.682  0.7165 -1.2933 -0.3914
11235TIP3   OH255195   4.193   2.456   4.405  0.3586  0.3867  0.3496
11235TIP3    H155196   4.118   2.407   4.372  0.8480 -0.4785  0.5009
11235TIP3    H255197   4.262   2.442   4.340  0.5286  0.8182  0.4302
11236TIP3   OH255198   6.854   6.712  14.674  0.0257  0.4068  0.2569
11236TIP3    H155199   6.942   6.730  14.639 -0.1049  1.1229  0.2760
11236TIP3    H255200   6.863   6.726  14.768 -0.0548  0.2597  0.2859
11237TIP3   OH255201   4.699   5.760  14.628 -0.0865  0.3139 -0.7118
11237TIP3    H155202   4.613   5.802  14.625  0.0793  0.6795 -0.5054
11237TIP3    H255203   4.681   5.666  14.617 -0.4204  0.4790 -1.6409
11238TIP3   OH255204   5.516   4.590  10.849 -0.0740  0.5360  0.2707
11238TIP3    H155205   5.453   4.648  10.892  0.5375  2.8072 -1.6785
11238TIP3    H255206   5.483   4.580  10.760  0.8724 -0.5679  0.0076
11239TIP3   OH255207   5.971   6.491  14.307  0.1370 -0.2752  0.5343
11239TIP3    H155208   5.939   6.427  14.243 -0.5487  0.4602  0.1243
11239TIP3    H255209   5.893   6.539  14.335  0.6618  0.5106  0.6822
11240TIP3   OH255210   1.739   1.107   3.524 -0.0642  0.4386 -0.3015
11240TIP3    H155211   1.815   1.078   3.473 -0.0090  0.8755 -0.4765
11240TIP3    H255212   1.771   1.183   3.573 -0.0082 -0.2082  0.6876
11241TIP3   OH255213   3.900   6.312   1.852 -0.4801 -0.2130  0.0663
11241TIP3    H155214   3.949   6.239   1.891 -2.3927 -1.1213  0.8835
11241TIP3    H255215   3.891   6.287   1.760 -0.4065 -0.6009  0.1606
11242TIP3   OH255216   0.519   5.830  13.683  0.0981 -0.3944  0.1649
11242TIP3    H155217   0.593   5.880  13.650  0.1673 -1.1078 -0.8029
11242TIP3    H255218   0.442   5.875  13.647  0.0723  0.1813  0.9375
11243TIP3   OH255219   2.563   6.343  10.836 -0.3749  0.5534  0.5086
11243TIP3    H155220   2.621   6.272  10.810 -1.0269  0.1982  0.0160
11243TIP3    H255221   2.555   6.334  10.931 -0.8459 -0.3372  0.3928
11244TIP3   OH255222   4.426   6.009   3.975  0.5683 -0.3233  0.5487
11244TIP3    H155223   4.352   6.001   3.915  0.4475 -0.9373  0.7788
11244TIP3    H255224   4.404   6.085   4.029 -0.4865 -1.2381  1.4376
11245TIP3   OH255225   2.532   2.820  13.383  0.0649 -0.0735 -0.1622
11245TIP3    H155226   2.569   2.759  13.446 -0.8980 -0.8603 -0.3358
11245TIP3    H255227   2.438   2.819  13.400 -0.2026 -0.1813 -1.4828
11246TIP3   OH255228   3.788   0.802  10.936  0.0868 -0.1681  0.1214
11246TIP3    H155229   3.736   0.834  11.010 -0.7199  0.8324 -0.8231
11246TIP3    H255230   3.868   0.853  10.939 -0.0720  0.0842  0.1442
11247TIP3   OH255231   4.266   1.759  15.427 -0.4068  0.2915 -0.3587
11247TIP3    H155232   4.224   1.833  15.471  1.5277  1.7501 -0.7927
11247TIP3    H255233   4.205   1.687  15.437 -2.7917  2.1394 -0.6383
11248TIP3   OH255234   2.761   4.099  15.753  0.2551 -0.4170  0.4225
11248TIP3    H155235   2.712   4.118  15.673  0.2423 -0.2316  0.4741
11248TIP3    H255236   2.761   4.003  15.759  0.8735 -0.4597 -0.1807
11249TIP3   OH255237   1.599   0.277   2.159  0.1556  0.1440 -0.1116
11249TIP3    H155238   1.538   0.277   2.233  0.5322  0.8755  0.2106
11249TIP3    H255239   1.666   0.342   2.183  2.6613 -2.5770  0.8707
11250TIP3   OH255240   3.864   1.523  16.971 -0.0721 -0.6092 -0.6645
11250TIP3    H155241   3.860   1.441  17.021 -1.4104  0.3916  1.0125
11250TIP3    H255242   3.901   1.586  17.033  2.3139 -0.1985 -2.3929
11251TIP3   OH255243   1.620   2.347   2.152  0.2021 -0.3278  0.5926
11251TIP3    H155244   1.585   2.335   2.241  1.9669  0.0184  1.3924
11251TIP3    H255245   1.568   2.418   2.115 -0.5293 -0.4369  1.3732
11252TIP3   OH255246   3.393   1.009  12.023 -0.4264  0.2024 -0.2688
11252TIP3    H155247   3.337   0.956  12.079 -0.3589  1.0644  0.6265
11252TIP3    H255248   3.479   0.966  12.028 -0.4203  0.2736  0.2822
11253TIP3   OH255249   5.870   4.470  15.573 -0.2070  0.3323 -0.0006
11253TIP3    H155250   5.805   4.534  15.543  1.6438  1.5638 -1.6493
11253TIP3    H255251   5.825   4.386  15.565 -2.4311  1.2784  1.4313
11254TIP3   OH255252   3.098   0.563  15.790  0.5174 -0.1044 -0.1852
11254TIP3    H155253   3.103   0.651  15.827 -1.9127 -0.3364  0.9246
11254TIP3    H255254   3.123   0.506  15.863  0.0609 -0.3954 -0.2520
11255TIP3   OH255255   3.415   0.587  14.158  0.0985  0.0612 -0.3596
11255TIP3    H155256   3.346   0.543  14.206  0.9992 -0.8216  0.1537
11255TIP3    H255257   3.496   0.559  14.200  0.7726  1.2739 -0.7834
11256TIP3   OH255258   6.743   4.029   3.405  0.7582  0.2180  0.2984
11256TIP3    H155259   6.779   3.973   3.473 -0.3395  1.0819  1.6581
11256TIP3    H255260   6.650   4.036   3.427  0.0094 -0.7030 -2.1789
11257TIP3   OH255261   2.246   5.119   3.860  0.3723 -0.6442 -0.0472
11257TIP3    H155262   2.310   5.184   3.830  0.2673 -0.6630 -0.3117
11257TIP3    H255263   2.162   5.165   3.854  0.4277 -0.3930  0.9334
11258TIP3   OH255264   1.736   2.566  12.653 -0.7244 -0.3841 -0.1292
11258TIP3    H155265   1.671   2.631  12.682  1.3530  1.7471  0.1329
11258TIP3    H255266   1.716   2.551  12.561 -1.1318  0.8465 -0.2640
11259TIP3   OH255267   1.921   1.958   1.089 -0.0357 -0.1506  0.3684
11259TIP3    H155268   1.952   1.899   1.157  2.5832  1.8445  1.0503
11259TIP3    H255269   1.966   1.930   1.010 -0.0357 -0.0398  0.3290
11260TIP3   OH255270   4.502   5.141  11.220 -0.1002  0.4189  0.3558
11260TIP3    H155271   4.563   5.113  11.152 -1.0068  0.9240 -0.6984
11260TIP3    H255272   4.447   5.064  11.236 -0.2355  0.4612  0.1076
11261TIP3   OH255273   0.980   3.929  10.915 -0.2632 -0.5180 -0.0557
11261TIP3    H155274   0.953   3.838  10.924 -0.6352 -0.3440  0.6874
11261TIP3    H255275   1.014   3.935  10.826 -1.4035 -1.0827 -0.5589
11262TIP3   OH255276   0.816   3.618   5.050  0.4824 -0.0360 -0.0584
11262TIP3    H155277   0.867   3.624   5.131  0.0279  0.2942  0.2074
11262TIP3    H255278   0.832   3.701   5.005  2.3577 -1.0045 -1.3019
11263TIP3   OH255279   2.741   6.240  14.692 -0.5536 -0.2849 -0.2734
11263TIP3    H155280   2.760   6.217  14.783 -0.4061  1.1901  0.0944
11263TIP3    H255281   2.808   6.304  14.669 -1.8465  0.9684 -0.7125
11264TIP3   OH255282   6.374   5.500  11.593 -0.1380 -0.8618 -0.2365
11264TIP3    H155283   6.451   5.492  11.537 -0.6795 -3.4492 -0.7443
11264TIP3    H255284   6.305   5.454  11.545 -1.9105  0.9756  0.4197
11265TIP3   OH255285   3.965   4.048   1.473  0.2242 -0.2038  0.1730
11265TIP3    H155286   4.016   4.101   1.535  0.1882 -1.4490  1.3083
11265TIP3    H255287   4.019   3.971   1.457 -0.3748 -0.5418 -0.2707
11266TIP3   OH255288   5.264   2.680  15.148 -1.0023  0.5604  0.5985
11266TIP3    H155289   5.351   2.719  15.143 -0.9441  0.2945 -0.9179
11266TIP3    H255290   5.251   2.662  15.241  0.9002 -0.1708  0.7673
11267TIP3   OH255291   2.145   6.323  14.488  0.4155 -0.4219  0.2117
11267TIP3    H155292   2.210   6.293  14.551  1.9711  2.5805  0.2136
11267TIP3    H255293   2.192   6.331  14.405 -0.1833  0.7884 -0.0451
11268TIP3   OH255294   1.810   0.898   5.299 -0.0142  0.0770  0.5609
11268TIP3    H155295   1.739   0.880   5.361 -0.8398  0.7271 -0.1614
11268TIP3    H255296   1.832   0.813   5.262  2.8765 -0.9442  4.1477
11269TIP3   OH255297   0.349   2.883   5.480  0.7376  0.3169 -0.1044
11269TIP3    H155298   0.418   2.840   5.530  0.5380 -0.2467 -0.3087
11269TIP3    H255299   0.392   2.958   5.440  0.8236  1.0007  1.1993
11270TIP3   OH255300   6.111   0.634   4.533  0.2796  0.6922  1.1245
11270TIP3    H155301   6.167   0.563   4.565  0.3767  0.8722  1.3567
11270TIP3    H255302   6.167   0.682   4.472  0.9700  1.8848  2.6095
11271TIP3   OH255303   0.410   3.258  14.906 -0.1088 -0.4712  0.3023
11271TIP3    H155304   0.424   3.185  14.847  1.1469 -0.8302  1.0003
11271TIP3    H255305   0.468   3.241  14.980 -0.9564  0.4295  1.2218
11272TIP3   OH255306   6.833   5.871   2.372 -0.0613 -0.0084 -0.2394
11272TIP3    H155307   6.859   5.812   2.301 -0.2512  0.3323 -0.5935
11272TIP3    H255308   6.823   5.814   2.448 -0.6482 -0.5005 -0.6738
11273TIP3   OH255309   3.309   0.110   1.341 -0.2550 -0.3461  0.2863
11273TIP3    H155310   3.345   0.109   1.252  0.1295 -0.1116  0.4391
11273TIP3    H255311   3.263   0.026   1.348 -2.0560  0.4733 -0.8422
11274TIP3   OH255312   2.338   1.034   4.529  0.3270  0.4259  0.5776
11274TIP3    H155313   2.291   1.077   4.457  0.5396  3.9768  2.3570
11274TIP3    H255314   2.273   0.975   4.568 -0.5756  0.3768 -0.9232
11275TIP3   OH255315   3.086   5.238  15.498  0.0080  0.0481 -0.2465
11275TIP3    H155316   3.080   5.333  15.491 -0.7133  0.1224  1.1844
11275TIP3    H255317   2.997   5.209  15.518  0.4962 -0.7762  0.8494
11276TIP3   OH255318   5.064   3.032  11.146  0.5370 -0.2607  0.0584
11276TIP3    H155319   5.068   2.940  11.172  0.3227  0.0532  1.2638
11276TIP3    H255320   5.032   3.077  11.224  1.1602  0.9109 -0.3434
11277TIP3   OH255321   2.545   0.711  15.015 -0.0027  0.2863  0.1449
11277TIP3    H155322   2.567   0.733  14.925 -2.1678 -1.0928 -0.7856
11277TIP3    H255323   2.453   0.736  15.025 -0.2293 -0.9261  1.4886
11278TIP3   OH255324   1.705   1.878  14.947 -0.2031 -0.1407  0.1851
11278TIP3    H155325   1.787   1.841  14.979  0.7857  0.3632 -1.6677
11278TIP3    H255326   1.700   1.850  14.856 -1.3310  1.1258 -0.1621
11279TIP3   OH255327   2.113   4.856  13.429  0.2518  0.3671 -0.1906
11279TIP3    H155328   2.063   4.811  13.497 -1.2206  2.6739  0.3590
11279TIP3    H255329   2.167   4.920  13.476 -0.7059  1.9244 -1.1186
11280TIP3   OH255330   6.443   0.446   1.882  0.1659  0.0791 -0.3543
11280TIP3    H155331   6.530   0.412   1.899  1.3320  3.0968  0.3909
11280TIP3    H255332   6.408   0.470   1.968 -0.2682  1.3481 -0.8596
11281TIP3   OH255333   1.874   4.765   5.196  0.8143 -0.0181  0.0144
11281TIP3    H155334   1.833   4.801   5.274  1.3978  2.9761 -0.9214
11281TIP3    H255335   1.808   4.709   5.157  0.2071 -0.8801  2.1290
11282TIP3   OH255336   2.471   1.194  16.076 -0.8360  0.2503  0.2255
11282TIP3    H155337   2.502   1.150  16.155  1.8226  2.8105  0.7760
11282TIP3    H255338   2.475   1.127  16.008  2.0007 -0.7446  1.2155
11283TIP3   OH255339   6.454   3.796  11.914  0.3635 -0.0301  0.3367
11283TIP3    H155340   6.421   3.715  11.954  0.3302 -1.2156 -1.9157
11283TIP3    H255341   6.545   3.801  11.942  0.9530 -1.9717 -1.0496
11284TIP3   OH255342   0.077   5.625  12.558  0.3773  0.6465  0.3531
11284TIP3    H155343   0.164   5.627  12.518  0.6221  0.3711  0.8632
11284TIP3    H255344   0.035   5.706  12.529  0.4343  0.3138 -0.7044
11285TIP3   OH255345   6.841   1.849   0.100  0.3723  0.1355  0.7253
11285TIP3    H155346   6.797   1.842   0.185  0.3292 -1.0976  0.6193
11285TIP3    H255347   6.776   1.819   0.037 -0.0086  2.1594  0.0922
11286TIP3   OH255348   6.305   1.135  12.238  0.0488 -0.3225  0.0323
11286TIP3    H155349   6.313   1.229  12.223  0.4727 -0.5321 -1.1365
11286TIP3    H255350   6.331   1.123  12.330  3.6618  0.2653 -0.7727
11287TIP3   OH255351   5.048   1.834  11.602 -0.8481  0.1874 -0.3567
11287TIP3    H155352   5.016   1.826  11.692 -0.1606 -0.9687 -0.2069
11287TIP3    H255353   5.122   1.895  11.609 -0.2400 -0.5815  0.0113
11288TIP3   OH255354   1.788   6.438   3.391  0.2398 -0.3180  0.4089
11288TIP3    H155355   1.801   6.406   3.301  1.5670  0.8180  0.1703
11288TIP3    H255356   1.749   6.525   3.380 -0.1847 -0.4357  0.9529
11289TIP3   OH255357   2.516   1.247   5.125 -0.5103  0.6906  0.0642
11289TIP3    H155358   2.426   1.233   5.095 -0.3410 -0.6020  0.0676
11289TIP3    H255359   2.524   1.192   5.203  0.5242  0.0967 -0.4358
11290TIP3   OH255360   5.161   3.794   2.391  0.2188  0.3584 -0.8437
11290TIP3    H155361   5.080   3.756   2.356  0.7346 -1.0472 -0.5762
11290TIP3    H255362   5.136   3.832   2.475 -0.0991 -0.5055 -0.5281
11291TIP3   OH255363   0.054   0.423  12.504  0.0431 -0.2705 -0.1333
11291TIP3    H155364  -0.042   0.420  12.505  0.0058  0.6028 -0.6108
11291TIP3    H255365   0.076   0.501  12.554  0.4978 -0.2954 -0.2911
11292TIP3   OH255366   4.997   2.129  14.692  0.3846  0.3977  0.1251
11292TIP3    H155367   4.944   2.199  14.729  0.8522  1.3121 -0.8927
11292TIP3    H255368   4.945   2.050  14.706  0.7226  0.6024  3.0616
11293TIP3   OH255369   2.993   5.391  15.172 -0.2759 -0.0204  0.2696
11293TIP3    H155370   2.924   5.352  15.226 -0.5502 -1.0048 -0.7554
11293TIP3    H255371   2.946   5.451  15.114 -0.0252  0.7297  0.8132
11294TIP3   OH255372   4.784   2.660  13.696 -0.1950  0.7290  0.0170
11294TIP3    H155373   4.793   2.756  13.692  0.8203  0.5964 -1.4589
11294TIP3    H255374   4.846   2.633  13.764  0.1929  1.0508 -0.2034
11295TIP3   OH255375   3.268   4.716   4.774  0.4776 -0.1987 -0.3696
11295TIP3    H155376   3.229   4.703   4.688  1.7669 -0.6415 -0.9119
11295TIP3    H255377   3.257   4.632   4.819  1.0736 -0.4361 -0.6504
11296TIP3   OH255378   4.626   5.797   1.239  0.0956 -0.7613 -0.6871
11296TIP3    H155379   4.597   5.833   1.155 -0.2475  0.5495 -0.0241
11296TIP3    H255380   4.712   5.836   1.253 -0.2071 -0.3240 -0.0381
11297TIP3   OH255381   5.099   4.848  10.431  0.0720  0.1087 -0.1236
11297TIP3    H155382   5.185   4.819  10.402 -0.6781 -0.9609 -1.3767
11297TIP3    H255383   5.059   4.770  10.470 -0.0246  0.8137  1.2466
11298TIP3   OH255384   1.212   5.175   6.691 -0.2395  0.5979 -0.1893
11298TIP3    H155385   1.193   5.264   6.720  1.4606  0.9097  0.0474
11298TIP3    H255386   1.205   5.179   6.595 -0.0410  1.0142 -0.1859
11299TIP3   OH255387   1.000   2.403   1.824 -0.9679 -0.1136 -0.2652
11299TIP3    H155388   0.962   2.474   1.876  0.7154  0.9993 -0.4953
11299TIP3    H255389   0.930   2.375   1.766 -2.1091  0.3287  0.8537
11300TIP3   OH255390   1.460   5.841   3.342 -0.5494 -1.2172  0.4429
11300TIP3    H155391   1.518   5.855   3.417  0.5226 -0.0212 -0.5499
11300TIP3    H255392   1.373   5.863   3.375  0.1731  1.3729  0.8552
11301TIP3   OH255393   3.573   5.037  14.724  0.3866  0.1027 -0.0163
11301TIP3    H155394   3.612   4.955  14.692 -0.2592  0.1170 -0.8783
11301TIP3    H255395   3.496   5.008  14.773  0.5931  0.1581  0.3430
11302TIP3   OH255396   0.759   3.765  13.979  0.3451  0.0800  0.0551
11302TIP3    H155397   0.722   3.738  14.063 -0.9357  3.4825  0.7231
11302TIP3    H255398   0.821   3.834  14.001  0.9161  0.1851 -1.7260
11303TIP3   OH255399   4.537   6.517   0.537 -0.0628  0.0210  0.0953
11303TIP3    H155400   4.625   6.553   0.531 -0.0131  0.0606  0.9502
11303TIP3    H255401   4.508   6.510   0.446 -0.6517  3.6294 -0.1396
11304TIP3   OH255402   4.726   0.543  10.863 -0.0133  0.1669  0.1607
11304TIP3    H155403   4.766   0.560  10.949 -0.4471 -2.2950  0.9291
11304TIP3    H255404   4.760   0.458  10.838  0.7953  1.2069 -2.5976
11305TIP3   OH255405   5.270   6.591   3.035 -0.1567 -0.2530  1.1176
11305TIP3    H155406   5.300   6.547   3.114 -0.2839 -0.9874  0.7670
11305TIP3    H255407   5.253   6.520   2.973  2.2300  0.4026 -0.4003
11306TIP3   OH255408   1.192   4.983   0.007  0.7159 -0.2848 -0.0400
11306TIP3    H155409   1.243   4.952  -0.067 -0.3456 -0.3211 -0.7759
11306TIP3    H255410   1.166   5.072  -0.017 -1.8582 -1.1933 -0.9585
11307TIP3   OH255411   4.388   1.272   3.566  0.5758 -0.1675  0.1095
11307TIP3    H155412   4.339   1.347   3.535 -0.0423 -0.6095  0.0020
11307TIP3    H255413   4.406   1.220   3.488 -1.0925 -1.3447  0.4418
11308TIP3   OH255414   6.772   0.422   3.562 -0.4569  0.2900 -0.1082
11308TIP3    H155415   6.784   0.335   3.598 -0.7278  0.9694  1.7020
11308TIP3    H255416   6.680   0.443   3.579 -0.0603  1.4470  0.7309
11309TIP3   OH255417   1.851   0.598  15.831  0.4591  0.2290  0.0524
11309TIP3    H155418   1.773   0.549  15.806  0.6895 -0.9524  1.4755
11309TIP3    H255419   1.852   0.674  15.774 -0.6328 -0.7742 -1.3664
11310TIP3   OH255420   1.143   1.379  16.913  0.0319 -0.6076  0.0685
11310TIP3    H155421   1.095   1.432  16.850  4.1395  1.0754 -2.0225
11310TIP3    H255422   1.110   1.407  16.998 -2.4176  0.5236 -1.1636
11311TIP3   OH255423   4.860   4.562  13.427 -0.2954 -0.5760  0.2006
11311TIP3    H155424   4.940   4.592  13.471 -0.7074 -0.4311  0.8595
11311TIP3    H255425   4.812   4.514  13.495 -0.0647 -1.9831 -0.5970
11312TIP3   OH255426   0.831   5.596  15.616 -0.1713  0.7770  0.0239
11312TIP3    H155427   0.809   5.645  15.696  0.8611  0.9271  0.2251
11312TIP3    H255428   0.852   5.508  15.647 -2.8208 -0.1253 -0.4098
11313TIP3   OH255429   2.223   0.732   4.359  0.1930 -0.0568 -0.1319
11313TIP3    H155430   2.313   0.764   4.354 -0.2441  1.4579  1.0376
11313TIP3    H255431   2.193   0.731   4.268  1.7249 -1.7472 -0.6864
11314TIP3   OH255432   2.897   4.927  15.754  0.7098 -0.1857 -0.2174
11314TIP3    H155433   2.851   4.982  15.816 -0.5948  0.3838 -1.6424
11314TIP3    H255434   2.893   4.839  15.792 -0.6041  0.0446  0.2015
11315TIP3   OH255435   1.972   5.914   3.544  0.7963  0.6498 -0.5148
11315TIP3    H155436   1.973   5.957   3.459 -1.1154  0.0905 -0.8538
11315TIP3    H255437   1.895   5.857   3.542  0.8121  0.4809  1.5064
11316TIP3   OH255438   3.362   3.440   2.744  0.2731  0.0318  0.1683
11316TIP3    H155439   3.431   3.450   2.809 -0.6357  0.2324  1.1325
11316TIP3    H255440   3.398   3.478   2.664  1.3527 -0.0822  0.5912
11317TIP3   OH255441   4.111   1.659   3.074  0.2761 -0.1587 -0.6223
11317TIP3    H155442   4.159   1.706   3.007  0.0908 -1.1675 -1.4989
11317TIP3    H255443   4.045   1.609   3.026 -0.1817 -0.5305  0.3556
11318TIP3   OH255444   6.535   6.432  11.509  0.4782  0.1268 -0.4300
11318TIP3    H155445   6.589   6.508  11.528  0.8569 -0.2819  0.1693
11318TIP3    H255446   6.447   6.457  11.535  0.6586  0.2482  0.0582
11319TIP3   OH255447   5.762   0.363  11.382  0.4428  0.4874  0.5258
11319TIP3    H155448   5.851   0.397  11.395  0.7320 -0.3457  0.7990
11319TIP3    H255449   5.741   0.385  11.292  0.9464  0.6578  0.4458
11320TIP3   OH255450   6.595   0.788   4.632 -0.2764 -0.3911 -0.5677
11320TIP3    H155451   6.559   0.778   4.544  1.1909  1.5111 -1.4589
11320TIP3    H255452   6.520   0.814   4.686 -0.9409 -0.1430 -1.5819
11321TIP3   OH255453   5.801   6.003   2.748  0.1962 -0.8451 -0.0977
11321TIP3    H155454   5.870   5.941   2.773  0.3520 -1.5808 -2.1570
11321TIP3    H255455   5.747   6.011   2.826  2.6009 -0.2087  1.6008
11322TIP3   OH255456   3.049   3.897   1.855 -0.3247  0.0327 -0.1615
11322TIP3    H155457   3.133   3.929   1.888  0.8137 -1.9242 -1.0137
11322TIP3    H255458   2.988   3.911   1.928  0.8313  1.0517  0.6535
11323TIP3   OH255459   0.717   4.931  12.159 -0.1227  0.5820  0.3524
11323TIP3    H155460   0.700   4.907  12.250 -0.4314  1.7609  0.6126
11323TIP3    H255461   0.700   5.025  12.154 -0.1813  0.5288 -0.9446
11324TIP3   OH255462   0.083   5.606   5.932 -0.5625  0.2705  0.1972
11324TIP3    H155463   0.091   5.656   5.850  2.8272  1.3934  1.0482
11324TIP3    H255464   0.061   5.672   5.998  0.8195  0.1410  0.8182
11325TIP3   OH255465   4.246   1.281  15.304 -0.0086 -0.5765  0.0877
11325TIP3    H155466   4.263   1.271  15.398  0.0671  1.6593  0.3662
11325TIP3    H255467   4.152   1.266  15.295 -0.3108  0.6760  0.8166
11326TIP3   OH255468   6.278   3.750   1.396  0.2389 -0.3546  0.4441
11326TIP3    H155469   6.278   3.654   1.398 -0.7907 -0.3691  1.7031
11326TIP3    H255470   6.191   3.774   1.431  0.3925  1.0283 -0.0862
11327TIP3   OH255471   4.412   2.793  12.022  0.3815 -0.4985  1.0378
11327TIP3    H155472   4.392   2.710  11.979  1.6576  0.1703 -1.0188
11327TIP3    H255473   4.385   2.860  11.960  2.9396  0.5137  0.8602
11328TIP3   OH255474   3.445   1.933   1.182  0.0459 -0.1224  0.1139
11328TIP3    H155475   3.393   1.865   1.225  0.4851  0.3329  1.4286
11328TIP3    H255476   3.405   2.015   1.212  0.1075  0.2112 -0.6998
11329TIP3   OH255477   1.954   2.830   4.989 -0.2673 -0.0188  0.5390
11329TIP3    H155478   1.877   2.778   4.963 -0.0674  0.4966 -1.2001
11329TIP3    H255479   2.016   2.765   5.021 -0.3599 -0.7943 -0.7635
11330TIP3   OH255480   6.112   3.665   3.840  0.0349 -0.3282  0.0661
11330TIP3    H155481   6.169   3.588   3.842  1.1244  0.4743  0.8641
11330TIP3    H255482   6.169   3.738   3.865 -1.5241  0.3738  1.7336
11331TIP3   OH255483   6.458   4.478  13.087  0.1563 -0.1484  0.0805
11331TIP3    H155484   6.372   4.510  13.057 -0.1149  0.5527  1.4941
11331TIP3    H255485   6.438   4.425  13.164  0.8732 -1.4011 -0.5695
11332TIP3   OH255486   6.795   5.730   3.475 -0.0200  0.1589  0.1497
11332TIP3    H155487   6.748   5.648   3.463 -1.4046  0.6779  1.7035
11332TIP3    H255488   6.726   5.795   3.492  1.0947  1.4949 -0.2343
11333TIP3   OH255489   2.554   4.420  16.444 -0.5884 -0.7005  0.7644
11333TIP3    H155490   2.636   4.469  16.451 -0.3210 -0.6589 -1.8548
11333TIP3    H255491   2.486   4.487  16.449 -0.3537 -0.4266  0.3416
11334TIP3   OH255492   6.020   0.728   0.958  0.0781 -0.0351  0.7911
11334TIP3    H155493   6.080   0.681   1.016 -0.1252 -0.0997  0.9480
11334TIP3    H255494   5.939   0.735   1.008  0.2694  0.9630  0.9963
11335TIP3   OH255495   1.289   2.653  10.862  0.0446 -0.8498  0.3200
11335TIP3    H155496   1.283   2.741  10.825 -0.2008 -1.2235 -0.5544
11335TIP3    H255497   1.220   2.650  10.928  0.8928  0.0377  1.2796
11336TIP3   OH255498   1.611   6.853  11.781 -0.4088  0.2980 -0.2958
11336TIP3    H155499   1.555   6.910  11.728 -1.2681  0.5143  0.8197
11336TIP3    H255500   1.557   6.828  11.855  1.1160  0.9352  1.0961
11337TIP3   OH255501   1.976   4.171  16.826 -0.2937  0.5860 -0.3986
11337TIP3    H155502   1.934   4.138  16.746 -1.8723  0.7057  0.3444
11337TIP3    H255503   2.035   4.100  16.853 -1.1533 -0.2427 -0.6567
11338TIP3   OH255504   0.048   2.921  15.593  0.5870 -0.5705  0.2855
11338TIP3    H155505  -0.014   2.975  15.544 -1.6196 -2.3330  0.9369
11338TIP3    H255506   0.131   2.933  15.548 -1.1111 -1.4133 -3.4298
11339TIP3   OH255507   0.081   4.547   1.386  0.3422 -0.7840 -0.7861
11339TIP3    H155508   0.130   4.517   1.463  0.3581  0.1134 -0.4403
11339TIP3    H255509  -0.011   4.536   1.411  0.3444 -0.3201 -0.5601
11340TIP3   OH255510   1.440   2.511  11.273  0.0388  0.2481 -0.3126
11340TIP3    H155511   1.410   2.447  11.208 -0.2181  0.0790 -0.0305
11340TIP3    H255512   1.372   2.510  11.340 -0.4778  1.5572 -0.7924
11341TIP3   OH255513   2.219   5.956   2.317  0.2273  0.4561 -0.1315
11341TIP3    H155514   2.224   5.895   2.243  0.9278 -0.2633  0.4808
11341TIP3    H255515   2.286   5.924   2.378 -0.0460  1.2901  0.6206
11342TIP3   OH255516   1.510   3.362   0.813 -0.2114  0.1164 -0.1333
11342TIP3    H155517   1.577   3.294   0.813 -1.2206 -0.9131  0.6805
11342TIP3    H255518   1.455   3.342   0.737  0.1358  0.7035 -0.5481
11343TIP3   OH255519   6.307   0.070  15.169 -0.2362  0.1557 -0.1321
11343TIP3    H155520   6.377   0.079  15.233  0.0294  1.2372 -0.5400
11343TIP3    H255521   6.350   0.036  15.091 -0.4843 -0.7674  0.1182
11344TIP3   OH255522   6.683   4.440  11.229  0.3938  0.1852 -0.2753
11344TIP3    H155523   6.743   4.422  11.302 -0.3339 -0.4518  0.1786
11344TIP3    H255524   6.596   4.428  11.266 -0.0213  0.9857 -0.9619
11345TIP3   OH255525   4.951   4.165   4.129 -0.5491 -0.6504 -0.3262
11345TIP3    H155526   4.972   4.214   4.050 -0.3920 -0.8028 -0.3814
11345TIP3    H255527   5.031   4.170   4.182 -0.6829 -0.4761 -0.1393
11346TIP3   OH255528   6.266   1.437  14.375  0.5691 -0.2666  0.2131
11346TIP3    H155529   6.243   1.527  14.353  0.5670  0.2726  2.1691
11346TIP3    H255530   6.319   1.406  14.302  1.8261  1.8286  0.1564
11347TIP3   OH255531   3.132   6.378  16.725 -0.1154  0.5633  0.1407
11347TIP3    H155532   3.098   6.359  16.813  0.9137  0.9872  0.6537
11347TIP3    H255533   3.150   6.292  16.687 -1.0139  0.3587  0.1451
11348TIP3   OH255534   6.045   6.550  10.156 -0.2227 -0.1538 -0.5061
11348TIP3    H155535   6.095   6.518  10.081  0.7849 -0.8191  0.4142
11348TIP3    H255536   5.989   6.478  10.182  1.2373 -0.8796  0.8727
11349TIP3   OH255537   3.100   1.303  15.415  0.0716 -0.1684  0.6654
11349TIP3    H155538   3.018   1.284  15.369 -0.0297  1.6582  0.0129
11349TIP3    H255539   3.078   1.374  15.475  1.3895  1.1001 -0.2883
11350TIP3   OH255540   3.086   4.361   5.121 -0.3043  0.0534  0.4496
11350TIP3    H155541   3.085   4.308   5.041 -1.0455  0.3542  0.2465
11350TIP3    H255542   3.022   4.320   5.178 -0.3583  0.3035  0.5732
11351TIP3   OH255543   5.845   4.107   0.890  0.1933  0.1346 -0.1782
11351TIP3    H155544   5.859   4.135   0.800  1.6833  0.4252  0.1146
11351TIP3    H255545   5.874   4.016   0.891 -0.5366 -0.1047 -0.1483
11352TIP3   OH255546   6.244   0.868   6.334 -0.1780 -0.0361  0.5035
11352TIP3    H155547   6.176   0.921   6.375  0.6103  1.7925 -0.4219
11352TIP3    H255548   6.200   0.825   6.261 -0.6545 -0.0327  0.7856
11353TIP3   OH255549   5.874   1.476  14.131 -0.7554 -0.0410  0.2519
11353TIP3    H155550   5.907   1.415  14.198  0.1845 -0.7590 -0.8272
11353TIP3    H255551   5.794   1.435  14.100 -0.1592 -0.7290 -0.4252
11354TIP3   OH255552   5.385   4.983  13.552 -0.2851  0.4387  0.4110
11354TIP3    H155553   5.363   4.959  13.462  2.7008  0.0112 -0.3076
11354TIP3    H255554   5.374   5.078  13.555  1.5174  0.7364 -1.0658
11355TIP3   OH255555   1.573   1.819  12.646 -0.1767 -0.2887  0.7922
11355TIP3    H155556   1.532   1.883  12.589  0.3720 -0.9489 -0.3890
11355TIP3    H255557   1.504   1.755  12.664 -0.4867  0.1773  1.2797
11356TIP3   OH255558   6.100   5.472   3.104 -0.2241 -0.3744  0.5857
11356TIP3    H155559   6.168   5.488   3.039 -0.9795 -0.2512 -0.1933
11356TIP3    H255560   6.085   5.377   3.100  0.3084 -0.4881  1.1792
11357TIP3   OH255561   3.416   3.332   0.827  0.2403 -0.3326 -0.6863
11357TIP3    H155562   3.453   3.275   0.760  0.2913  0.5308 -1.4136
11357TIP3    H255563   3.328   3.296   0.843 -0.7520  0.8065 -3.0024
11358TIP3   OH255564   4.913   2.316   0.344 -0.2960 -0.0498  0.2100
11358TIP3    H155565   4.829   2.340   0.384 -0.9403 -0.3521 -0.9301
11358TIP3    H255566   4.941   2.394   0.297  1.0105  0.6812  2.0688
11359TIP3   OH255567   4.214   0.212  12.215 -0.1170 -0.3921  0.0709
11359TIP3    H155568   4.228   0.254  12.300  0.6365 -1.2206  0.3764
11359TIP3    H255569   4.303   0.197  12.181 -0.4047  0.7549 -1.2970
11360TIP3   OH255570   6.842   3.324   1.195  0.1890  0.3198  0.0141
11360TIP3    H155571   6.936   3.312   1.184  0.2353  0.2395  0.4737
11360TIP3    H255572   6.823   3.289   1.282 -0.0523  1.5221  0.4603
11361TIP3   OH255573   3.314   4.018  11.731  0.0284  0.0443  0.3250
11361TIP3    H155574   3.365   4.056  11.659  1.0449 -2.1277 -0.2051
11361TIP3    H255575   3.345   4.064  11.809  1.5250  0.0481 -0.2232
11362TIP3   OH255576   3.080   0.509   4.451  0.2459 -0.2349  0.4885
11362TIP3    H155577   2.992   0.541   4.473  0.2923  0.7799 -0.6529
11362TIP3    H255578   3.125   0.587   4.417  1.5009 -0.8034  0.8100
11363TIP3   OH255579   4.726   4.312   3.888 -0.3033  0.5759 -0.0803
11363TIP3    H155580   4.783   4.263   3.829 -0.6090  0.1314 -0.0087
11363TIP3    H255581   4.697   4.388   3.837 -0.0020  0.5690 -0.2612
11364TIP3   OH255582   3.697   0.040  13.341  0.2743 -0.0644 -0.2618
11364TIP3    H155583   3.713  -0.041  13.293 -0.8071 -0.0924 -0.6107
11364TIP3    H255584   3.764   0.101  13.308  1.0829 -0.7950 -0.0050
11365TIP3   OH255585   1.683   4.808   0.045 -0.0604  0.4653 -0.3440
11365TIP3    H155586   1.623   4.870   0.087  0.4458  0.5560  0.2573
11365TIP3    H255587   1.753   4.795   0.109 -0.2558 -0.8828 -0.3769
11366TIP3   OH255588   6.518   2.265   0.665 -0.1549 -0.0597 -0.0053
11366TIP3    H155589   6.500   2.356   0.645  3.4008  0.4056 -2.0366
11366TIP3    H255590   6.508   2.220   0.581  0.6809 -0.9809  0.3594
11367TIP3   OH255591   2.242   6.558   5.246  0.7413  0.4109  0.4715
11367TIP3    H155592   2.317   6.498   5.250  0.5242  0.1968  2.0287
11367TIP3    H255593   2.262   6.627   5.309 -0.8209 -0.2449  1.7851
11368TIP3   OH255594   6.848   5.347  16.969  0.4644  0.0493 -0.5365
11368TIP3    H155595   6.779   5.317  17.028 -0.1863  0.6281 -0.9762
11368TIP3    H255596   6.887   5.267  16.934  0.1542 -0.2877 -0.1159
11369TIP3   OH255597   0.099   6.598  10.895 -0.5241 -0.4112  0.2338
11369TIP3    H155598   0.151   6.610  10.975  2.3923 -1.1582 -1.4340
11369TIP3    H255599   0.143   6.651  10.829 -1.9004 -1.0620 -1.2747
11370TIP3   OH255600   6.117   4.503  15.671  0.2470  0.4191 -0.2584
11370TIP3    H155601   6.093   4.575  15.730  1.8553  0.1210  0.8305
11370TIP3    H255602   6.035   4.479  15.628 -0.3977  2.6831 -0.4335
11371TIP3   OH255603   3.013   2.568  12.024 -0.4970 -0.2194  0.2542
11371TIP3    H155604   3.053   2.483  12.011 -0.5170 -0.5918  2.2581
11371TIP3    H255605   2.935   2.567  11.968  0.7589 -0.5440 -1.5693
11372TIP3   OH255606   2.856   4.637  11.972 -0.0467  0.5603  0.0140
11372TIP3    H155607   2.937   4.687  11.986  0.9827 -0.8706 -0.6562
11372TIP3    H255608   2.802   4.658  12.049  0.0465  3.1835 -0.5280
11373TIP3   OH255609   3.966   4.984  12.808  0.0873  0.7954  0.4084
11373TIP3    H155610   3.897   4.929  12.846  0.6206  0.3089  0.7040
11373TIP3    H255611   3.996   5.038  12.880  1.1219 -0.1501  0.7195
11374TIP3   OH255612   5.300   4.221  13.833  0.0564 -0.3226 -0.2428
11374TIP3    H155613   5.248   4.183  13.762 -0.7409  1.5388 -0.7086
11374TIP3    H255614   5.235   4.247  13.899  0.7322 -1.3821  0.9011
11375TIP3   OH255615   5.078   4.410   3.774 -0.8544 -0.0350 -0.2859
11375TIP3    H155616   5.071   4.408   3.678 -1.0018 -0.3831 -0.2697
11375TIP3    H255617   5.075   4.503   3.796  2.1853  0.2724 -0.8132
11376TIP3   OH255618   4.316   0.329  13.429  0.0890  0.0148  0.5686
11376TIP3    H155619   4.306   0.373  13.514 -0.4516 -0.2704  0.6541
11376TIP3    H255620   4.250   0.260  13.430 -0.6039  0.6555 -0.5035
11377TIP3   OH255621   0.096   4.833  16.354 -0.0556 -0.6000 -0.0186
11377TIP3    H155622   0.153   4.768  16.395 -3.8942 -3.0853  1.9433
11377TIP3    H255623   0.016   4.831  16.406 -2.2331  2.2030 -2.8742
11378TIP3   OH255624   2.010   3.194   0.015  0.0454 -0.1905  0.3373
11378TIP3    H155625   1.962   3.274   0.032 -1.7843 -0.9616 -0.9041
11378TIP3    H255626   2.075   3.189   0.086 -2.2841  0.4378  2.6772
11379TIP3   OH255627   3.626   5.985  12.205 -0.0320  0.2356  0.7795
11379TIP3    H155628   3.698   5.970  12.144 -0.2565  0.3442  0.4826
11379TIP3    H255629   3.642   5.925  12.277  1.0978  1.1970  1.3636
11380TIP3   OH255630   4.344   0.850  14.054  0.0796 -0.3092 -0.6596
11380TIP3    H155631   4.332   0.829  14.147  1.5645  1.5001  0.0089
11380TIP3    H255632   4.409   0.787  14.024 -0.8669 -1.3098 -0.6682
11381TIP3   OH255633   4.772   6.388  12.322 -0.3625 -0.0097 -0.8914
11381TIP3    H155634   4.699   6.443  12.347 -0.3495 -1.0801  1.8212
11381TIP3    H255635   4.759   6.372  12.228 -2.5431  1.3096 -0.8819
11382TIP3   OH255636   3.990   5.132  15.186  0.0320  0.4447  1.0111
11382TIP3    H155637   4.009   5.067  15.119 -1.6854  1.2837 -0.3833
11382TIP3    H255638   3.970   5.080  15.264  0.3810 -0.6304  0.4078
11383TIP3   OH255639   2.911   1.423   5.684 -0.3783 -0.0512  0.2685
11383TIP3    H155640   2.897   1.343   5.633  2.4249 -0.4740 -0.0113
11383TIP3    H255641   2.885   1.494   5.625 -4.0031 -0.6726  0.9213
11384TIP3   OH255642   6.686   5.658  16.781 -0.1974  0.1068 -0.2073
11384TIP3    H155643   6.657   5.649  16.691 -0.4889  1.6884 -0.3085
11384TIP3    H255644   6.777   5.629  16.780 -0.3030 -0.2051 -0.9371
11385TIP3   OH255645   3.424   5.156   2.998  0.1511 -0.5164 -0.6197
11385TIP3    H155646   3.363   5.089   2.970  0.4763 -1.5303  0.9517
11385TIP3    H255647   3.489   5.161   2.927 -1.3649  0.1357 -2.0125
11386TIP3   OH255648   4.632   2.529  14.094  0.2999 -0.7069 -0.2934
11386TIP3    H155649   4.672   2.450  14.129 -1.3580 -1.1467  0.6970
11386TIP3    H255650   4.538   2.510  14.090  0.0180  0.6871 -1.4280
11387TIP3   OH255651   6.808   4.639   2.280  0.4712  0.4435 -0.2618
11387TIP3    H155652   6.836   4.616   2.369  1.1702  0.5555 -0.4491
11387TIP3    H255653   6.787   4.555   2.239  1.1144  0.2994 -0.3081
11388TIP3   OH255654   0.880   5.115  10.522  0.0816  0.4440  0.1607
11388TIP3    H155655   0.806   5.059  10.496  1.0109 -1.2605  0.9845
11388TIP3    H255656   0.956   5.058  10.511  0.9054  0.9901  2.6321
11389TIP3   OH255657   2.104   3.643   0.270  0.6951 -0.5279 -0.4753
11389TIP3    H155658   2.156   3.585   0.326 -0.7785 -1.6569 -0.2265
11389TIP3    H255659   2.156   3.651   0.190  0.8669 -2.3713 -0.5920
11390TIP3   OH255660   4.208   2.278   2.760 -0.3214 -0.3217  0.4696
11390TIP3    H155661   4.234   2.356   2.808 -0.4015 -0.1285  0.2021
11390TIP3    H255662   4.277   2.267   2.694 -0.2697 -0.5208  0.5573
11391TIP3   OH255663   1.948   5.070   0.371 -0.5972  0.2795 -0.3944
11391TIP3    H155664   2.023   5.102   0.422  0.4180 -1.5646 -0.6455
11391TIP3    H255665   1.904   5.149   0.341  0.7049  1.4156  0.5585
11392TIP3   OH255666   1.016   1.473  13.452 -0.8949 -0.5195 -0.0830
11392TIP3    H155667   1.021   1.448  13.360 -0.1673 -2.1676  0.3571
11392TIP3    H255668   0.942   1.423  13.486 -0.5550 -0.6789  0.4327
11393TIP3   OH255669   1.773   5.142  13.043  0.0260  0.0633 -0.1805
11393TIP3    H155670   1.693   5.127  13.093  0.0317  1.1440  0.1670
11393TIP3    H255671   1.752   5.216  12.986  0.5669 -0.0903 -0.5884
11394TIP3   OH255672   0.740   3.252  15.927  0.0661  0.5942  0.0106
11394TIP3    H155673   0.759   3.158  15.937  0.6396  0.6889 -0.1476
11394TIP3    H255674   0.662   3.254  15.872  0.0618  0.2058 -0.0048
11395TIP3   OH255675   6.773   0.271  16.190 -0.1930 -0.3483  0.0639
11395TIP3    H155676   6.725   0.305  16.115 -0.2397 -1.5171 -0.4474
11395TIP3    H255677   6.864   0.268  16.160 -0.0346  0.2607  0.4576
11396TIP3   OH255678   6.749   5.880  11.770  0.0139  0.3510 -0.8436
11396TIP3    H155679   6.661   5.916  11.754  0.0373 -0.1048 -2.0988
11396TIP3    H255680   6.739   5.786  11.760  0.1093  0.0047  1.7241
11397TIP3   OH255681   6.438   3.735  14.988  0.1020  0.4068 -0.0653
11397TIP3    H155682   6.508   3.784  14.945  0.4750 -0.4471 -0.4391
11397TIP3    H255683   6.481   3.694  15.064  0.4275 -1.4355 -1.1778
11398TIP3   OH255684   6.229   0.772   0.791  0.3486 -0.2900 -0.1568
11398TIP3    H155685   6.260   0.860   0.770  0.9372 -0.6210 -0.6802
11398TIP3    H255686   6.155   0.787   0.850  0.9153  0.5331  0.3648
11399TIP3   OH255687   3.674   0.605   2.680 -0.2746  0.7298  0.6501
11399TIP3    H155688   3.604   0.660   2.714  0.3639  1.1377  1.3337
11399TIP3    H255689   3.724   0.578   2.757  0.1273  0.1684  0.2108
11400TIP3   OH255690   1.265   6.307   2.432  0.2680 -0.1338  0.3381
11400TIP3    H155691   1.262   6.400   2.452  0.5663 -0.1941  0.6841
11400TIP3    H255692   1.216   6.298   2.351  0.7967  0.4146 -0.0494
11401TIP3   OH255693   2.740   0.867  16.172  0.8294  0.7854 -0.2678
11401TIP3    H155694   2.828   0.897  16.196  0.5004  1.5838 -0.0242
11401TIP3    H255695   2.693   0.862  16.255  0.6882  0.2015 -0.3814
11402TIP3   OH255696   0.313   1.687  10.457  0.2841 -0.0501  0.5817
11402TIP3    H155697   0.379   1.671  10.524  0.7559  0.6294  0.2807
11402TIP3    H255698   0.231   1.695  10.506  0.4648 -0.5881  0.9821
11403TIP3   OH255699   0.744   5.568  11.441 -0.0292 -0.0777 -0.2297
11403TIP3    H155700   0.819   5.530  11.397 -1.7397 -1.6597 -1.9675
11403TIP3    H255701   0.679   5.498  11.445 -1.2082  1.0184  1.8095
11404TIP3   OH255702   0.768   6.633  10.917 -0.0001 -0.4118  0.7015
11404TIP3    H155703   0.711   6.581  10.974  2.0083 -2.1164  1.2820
11404TIP3    H255704   0.712   6.659  10.844 -2.0661 -0.0900  2.3025
11405TIP3   OH255705   4.024   1.642  12.156 -0.0346 -0.2225 -0.4760
11405TIP3    H155706   4.053   1.594  12.079 -0.5832 -0.2408 -0.6768
11405TIP3    H255707   4.082   1.718  12.159 -1.7599  1.3215 -2.5824
11406TIP3   OH255708   4.212   3.207  15.206  0.2864  0.1626 -0.0102
11406TIP3    H155709   4.120   3.233  15.215 -0.4760 -1.9048 -1.0159
11406TIP3    H255710   4.256   3.248  15.280 -1.6500  0.3927  1.0845
11407TIP3   OH255711   2.521   4.191   2.850  0.0799  0.2130 -0.2676
11407TIP3    H155712   2.426   4.206   2.853  0.3092  2.0424 -0.8788
11407TIP3    H255713   2.540   4.176   2.757  0.3434 -0.6374 -0.0856
11408TIP3   OH255714   3.202   4.165   2.973  0.7164  0.4094  0.7182
11408TIP3    H155715   3.280   4.167   3.029  0.9331  0.2318  0.4264
11408TIP3    H255716   3.164   4.079   2.988  0.8898  0.2821  0.4402
11409TIP3   OH255717   1.276   4.673   4.342  0.1250  0.4236  0.4110
11409TIP3    H155718   1.369   4.694   4.352 -0.4030  4.1193 -0.9316
11409TIP3    H255719   1.231   4.755   4.359 -2.7379 -0.6612 -1.2672
11410TIP3   OH255720   5.345   3.622  13.140 -0.0007  0.2761 -0.4455
11410TIP3    H155721   5.396   3.656  13.214  0.2262 -0.4981 -0.2407
11410TIP3    H255722   5.351   3.692  13.074  1.2053  0.2767 -0.3736
11411TIP3   OH255723   1.849   5.034  16.804  0.0858 -0.6538 -0.2804
11411TIP3    H155724   1.834   5.052  16.712  2.1411 -0.1306 -0.5710
11411TIP3    H255725   1.875   4.942  16.807 -2.8177 -1.5685  0.2202
11412TIP3   OH255726   5.889   5.700  12.125  0.3592  0.4091 -0.3046
11412TIP3    H155727   5.839   5.641  12.182  1.0265 -1.7406 -1.8250
11412TIP3    H255728   5.953   5.741  12.183 -0.4159 -0.0264  0.8850
11413TIP3   OH255729   3.601   3.525   3.316 -0.1909 -0.0012 -0.1328
11413TIP3    H155730   3.560   3.566   3.240  0.8690  0.2419 -0.5875
11413TIP3    H255731   3.595   3.591   3.385  0.3257  0.4198 -0.4861
11414TIP3   OH255732   6.524   6.441  16.380 -0.4123  0.0334  0.5347
11414TIP3    H155733   6.432   6.422  16.365 -0.6804  1.7002 -0.1223
11414TIP3    H255734   6.525   6.502  16.454  0.1706 -0.0979  0.6447
11415TIP3   OH255735   4.328   2.590   5.106 -0.0072 -0.2440 -1.4106
11415TIP3    H155736   4.321   2.674   5.061  1.5208  0.1269 -1.0084
11415TIP3    H255737   4.416   2.558   5.085  0.0252 -0.9753 -0.2653
11416TIP3   OH255738   5.928   5.312   5.235  0.2815 -0.2523 -0.1544
11416TIP3    H155739   5.857   5.359   5.277  0.3356  1.4406 -1.7792
11416TIP3    H255740   5.885   5.248   5.179  0.1603 -1.2036  0.9931
11417TIP3   OH255741   4.192   4.451   3.762 -1.3020 -0.6379  0.3414
11417TIP3    H155742   4.263   4.390   3.782  0.3364  1.0105 -0.1409
11417TIP3    H255743   4.175   4.438   3.669 -0.6797 -0.1338  0.1454
11418TIP3   OH255744   4.133   1.655   0.677 -0.1704  0.0324  0.1216
11418TIP3    H155745   4.186   1.705   0.614  0.2581  0.0688  0.5057
11418TIP3    H255746   4.183   1.659   0.758 -0.0223 -1.2307  0.0982
11419TIP3   OH255747   4.244   6.766  13.726 -0.6892  0.4158  0.1455
11419TIP3    H155748   4.184   6.698  13.757  0.6545 -0.6256  0.5175
11419TIP3    H255749   4.276   6.808  13.806 -0.5962  0.6876 -0.0327
11420TIP3   OH255750   3.082   3.606   3.176  0.5156 -0.0430 -0.1403
11420TIP3    H155751   3.016   3.547   3.212 -0.2989  0.3210 -1.0360
11420TIP3    H255752   3.108   3.566   3.093 -0.3616  1.0640 -0.9721
11421TIP3   OH255753   2.547   5.089   0.420  0.5206  0.2484 -0.0679
11421TIP3    H155754   2.569   5.180   0.439 -0.6307  0.5482 -0.0659
11421TIP3    H255755   2.614   5.060   0.358  0.5215  1.2985 -0.5694
11422TIP3   OH255756   6.460   0.792   2.211 -0.3723  0.0673  0.1407
11422TIP3    H155757   6.481   0.829   2.126  0.6309 -1.6337 -0.4101
11422TIP3    H255758   6.471   0.865   2.272  0.3150  0.9697 -1.0088
11423TIP3   OH255759   0.337   1.050  15.940 -0.1543 -0.6738  0.3782
11423TIP3    H155760   0.401   1.107  15.897  0.6212 -0.4429  1.7731
11423TIP3    H255761   0.387   0.972  15.964 -0.6583 -0.9473  0.5538
11424TIP3   OH255762   0.151   5.531  16.695 -0.6092  0.3579 -0.0579
11424TIP3    H155763   0.192   5.605  16.649  1.6463 -1.8568 -1.8569
11424TIP3    H255764   0.078   5.506  16.639 -0.6981  0.5361 -0.0220
11425TIP3   OH255765   6.843   4.717  10.342  0.0530  0.1208  0.2625
11425TIP3    H155766   6.766   4.671  10.310  1.2530 -0.9875 -1.2173
11425TIP3    H255767   6.836   4.805  10.305 -0.2023 -0.1696 -0.3913
11426TIP3   OH255768   2.697   5.866   5.333  0.4526 -0.5868 -0.2832
11426TIP3    H155769   2.697   5.880   5.239  0.4346 -2.0643 -0.5169
11426TIP3    H255770   2.650   5.784   5.346 -0.6379  0.2084  1.1223
11427TIP3   OH255771   1.142   5.750   5.891 -0.5368  0.3415  0.4285
11427TIP3    H155772   1.147   5.707   5.806  0.3550  0.9100  0.1856
11427TIP3    H255773   1.188   5.691   5.951 -1.2956 -0.1322  0.5617
11428TIP3   OH255774   5.168   6.224  16.206 -0.4312 -0.3985  0.0824
11428TIP3    H155775   5.263   6.208  16.204 -0.2012  0.6320  1.4391
11428TIP3    H255776   5.138   6.201  16.118  1.3430  0.7794 -0.8884
11429TIP3   OH255777   6.667   3.476   3.201  0.2997  0.4435  0.4875
11429TIP3    H155778   6.579   3.502   3.230  0.0866  1.3364 -0.8589
11429TIP3    H255779   6.694   3.546   3.142  0.9470 -0.9790 -0.9804
11430TIP3   OH255780   5.157   3.909   2.948 -0.3486 -0.0626 -0.0902
11430TIP3    H155781   5.171   3.974   3.017  0.2477  0.0939 -0.3489
11430TIP3    H255782   5.220   3.839   2.967 -0.7277 -0.3894 -0.0259
11431TIP3   OH255783   5.595   3.268   4.527 -0.0913 -0.2825  0.1621
11431TIP3    H155784   5.612   3.342   4.469  0.2731 -0.5076 -0.0198
11431TIP3    H255785   5.561   3.199   4.469 -0.5251 -0.2258  0.3452
11432TIP3   OH255786   0.010   6.131  12.333 -0.5278  0.1100  0.4747
11432TIP3    H155787  -0.050   6.075  12.381 -0.7639 -1.3596 -1.4258
11432TIP3    H255788  -0.045   6.175  12.268  0.2854 -0.6515 -0.7671
11433TIP3   OH255789   4.298   0.160   4.263 -0.9172 -0.0684  0.4001
11433TIP3    H155790   4.373   0.107   4.290 -1.2254 -0.6481  0.1357
11433TIP3    H255791   4.222   0.116   4.302 -1.1609  0.2682  0.3127
11434TIP3   OH255792   5.040   6.249   1.748 -0.3251 -0.4321  0.1573
11434TIP3    H155793   5.105   6.274   1.813  1.0027  0.1584 -1.3480
11434TIP3    H255794   5.053   6.156   1.735  2.4436  0.1953 -2.3964
11435TIP3   OH255795   4.295   5.280   2.535 -0.2865 -0.4182 -0.3509
11435TIP3    H155796   4.302   5.257   2.628 -1.5635 -1.4056 -0.4685
11435TIP3    H255797   4.360   5.349   2.523 -0.1213 -0.2293  1.2925
11436TIP3   OH255798   2.742   2.487   1.383 -0.1153  0.6852 -0.0728
11436TIP3    H155799   2.746   2.469   1.477 -2.4561 -0.4564 -0.1197
11436TIP3    H255800   2.748   2.583   1.377  0.6001  0.7423  1.1707
11437TIP3   OH255801   5.944   0.066  16.524 -0.2720  0.2916  0.6399
11437TIP3    H155802   5.944   0.090  16.432 -0.8229  0.3221  0.6423
11437TIP3    H255803   5.950   0.150  16.571  1.8646  0.1896  0.6415
11438TIP3   OH255804   4.095   6.130  14.982 -0.2098  0.2623  0.2598
11438TIP3    H155805   4.063   6.058  15.036  0.1615  0.2126  0.4099
11438TIP3    H255806   4.073   6.103  14.892  0.4051 -0.2839  0.2709
11439TIP3   OH255807   2.007   3.663  10.696  0.0549 -0.2024  0.3250
11439TIP3    H155808   1.963   3.745  10.673  0.7954  0.0601 -0.1651
11439TIP3    H255809   1.935   3.601  10.711 -0.5060  0.4994  0.5973
11440TIP3   OH255810   4.695   1.669  13.813  0.2985 -0.2100  0.2557
11440TIP3    H155811   4.765   1.716  13.860  1.0962  0.3424 -1.4175
11440TIP3    H255812   4.701   1.701  13.723 -2.1146 -0.1888  0.0506
11441TIP3   OH255813   3.808   2.299  14.932 -0.0971  0.0307 -0.2534
11441TIP3    H155814   3.830   2.219  14.980 -2.0445  1.1201  2.8039
11441TIP3    H255815   3.756   2.269  14.858  2.5227 -1.7081 -1.5282
11442TIP3   OH255816   2.731   5.589  16.088 -0.8714 -0.5124  0.0032
11442TIP3    H155817   2.641   5.584  16.055 -0.9602 -1.5160  0.3719
11442TIP3    H255818   2.721   5.588  16.183 -0.5507  1.1716  0.0802
11443TIP3   OH255819   4.122   2.344   0.479  0.1083  1.1039  0.3765
11443TIP3    H155820   4.121   2.373   0.570 -1.1177  0.0002  0.7551
11443TIP3    H255821   4.061   2.404   0.435  0.6817  1.6224  0.2804
11444TIP3   OH255822   2.396   5.807   4.622  0.2351 -0.1124 -0.2300
11444TIP3    H155823   2.407   5.716   4.593  0.7929 -0.7057  1.6989
11444TIP3    H255824   2.486   5.840   4.630  0.0698  0.2385  0.1859
11445TIP3   OH255825   1.784   4.564  16.385  0.0927  0.1021 -0.0390
11445TIP3    H155826   1.780   4.646  16.434 -0.7672 -0.8677  1.5895
11445TIP3    H255827   1.766   4.589  16.294  0.9079  1.8362  0.2373
11446TIP3   OH255828   4.593   3.375  10.772  0.6557  0.6603  0.4518
11446TIP3    H155829   4.659   3.437  10.739 -0.2990  1.0306 -0.8412
11446TIP3    H255830   4.509   3.413  10.745 -0.1383  0.3941  2.3885
11447TIP3   OH255831   4.522   2.819  14.291  0.7216  0.4860 -0.3258
11447TIP3    H155832   4.436   2.858  14.308  2.0204  2.9597  1.0770
11447TIP3    H255833   4.527   2.745  14.351 -0.6221 -0.0416 -0.8290
11448TIP3   OH255834   2.367   2.894  12.501 -1.1543 -0.1505 -0.4950
11448TIP3    H155835   2.397   2.855  12.418  0.0229  0.0221 -0.1683
11448TIP3    H255836   2.431   2.962  12.519 -0.8078 -0.8682  1.0901
11449TIP3   OH255837   4.504   2.910   2.683  0.2209 -0.6907 -0.5661
11449TIP3    H155838   4.485   2.816   2.692 -0.6373 -0.5496 -0.8356
11449TIP3    H255839   4.597   2.913   2.661  0.3837 -1.4519 -0.0072
11450TIP3   OH255840   6.599   2.399   5.681 -0.2046 -0.3434  0.5021
11450TIP3    H155841   6.654   2.464   5.727 -1.4421 -0.5507  2.3621
11450TIP3    H255842   6.519   2.446   5.660  0.7578  0.1211 -2.7220
11451TIP3   OH255843   1.055   4.489  13.924 -0.2266  0.3041  0.3212
11451TIP3    H155844   1.134   4.445  13.893  0.2204  1.8916 -0.9842
11451TIP3    H255845   0.986   4.423  13.918  0.3050 -0.1405 -2.0956
11452TIP3   OH255846   2.920   1.572  12.301  0.3005  0.4953 -0.2620
11452TIP3    H155847   2.873   1.494  12.275  1.1271  0.3384 -1.3687
11452TIP3    H255848   2.996   1.539  12.350  0.6361  0.5968 -0.7075
11453TIP3   OH255849   2.019   1.131  16.304  0.9042  0.0210 -0.6387
11453TIP3    H155850   2.089   1.189  16.274  1.8283 -0.0368  1.2877
11453TIP3    H255851   1.979   1.177  16.378 -0.8926 -0.1150 -1.4551
11454TIP3   OH255852   0.308   5.098  16.140 -0.2311 -0.1733 -0.0199
11454TIP3    H155853   0.265   5.183  16.148 -1.0637 -0.4824 -1.0461
11454TIP3    H255854   0.251   5.048  16.082 -0.4272 -1.8732  1.5514
11455TIP3   OH255855   6.803   3.858  13.857  0.0367  0.1843 -0.4104
11455TIP3    H155856   6.886   3.892  13.823  0.0999 -1.0885 -1.6243
11455TIP3    H255857   6.814   3.763  13.857 -1.7779 -0.0815 -1.6597
11456TIP3   OH255858   2.930   3.356  12.885  0.0038  0.0730 -0.4371
11456TIP3    H155859   2.982   3.435  12.900  1.3195 -0.5541 -1.5070
11456TIP3    H255860   2.932   3.309  12.969 -2.1849  1.8738  0.7602
11457TIP3   OH255861   1.514   2.251  13.591  0.7219 -0.0759 -0.5622
11457TIP3    H155862   1.452   2.323  13.582  0.8757 -0.0014 -1.0712
11457TIP3    H255863   1.559   2.268  13.674 -0.8555 -0.8610  0.5073
11458TIP3   OH255864   6.207   0.832   4.364  0.1130  0.3953 -0.0598
11458TIP3    H155865   6.242   0.839   4.276 -1.3207  1.9994 -0.5432
11458TIP3    H255866   6.257   0.895   4.416  3.3871 -2.8935  1.2449
11459TIP3   OH255867   2.091   5.685   1.575  0.5963  0.2032  0.0595
11459TIP3    H155868   2.043   5.761   1.608 -0.1670 -1.2891  2.6153
11459TIP3    H255869   2.171   5.722   1.538 -0.1376  2.3099  0.4489
11460TIP3   OH255870   3.568   6.534   4.079 -0.2099  0.3197 -0.0622
11460TIP3    H155871   3.607   6.475   4.144 -0.6928  0.7914  0.6773
11460TIP3    H255872   3.479   6.501   4.067 -0.4274  0.7929  0.2301
11461TIP3   OH255873   3.238   3.014  16.092 -0.1306  0.0983 -0.8997
11461TIP3    H155874   3.168   3.070  16.127 -0.1775 -0.4188 -0.1552
11461TIP3    H255875   3.319   3.060  16.114 -0.1524 -0.2964  0.0461
11462TIP3   OH255876   0.372   6.818   0.179  0.4256  0.3381  0.0544
11462TIP3    H155877   0.304   6.781   0.236  0.4972 -0.8097 -0.5661
11462TIP3    H255878   0.443   6.753   0.181 -0.2552 -0.6079 -2.6599
11463TIP3   OH255879   4.538   2.394  13.006  0.4861  0.4211 -0.5450
11463TIP3    H155880   4.611   2.400  12.944  0.4362 -1.4344 -0.8428
11463TIP3    H255881   4.580   2.375  13.090  0.4814  1.9302 -0.1670
11464TIP3   OH255882   4.443   1.478   4.545  0.4479 -0.0136 -0.0966
11464TIP3    H155883   4.503   1.523   4.604 -1.3737  0.5874  1.3802
11464TIP3    H255884   4.371   1.449   4.601 -1.5959  0.9599 -2.0489
11465TIP3   OH255885   1.882   4.242  12.621 -0.0947 -0.2699 -0.5367
11465TIP3    H155886   1.925   4.241  12.706 -0.6124  1.8468 -0.1866
11465TIP3    H255887   1.934   4.183  12.566  0.9443 -0.7365  0.9128
11466TIP3   OH255888   1.275   0.821  12.982 -0.0519 -0.2133 -0.1467
11466TIP3    H155889   1.272   0.727  12.962 -0.3246 -0.0394 -0.9263
11466TIP3    H255890   1.337   0.827  13.055  2.9200 -0.6172 -2.4180
11467TIP3   OH255891   3.080   5.654  14.613 -0.0627  0.0977  0.1522
11467TIP3    H155892   3.152   5.605  14.574  0.2634  0.8062 -0.1746
11467TIP3    H255893   3.122   5.731  14.652 -0.5661  0.1734  0.5581
11468TIP3   OH255894   5.324   4.122   0.892  0.9619  0.8168  1.1452
11468TIP3    H155895   5.294   4.166   0.813  2.3695  0.0233  0.1265
11468TIP3    H255896   5.417   4.145   0.899  1.0620  0.2029  2.1005
11469TIP3   OH255897   2.832   4.939   4.113  0.3315  0.2499  0.0430
11469TIP3    H155898   2.822   4.851   4.077 -1.6243  1.1102 -1.7343
11469TIP3    H255899   2.752   4.952   4.165 -0.4501  1.6425 -1.3991
11470TIP3   OH255900   0.063   6.558  11.696  0.3486 -0.2122  0.0276
11470TIP3    H155901   0.068   6.522  11.607  2.7314 -0.8072  0.3148
11470TIP3    H255902   0.129   6.627  11.697 -1.2552  1.3855  0.7236
11471TIP3   OH255903   1.731   6.387   5.310 -0.2194 -0.0261 -0.1794
11471TIP3    H155904   1.676   6.458   5.277  0.8691  0.6071 -0.6715
11471TIP3    H255905   1.693   6.365   5.395 -1.9325 -0.4123 -1.0113
11472TIP3   OH255906   0.190   0.959   0.488 -0.2826 -0.3592 -0.0391
11472TIP3    H155907   0.146   1.029   0.536 -2.0825  0.0021 -2.0520
11472TIP3    H255908   0.265   1.002   0.447 -1.6401  0.6071 -1.6504
11473TIP3   OH255909   2.710   1.885   2.267  0.1679  0.5860  0.7018
11473TIP3    H155910   2.683   1.959   2.323 -0.9171  0.4239  0.4071
11473TIP3    H255911   2.745   1.821   2.329 -0.0680  0.8265  1.0936
11474TIP3   OH255912   5.264   4.820  15.134  0.0302  0.0086 -0.1463
11474TIP3    H155913   5.230   4.731  15.124 -0.9208  0.3482 -0.1260
11474TIP3    H255914   5.199   4.875  15.089  0.3748  0.7335  0.2246
11475TIP3   OH255915   5.034   5.550   4.649 -0.1807 -0.6570  0.3006
11475TIP3    H155916   5.124   5.520   4.661 -0.1954 -0.2765  1.5481
11475TIP3    H255917   4.983   5.499   4.712 -0.4693  0.6947  1.2201
11476TIP3   OH255918   5.518   3.405  16.962  0.0186 -0.1223  0.4260
11476TIP3    H155919   5.547   3.484  16.917 -2.5775  1.0276  0.5790
11476TIP3    H255920   5.488   3.437  17.048  0.4190 -1.5340  1.1138
11477TIP3   OH255921   0.986   2.740  10.970 -0.0031 -0.5765  0.3046
11477TIP3    H155922   0.936   2.787  10.904  0.8788  0.6395  0.4684
11477TIP3    H255923   0.920   2.697  11.024 -0.8058 -0.0430 -0.2258
11478TIP3   OH255924   4.950   3.805  14.863 -0.1875 -0.0244  0.4890
11478TIP3    H155925   4.964   3.711  14.866  0.8039 -0.0335 -2.0872
11478TIP3    H255926   5.036   3.842  14.843 -0.9057  1.2607 -0.4072
11479TIP3   OH255927   5.630   3.133   4.993  0.0979 -0.3947  0.4019
11479TIP3    H155928   5.667   3.215   4.961 -1.1694  0.4766  1.0832
11479TIP3    H255929   5.579   3.158   5.070  1.6268 -2.1618  2.1013
11480TIP3   OH255930   3.629   2.979   0.855 -0.4818  0.5849 -0.0254
11480TIP3    H155931   3.632   2.966   0.950  0.5314 -0.2910 -0.1601
11480TIP3    H255932   3.611   2.892   0.820 -1.3356  0.9910 -0.6242
11481TIP3   OH255933   4.049   2.184   4.833 -0.5860  0.2502 -0.3947
11481TIP3    H155934   4.107   2.206   4.760 -0.6922 -1.6739 -1.1178
11481TIP3    H255935   4.032   2.268   4.877  2.3899  0.9628 -0.3913
11482TIP3   OH255936   2.981   3.486   5.589  0.2802 -0.5423 -0.2807
11482TIP3    H155937   2.980   3.575   5.552  0.3109 -0.4779 -0.1292
11482TIP3    H255938   2.942   3.496   5.676 -0.8846 -0.8986 -0.7380
11483TIP3   OH255939   0.789   6.823  14.923 -1.0143 -0.0731  0.1889
11483TIP3    H155940   0.717   6.864  14.874  1.2131  1.5653 -1.9153
11483TIP3    H255941   0.843   6.781  14.856  0.0671 -1.2412  1.7206
11484TIP3   OH255942   4.757   2.594   3.013 -0.7321 -0.1281  0.3584
11484TIP3    H155943   4.829   2.543   2.977 -0.5027 -0.3029  1.0422
11484TIP3    H255944   4.799   2.655   3.074 -0.9926  0.9359 -0.4937
11485TIP3   OH255945   0.679   2.041  12.805  0.2396 -0.1973 -0.9386
11485TIP3    H155946   0.648   2.130  12.825 -0.4088  0.5425 -4.5823
11485TIP3    H255947   0.599   1.992  12.786  0.4470 -2.1210  2.3266
11486TIP3   OH255948   5.160   3.416  12.582 -0.2239 -0.2495  0.1344
11486TIP3    H155949   5.249   3.438  12.608 -0.1411  0.9263 -1.0369
11486TIP3    H255950   5.107   3.437  12.659  0.1533  2.0486 -0.1363
11487TIP3   OH255951   4.698   0.896   4.520 -0.1259 -0.4194  0.3056
11487TIP3    H155952   4.778   0.846   4.533  0.9070  1.2933  0.9028
11487TIP3    H255953   4.701   0.924   4.429  0.2225  0.0446  0.4538
11488TIP3   OH255954   4.878   1.682   3.039  0.1924  0.1191  0.8572
11488TIP3    H155955   4.946   1.617   3.020 -0.2602 -0.3243  0.7477
11488TIP3    H255956   4.820   1.680   2.963  1.1258  1.9100  0.0384
11489TIP3   OH255957   2.383   6.607   3.129 -0.0067 -0.3277  0.0038
11489TIP3    H155958   2.450   6.610   3.197  0.0260  0.8998 -0.0681
11489TIP3    H255959   2.371   6.513   3.112  1.7345 -0.5763 -0.0415
11490TIP3   OH255960   4.366   1.938  14.748 -0.0068  0.0830 -0.3337
11490TIP3    H155961   4.305   1.990  14.697 -0.2987  1.9010  1.6858
11490TIP3    H255962   4.423   2.003  14.790  0.8356 -1.3480  0.8459
11491TIP3   OH255963   3.181   6.273   1.367  0.2670 -0.0350  0.1702
11491TIP3    H155964   3.127   6.352   1.357  0.4757  0.1979  0.8333
11491TIP3    H255965   3.263   6.305   1.405  1.1013 -0.3087 -1.3121
11492TIP3   OH255966   3.614   1.033   0.430  0.1062 -0.0752 -0.0667
11492TIP3    H155967   3.615   0.948   0.474 -0.6957  0.2581  0.6506
11492TIP3    H255968   3.702   1.067   0.441  0.8285 -1.3659 -1.5374
11493TIP3   OH255969   4.771   4.130  14.539  0.0575 -0.0542  0.0923
11493TIP3    H155970   4.751   4.138  14.446 -0.4713 -0.4528  0.1627
11493TIP3    H255971   4.704   4.070  14.573 -0.0239  0.4336  0.8170
11494TIP3   OH255972   1.078   5.766  16.314 -0.3965 -0.5313 -0.5320
11494TIP3    H155973   1.017   5.781  16.242  0.1679 -1.7268 -1.2835
11494TIP3    H255974   1.025   5.778  16.393 -0.8776  1.4608 -1.0989
11495TIP3   OH255975   4.788   0.574   4.915 -0.0677  0.2613  0.0324
11495TIP3    H155976   4.854   0.515   4.950  0.1481  0.2386 -0.4041
11495TIP3    H255977   4.750   0.617   4.992  0.2511  0.0605  0.3017
11496TIP3   OH255978   4.527   0.106   4.634 -0.4267  0.2714  0.5242
11496TIP3    H155979   4.605   0.066   4.673  0.2603 -0.0351 -1.0817
11496TIP3    H255980   4.540   0.097   4.539 -1.5620  1.8389  0.1756
11497TIP3   OH255981   0.181   4.342  12.946  0.5952 -0.2990  0.5795
11497TIP3    H155982   0.275   4.321  12.946  0.1410 -2.5048  0.8176
11497TIP3    H255983   0.155   4.333  12.854  0.3010 -1.3427  0.7530
11498TIP3   OH255984   3.415   1.296   5.567 -0.2632 -0.7043 -0.5221
11498TIP3    H155985   3.345   1.361   5.563  0.8378  0.4853 -1.6673
11498TIP3    H255986   3.490   1.344   5.603 -0.1352 -2.0622  1.1128
11499TIP3   OH255987   2.987   5.903   5.737  0.6660 -0.1162 -0.2750
11499TIP3    H155988   3.012   5.988   5.699  0.0819  0.1029 -0.1827
11499TIP3    H255989   3.019   5.908   5.827 -1.5127  1.0235  0.5023
11500TIP3   OH255990   5.172   1.493  14.420  0.3050 -0.2017 -0.3859
11500TIP3    H155991   5.235   1.535  14.478 -1.1311  0.8936  0.4327
11500TIP3    H255992   5.221   1.475  14.339  1.6981  0.4086  0.3095
11501TIP3   OH255993   5.524   5.093   2.473 -0.5601  0.0793 -0.4108
11501TIP3    H155994   5.528   5.015   2.528  0.8607  1.3073  1.3246
11501TIP3    H255995   5.451   5.144   2.509 -0.0492  0.5778 -0.0627
11502TIP3   OH255996   1.750   4.304  14.167  0.1800 -0.0318  0.3623
11502TIP3    H155997   1.825   4.292  14.109 -0.8687 -0.4728 -0.9502
11502TIP3    H255998   1.731   4.398  14.162 -0.2815 -0.1605 -0.5233
11503TIP3   OH255999   4.002   2.851   5.042  0.2270  0.2070 -0.2971
11503TIP3    H156000   3.981   2.855   4.948 -0.5502  1.0795 -0.1092
11503TIP3    H256001   4.066   2.921   5.055 -1.7968  2.0613  0.2924
11504TIP3   OH256002   0.459   3.257   0.501 -0.2835 -0.2166 -0.2841
11504TIP3    H156003   0.407   3.180   0.478 -0.1893 -0.8850  1.5388
11504TIP3    H256004   0.400   3.331   0.485 -0.0044 -0.5022 -3.1194
11505TIP3   OH256005   4.891   3.395  16.058  0.1679 -0.4978 -0.3378
11505TIP3    H156006   4.808   3.350  16.047 -0.2591  0.1246  0.2552
11505TIP3    H256007   4.875   3.460  16.127  0.9639  0.0493 -0.6438
11506TIP3   OH256008   4.267   1.562  13.452  0.8662  0.0348  0.1855
11506TIP3    H156009   4.251   1.506  13.528  3.7024 -2.2667 -0.7171
11506TIP3    H256010   4.214   1.523  13.382  0.1674  0.6438  0.3653
11507TIP3   OH256011   1.013   6.463  15.303 -0.3726  0.2836  0.0360
11507TIP3    H156012   0.958   6.516  15.245  0.3249 -0.3294 -1.2218
11507TIP3    H256013   0.966   6.463  15.386 -2.4073 -0.3722 -1.0403
11508TIP3   OH256014   5.579   5.251  14.918  0.2630 -0.1579 -0.0674
11508TIP3    H156015   5.517   5.224  14.986  0.3101 -0.0073  0.0340
11508TIP3    H256016   5.526   5.261  14.840  0.2046 -0.3074 -0.0478
11509TIP3   OH256017   4.678   2.373  15.413 -0.0221 -0.2311 -0.1933
11509TIP3    H156018   4.721   2.302  15.365  0.5480 -0.7818  1.0782
11509TIP3    H256019   4.651   2.333  15.496  1.9731  1.4221  1.3619
11510TIP3   OH256020   1.944   3.017  15.897 -0.8505 -0.2880 -0.2187
11510TIP3    H156021   1.946   2.951  15.827  2.7098 -1.4151  0.7117
11510TIP3    H256022   2.000   3.088  15.865 -1.3673  0.4252  0.4278
11511TIP3   OH256023   3.842   6.501  14.501  0.0398  0.3916  0.1866
11511TIP3    H156024   3.814   6.473  14.588 -2.3950  1.9500  0.0005
11511TIP3    H256025   3.938   6.509  14.509  0.2142 -2.0822  1.8613
11512TIP3   OH256026   5.018   3.820   4.758  0.0651 -0.2797  0.2319
11512TIP3    H156027   4.982   3.748   4.705  1.1008 -0.9056  0.3470
11512TIP3    H256028   4.951   3.836   4.824 -0.2996 -0.9650  0.0437
11513TIP3   OH256029   5.928   5.745   2.891  0.3083  0.5253  0.3602
11513TIP3    H156030   5.872   5.681   2.849  1.3816 -0.3343  0.1850
11513TIP3    H256031   5.904   5.740   2.984 -0.7661  1.0912  0.1315
11514TIP3   OH256032   6.237   3.858  14.735  0.4695  0.3742 -0.1747
11514TIP3    H156033   6.206   3.848  14.825  1.9298 -0.3729  0.2911
11514TIP3    H256034   6.216   3.949  14.712  0.4657  0.7121  1.0808
11515TIP3   OH256035   0.817   4.501  12.842  0.4351  1.0143  0.0662
11515TIP3    H156036   0.763   4.525  12.767  1.3529 -0.9847 -1.3038
11515TIP3    H256037   0.888   4.447  12.806 -0.2471 -1.8661  2.5487
11516TIP3   OH256038   3.300   0.432   3.881  1.0418 -0.4307  0.0851
11516TIP3    H156039   3.393   0.453   3.891  0.5256  1.7752  0.7775
11516TIP3    H256040   3.266   0.428   3.970 -0.1699  2.2942 -0.1517
11517TIP3   OH256041   3.570   0.458   4.174 -0.5732  0.6802 -0.0754
11517TIP3    H156042   3.644   0.495   4.222 -1.4525  0.9477  1.1147
11517TIP3    H256043   3.599   0.370   4.148 -0.9073 -0.4859  3.1294
11518TIP3   OH256044   6.228   6.057  14.119 -0.8051  0.1898  0.1228
11518TIP3    H156045   6.198   6.029  14.032 -1.7885 -1.1339  0.8339
11518TIP3    H256046   6.235   6.152  14.113 -3.0901  0.3712 -0.7679
11519TIP3   OH256047   4.290   5.677   4.605  0.4824  0.6366  0.0787
11519TIP3    H156048   4.225   5.632   4.551  1.1014  0.1832 -0.3019
11519TIP3    H256049   4.368   5.683   4.549  0.5362  1.8463  0.2596
11520TIP3   OH256050   3.657   3.219  17.011 -0.0286  0.4484  0.3136
11520TIP3    H156051   3.720   3.290  16.996  0.3551 -0.2494 -1.6123
11520TIP3    H256052   3.581   3.242  16.958 -0.7322  0.4122  1.2718
11521TIP3   OH256053   4.836   4.488  16.377  0.2759  0.3358  0.2765
11521TIP3    H156054   4.804   4.401  16.351  0.5199  0.2404  0.2946
11521TIP3    H256055   4.765   4.548  16.352 -0.7901 -0.0836  2.0886
11522TIP3   OH256056   0.464   5.461  11.735  0.2048  0.2490  0.1730
11522TIP3    H156057   0.408   5.538  11.736 -0.5918 -0.3143 -0.0991
11522TIP3    H256058   0.404   5.387  11.736  0.9209 -0.3725 -0.8217
11523TIP3   OH256059   2.360   2.953   2.388  0.2871 -0.2400 -0.4661
11523TIP3    H156060   2.382   2.997   2.305  1.8854  1.4826  0.7889
11523TIP3    H256061   2.444   2.931   2.427 -0.4553 -1.6587  0.4138
11524TIP3   OH256062   6.824   3.924   2.628 -0.2842  0.6086  0.2973
11524TIP3    H156063   6.790   3.836   2.618 -0.9727  0.9761 -0.7833
11524TIP3    H256064   6.768   3.964   2.694  0.5223  0.0040  1.3615
11525TIP3   OH256065   1.367   0.080   6.074 -0.1220  0.1994 -0.4041
11525TIP3    H156066   1.287   0.048   6.115  0.1690 -2.4870 -1.6899
11525TIP3    H256067   1.432   0.082   6.145 -0.7484  0.1462  0.1773
11526TIP3   OH256068   5.649   1.221   6.326 -0.0768  0.0862  0.0075
11526TIP3    H156069   5.618   1.231   6.416 -2.2111  0.4928 -0.6966
11526TIP3    H256070   5.575   1.180   6.280  1.8175 -2.3182 -1.1025
11527TIP3   OH256071   5.546   1.608   1.132 -0.7307  0.4042  0.9212
11527TIP3    H156072   5.504   1.622   1.047 -1.1677  0.8296  1.2005
11527TIP3    H256073   5.640   1.611   1.114 -0.8190 -0.1542  0.3525
11528TIP3   OH256074   0.994   4.185   3.072  0.3061  0.1085 -0.0543
11528TIP3    H156075   1.013   4.091   3.080 -1.7955 -0.2798  1.2308
11528TIP3    H256076   0.901   4.188   3.051 -0.1903  1.9270  2.1117
11529TIP3   OH256077   5.481   0.264  13.105  0.3165  0.5328  0.3929
11529TIP3    H156078   5.518   0.180  13.078  0.0367  0.9815 -1.4929
11529TIP3    H256079   5.555   0.313  13.140  1.3845  1.0435 -2.3994
11530TIP3   OH256080   3.194   1.050   1.127  0.3988 -0.4082  0.2098
11530TIP3    H156081   3.116   1.004   1.158 -0.5378  0.5940 -0.5845
11530TIP3    H256082   3.187   1.137   1.165  1.9135 -0.7438  1.3226
11531TIP3   OH256083   2.443   1.042  12.345 -0.2723 -0.1620  1.1231
11531TIP3    H156084   2.397   0.958  12.340 -1.4091  0.4169  1.6063
11531TIP3    H256085   2.451   1.059  12.439 -0.6562  0.5844  1.0292
11532TIP3   OH256086   5.994   4.777  13.520 -0.3587  1.5055 -0.0218
11532TIP3    H156087   6.089   4.781  13.509 -0.4818  2.0198 -0.9797
11532TIP3    H256088   5.972   4.858  13.566 -0.3828  1.5921 -0.1861
11533TIP3   OH256089   3.780   5.760  15.243 -0.1233  0.4700  0.6814
11533TIP3    H156090   3.857   5.704  15.258 -0.2951  0.0062 -0.1075
11533TIP3    H256091   3.708   5.714  15.287 -0.6809 -1.0253 -1.6112
11534TIP3   OH256092   4.617   0.414   0.677  0.2292  0.2404 -0.1944
11534TIP3    H156093   4.710   0.432   0.663  0.5427 -1.1379 -0.0411
11534TIP3    H256094   4.609   0.399   0.771 -0.3726  1.4562 -0.0364
11535TIP3   OH256095   3.571   3.234  12.050  0.5344 -0.5404 -0.0737
11535TIP3    H156096   3.500   3.172  12.035 -0.5354  0.8695 -1.1244
11535TIP3    H256097   3.604   3.254  11.963  0.1973  1.0899  0.1473
11536TIP3   OH256098   3.638   2.794  16.922  0.2113  0.0639 -0.1090
11536TIP3    H156099   3.629   2.749  17.006  1.7363  1.5470  0.9261
11536TIP3    H256100   3.715   2.755  16.882 -0.6441 -0.7983 -0.9620
11537TIP3   OH256101   6.322   0.529   0.878 -0.4983  0.2623  0.5379
11537TIP3    H156102   6.309   0.520   0.972 -1.9134  2.1155  0.5575
11537TIP3    H256103   6.270   0.605   0.853  1.1184  0.7893 -1.4921
11538TIP3   OH256104   2.925   5.694   0.684  0.0793  0.1988 -0.1073
11538TIP3    H156105   2.986   5.700   0.610  2.3616 -3.2354  1.2281
11538TIP3    H256106   2.843   5.663   0.644  0.5824  0.4620 -1.4165
11539TIP3   OH256107   1.306   4.604  14.990  0.4419  0.3154  0.3535
11539TIP3    H156108   1.252   4.578  14.915 -0.4607  1.3289  0.6262
11539TIP3    H256109   1.245   4.646  15.050  1.4303  0.9102  0.9668
11540TIP3   OH256110   4.264   5.127  13.748 -0.5391  0.0821  0.2376
11540TIP3    H156111   4.246   5.035  13.766 -0.2963 -0.0074  0.0291
11540TIP3    H256112   4.288   5.129  13.655  0.8631  0.1382  0.5801
11541TIP3   OH256113   3.145   3.223   5.608 -1.0197  0.1998 -0.4602
11541TIP3    H156114   3.151   3.177   5.524 -0.4832 -0.7004  0.0522
11541TIP3    H256115   3.074   3.178   5.655  0.1038 -0.7327  0.4018
11542TIP3   OH256116   6.169   6.338  16.437  0.3676  0.0744 -0.4251
11542TIP3    H156117   6.161   6.249  16.403 -2.6687 -0.7998  2.0484
11542TIP3    H256118   6.088   6.382  16.409  1.7394  2.0805 -1.4940
11543TIP3   OH256119   2.597   2.542   4.748 -0.0746 -0.2189 -0.9389
11543TIP3    H156120   2.679   2.509   4.785 -0.5985 -1.7610 -1.0832
11543TIP3    H256121   2.552   2.464   4.716 -0.4778  0.8720 -3.1737
11544TIP3   OH256122   5.960   0.774  15.384 -0.1840  0.4666 -0.3230
11544TIP3    H156123   5.876   0.810  15.412 -0.2028 -0.4529  0.8601
11544TIP3    H256124   6.006   0.849  15.347 -0.4886  1.6146  1.4720
11545TIP3   OH256125   3.844   1.949  14.216 -0.0888 -0.4722  0.0096
11545TIP3    H156126   3.762   1.978  14.256  0.0979 -0.5884  0.4948
11545TIP3    H256127   3.844   1.986  14.128 -1.8147 -2.4636 -0.9210
11546TIP3   OH256128   0.004   3.701  15.211  1.0207 -0.8658  0.3098
11546TIP3    H156129   0.020   3.635  15.143  2.4263 -1.0263  0.7683
11546TIP3    H256130   0.090   3.738  15.230  1.0093 -2.1269  3.3241
11547TIP3   OH256131   1.576   4.600   3.135 -0.2569 -0.2472 -0.2812
11547TIP3    H156132   1.499   4.656   3.123 -0.2806 -0.3561 -0.6514
11547TIP3    H256133   1.568   4.532   3.067  0.4098  0.0179 -0.6428
11548TIP3   OH256134   0.984   6.605   2.725 -0.1531 -0.7417  0.0502
11548TIP3    H156135   0.901   6.560   2.742 -2.4759  2.1911 -2.3198
11548TIP3    H256136   0.981   6.683   2.780  0.2331  0.1648 -1.1539
11549TIP3   OH256137   1.668   4.967  12.670 -0.1303  0.3347  0.1356
11549TIP3    H156138   1.735   5.012  12.720  0.5034 -0.0841 -0.3313
11549TIP3    H256139   1.697   4.876  12.665 -0.5685  0.2110 -0.3393
11550TIP3   OH256140   1.783   5.212  14.323  0.0556 -0.0056 -0.1746
11550TIP3    H156141   1.752   5.281  14.264  0.3494 -1.0779 -1.6162
11550TIP3    H256142   1.844   5.258  14.382 -0.8367  1.2310 -0.1801
11551TIP3   OH256143   1.507   5.488  12.886  0.3465 -0.0684 -0.4091
11551TIP3    H156144   1.594   5.528  12.880  0.8453 -0.5070  2.3966
11551TIP3    H256145   1.484   5.494  12.979 -1.5053 -2.2753 -0.6317
11552TIP3   OH256146   2.647   2.463   6.179 -0.2893  0.1561  0.2129
11552TIP3    H156147   2.734   2.444   6.144  0.0745 -0.1903  1.2732
11552TIP3    H256148   2.625   2.549   6.142  0.1828 -0.0783 -0.6423
11553TIP3   OH256149   0.309   4.996  15.286 -0.3518 -0.2195 -0.4323
11553TIP3    H156150   0.268   4.912  15.304  1.0052 -1.0383 -1.0497
11553TIP3    H256151   0.260   5.030  15.211 -2.6792  0.8684  1.4226
11554TIP3   OH256152   0.622   4.185   2.596 -0.2089 -0.1683  0.4535
11554TIP3    H156153   0.642   4.249   2.665  0.3487  0.8937 -0.6525
11554TIP3    H256154   0.707   4.162   2.559 -0.5792  0.3121 -0.7569
11555TIP3   OH256155   2.192   4.217  11.118  0.2367  0.1940 -0.4509
11555TIP3    H156156   2.195   4.299  11.167  1.5796 -0.4581  0.6134
11555TIP3    H256157   2.267   4.221  11.059  1.1679 -0.8423  0.6134
11556TIP3   OH256158   1.618   3.129   0.767  0.0742 -0.3105  0.2436
11556TIP3    H156159   1.626   3.087   0.682 -1.8523 -0.3315  0.0260
11556TIP3    H256160   1.706   3.124   0.805  1.2008  0.5034 -2.0773
11557TIP3   OH256161   3.704   5.509   1.699 -0.1610  0.4964 -0.3630
11557TIP3    H156162   3.770   5.475   1.640 -0.7917 -0.1870 -0.6851
11557TIP3    H256163   3.650   5.434   1.721 -0.1898  0.8254  0.7586
11558TIP3   OH256164   2.816   2.608   2.664 -0.0486  0.7427  0.2744
11558TIP3    H156165   2.788   2.651   2.745 -1.0722  0.6920 -0.0272
11558TIP3    H256166   2.855   2.677   2.612  0.1433  0.8849  0.6053
11559TIP3   OH256167   5.534   2.128  13.354 -0.2811 -0.1941 -0.2144
11559TIP3    H156168   5.483   2.052  13.327 -0.9374 -1.1826  3.3158
11559TIP3    H256169   5.522   2.133  13.449  1.3831  3.1504 -0.0225
11560TIP3   OH256170   0.725   0.104   3.095  0.1211 -0.0942  0.4766
11560TIP3    H156171   0.669   0.175   3.128  0.9172  0.3424  0.9036
11560TIP3    H256172   0.813   0.139   3.099  0.3390 -0.3916 -1.2196
11561TIP3   OH256173   6.688   3.588   5.647  0.6381  0.5523 -0.3296
11561TIP3    H156174   6.650   3.500   5.648 -1.6535  1.3841  2.8717
11561TIP3    H256175   6.646   3.631   5.572  0.1988 -0.4738 -0.6965
11562TIP3   OH256176   1.609   4.381   4.000 -0.2591  0.0575  0.7984
11562TIP3    H156177   1.527   4.381   3.951  0.8573 -0.3277 -1.1686
11562TIP3    H256178   1.637   4.472   3.998  0.3235 -0.1323 -0.2712
11563TIP3   OH256179   6.215   2.536  16.230 -0.1696 -0.3865  0.6215
11563TIP3    H156180   6.244   2.460  16.280 -0.9567 -1.6542 -0.7626
11563TIP3    H256181   6.173   2.593  16.295  1.1244 -0.7338  1.8166
11564TIP3   OH256182   5.724   5.232   2.362  0.1650  0.8035  0.4888
11564TIP3    H156183   5.789   5.214   2.429 -0.7187 -2.2616  0.6693
11564TIP3    H256184   5.646   5.184   2.390 -1.4186  2.3738 -0.9518
11565TIP3   OH256185   0.750   1.263   0.807 -0.1919 -0.2132  0.2573
11565TIP3    H156186   0.725   1.186   0.858 -1.2668 -0.2148 -0.2405
11565TIP3    H256187   0.686   1.330   0.831 -0.8653 -0.2780 -1.2155
11566TIP3   OH256188   4.797   5.481   5.350  0.4515  1.0213  0.5269
11566TIP3    H156189   4.733   5.504   5.418 -0.9809 -1.0623 -0.0070
11566TIP3    H256190   4.756   5.508   5.268  1.0882  1.3488  0.3159
11567TIP3   OH256191   2.223   2.825   5.343 -0.2809  0.4592 -0.1781
11567TIP3    H156192   2.207   2.877   5.263 -0.4273  0.7869  0.0599
11567TIP3    H256193   2.282   2.880   5.395  0.4672 -0.1111 -0.4105
11568TIP3   OH256194   5.445   6.213  15.192 -0.5893  0.0493 -0.5450
11568TIP3    H156195   5.513   6.148  15.179 -1.2948 -0.4045 -2.2033
11568TIP3    H256196   5.388   6.176  15.260  0.7094  0.3958  0.7809
11569TIP3   OH256197   1.117   0.418   6.831  0.3691 -0.4463 -0.2300
11569TIP3    H156198   1.047   0.479   6.855  2.7635  2.2245  0.6414
11569TIP3    H256199   1.136   0.438   6.739  3.3076  2.8047  0.8513
11570TIP3   OH256200   4.945   6.736   4.466 -0.1582 -0.3177  0.6643
11570TIP3    H156201   4.911   6.752   4.554 -0.7164  1.1544  0.2256
11570TIP3    H256202   5.030   6.694   4.480  0.9712  2.1585  2.0502
11571TIP3   OH256203   5.874   2.807  16.940  0.2078  0.3252 -0.2557
11571TIP3    H156204   5.906   2.825  17.029 -0.3306  2.5951 -0.4500
11571TIP3    H256205   5.791   2.761  16.954 -0.5306  1.7897  0.5236
11572TIP3   OH256206   3.491   0.641   4.448  0.6001  1.2529  0.3018
11572TIP3    H156207   3.474   0.604   4.362  1.5781 -1.7822  1.2417
11572TIP3    H256208   3.583   0.669   4.445  0.2996  2.2282  0.0370
11573TIP3   OH256209   4.802   0.273  10.805  0.1625 -0.0923 -0.0679
11573TIP3    H156210   4.869   0.207  10.824  0.1587  0.0802  0.5896
11573TIP3    H256211   4.720   0.223  10.799  0.3165 -0.2781 -0.6640
11574TIP3   OH256212   0.621   6.352  13.872  0.1879  0.0348 -0.6778
11574TIP3    H156213   0.631   6.440  13.835  2.3459 -0.0471 -0.3654
11574TIP3    H256214   0.631   6.293  13.798  2.2457 -0.0377 -0.4000
11575TIP3   OH256215   1.817   1.076   4.233  0.1104 -0.2525  0.6687
11575TIP3    H156216   1.790   1.168   4.238  0.1575 -0.2822  1.6308
11575TIP3    H256217   1.735   1.027   4.239  0.1226 -0.2876  0.5621
11576TIP3   OH256218   2.723   5.553  11.308  0.1585 -0.9182 -0.0838
11576TIP3    H156219   2.627   5.548  11.304  0.0771  0.2459  0.0238
11576TIP3    H256220   2.745   5.516  11.394 -0.2541 -0.5573  0.1820
11577TIP3   OH256221   0.504   1.316   3.108 -0.0691 -0.7841  0.6413
11577TIP3    H156222   0.436   1.266   3.062 -0.5653  0.5679 -0.1816
11577TIP3    H256223   0.465   1.404   3.118  1.4803 -0.0261  0.2941
11578TIP3   OH256224   0.438   4.234  10.322  0.4573 -0.2828 -0.4977
11578TIP3    H156225   0.504   4.302  10.336  0.8128 -0.6013 -0.6245
11578TIP3    H256226   0.488   4.154  10.307  0.1018 -0.2293 -2.2739
11579TIP3   OH256227   3.152   4.827  12.542 -0.0339 -0.0743 -0.2295
11579TIP3    H156228   3.214   4.898  12.524  0.5972 -0.5744 -0.0275
11579TIP3    H256229   3.162   4.767  12.468 -0.8615  0.2410 -0.6091
11580TIP3   OH256230   3.791   5.200  14.021  0.4640  0.3394 -0.2400
11580TIP3    H156231   3.783   5.239  13.934  0.9837  0.1480 -0.3756
11580TIP3    H256232   3.767   5.108  14.009  0.8908  0.2282 -0.2569
11581TIP3   OH256233   2.685   2.889   4.801 -0.0470 -0.7266  0.0661
11581TIP3    H156234   2.706   2.840   4.880  1.2845  0.3294  0.4112
11581TIP3    H256235   2.611   2.944   4.825  1.4990  0.9530  1.2071
11582TIP3   OH256236   4.305   4.873   1.804 -0.1776  0.5753  0.5228
11582TIP3    H156237   4.228   4.901   1.853  0.8137  3.2189  0.7389
11582TIP3    H256238   4.277   4.794   1.758 -1.8201 -0.7976  3.5607
11583TIP3   OH256239   6.738   2.355   2.121  0.1627 -0.0425  0.1696
11583TIP3    H156240   6.665   2.404   2.159 -0.7265  1.3027 -2.9124
11583TIP3    H256241   6.815   2.409   2.139  0.0624 -0.2653  1.3727
11584TIP3   OH256242   3.306   1.621   0.993  0.1479  0.4367 -1.0071
11584TIP3    H156243   3.301   1.673   0.912  1.4526 -0.8840 -1.9990
11584TIP3    H256244   3.266   1.677   1.060  0.3879  2.1981 -2.2523
11585TIP3   OH256245   0.631   5.639   2.551 -0.3339 -0.6017  0.6509
11585TIP3    H156246   0.626   5.677   2.639  1.6177 -0.7472  0.8827
11585TIP3    H256247   0.722   5.655   2.524 -1.1463  0.3712 -1.7766
11586TIP3   OH256248   5.453   4.378   0.388 -0.4067 -0.1982 -0.3531
11586TIP3    H156249   5.491   4.450   0.438 -0.6301  0.3697 -0.9777
11586TIP3    H256250   5.431   4.417   0.303  1.5406 -1.5264 -1.5495
11587TIP3   OH256251   0.397   0.255   5.527  0.0441 -0.4371  0.0842
11587TIP3    H156252   0.487   0.284   5.543 -0.7589  1.4676  1.5972
11587TIP3    H256253   0.364   0.230   5.613 -1.1757 -0.1226 -0.2696
11588TIP3   OH256254   2.860   6.221   1.609  0.2362 -0.1897 -0.6264
11588TIP3    H156255   2.930   6.180   1.659  1.0807  0.2117 -1.4511
11588TIP3    H256256   2.828   6.151   1.551  0.2027 -0.2669 -0.5156
11589TIP3   OH256257   5.681   4.314  12.672  0.2192 -0.4215  0.1648
11589TIP3    H156258   5.751   4.374  12.647  1.2377 -1.0363  1.4027
11589TIP3    H256259   5.713   4.272  12.752 -0.3577 -2.7715 -0.7669
11590TIP3   OH256260   2.428   3.130   5.807 -0.4789  0.0966 -0.2484
11590TIP3    H156261   2.362   3.182   5.853  1.4730  2.1406  0.4187
11590TIP3    H256262   2.378   3.058   5.768 -2.8496  0.6496  1.4945
11591TIP3   OH256263   6.237   1.475  14.059  0.0042 -0.2808  0.0793
11591TIP3    H156264   6.307   1.517  14.008  1.0769 -1.2161  0.7223
11591TIP3    H256265   6.158   1.525  14.038  1.1751  1.9960  0.7162
11592TIP3   OH256266   0.773   2.125  14.276 -0.4622  0.0629 -0.3640
11592TIP3    H156267   0.854   2.176  14.271  0.5708 -1.5787 -1.4814
11592TIP3    H256268   0.716   2.163  14.209 -0.3611  0.8126 -0.0228
11593TIP3   OH256269   5.161   4.018   4.314 -0.6000  0.1721  0.5930
11593TIP3    H156270   5.255   4.029   4.328  0.0275 -0.2878 -2.4646
11593TIP3    H256271   5.143   3.930   4.346  0.7613 -0.9646 -1.5155
11594TIP3   OH256272   1.931   4.775   1.295  0.7511 -0.3257  0.9550
11594TIP3    H156273   1.924   4.870   1.291  2.3611 -0.2205 -1.3935
11594TIP3    H256274   1.952   4.749   1.205 -2.3504 -3.2059  0.8637
11595TIP3   OH256275   5.233   6.785  16.252  0.5146 -0.0903  0.0774
11595TIP3    H156276   5.172   6.810  16.321  0.0372 -1.4681  0.1818
11595TIP3    H256277   5.220   6.850  16.183  0.3716  0.7897  0.9155
11596TIP3   OH256278   1.638   1.842  11.538 -1.0070  0.7659 -0.3117
11596TIP3    H156279   1.593   1.828  11.622 -1.5203 -0.8479 -0.8169
11596TIP3    H256280   1.646   1.937  11.531 -1.2469  0.9490  1.4109
11597TIP3   OH256281   5.140   3.633  13.370  0.2052 -0.2482  0.5611
11597TIP3    H156282   5.154   3.724  13.344 -1.3004  0.3285  1.6503
11597TIP3    H256283   5.218   3.610  13.420  1.4722 -0.2101 -1.2866
11598TIP3   OH256284   3.864   4.060  16.795  0.6169  0.4111  0.5203
11598TIP3    H156285   3.850   4.154  16.804  1.2942  0.4619  1.0350
11598TIP3    H256286   3.919   4.036  16.869 -0.9010 -0.6933  1.3633
11599TIP3   OH256287   0.783   0.853   2.986  0.2298  0.6589 -0.0319
11599TIP3    H156288   0.774   0.786   3.054  0.6792 -0.1141 -0.7133
11599TIP3    H256289   0.785   0.804   2.904 -1.1316  1.6409 -0.6782
11600TIP3   OH256290   3.783   6.554  12.522 -0.2714  0.5821 -0.3952
11600TIP3    H156291   3.693   6.585  12.525 -0.7911 -0.9372  1.9196
11600TIP3    H256292   3.776   6.463  12.494  0.5592  0.4460 -0.1789
11601TIP3   OH256293   1.320   0.189  13.659  0.1618  0.5894  0.3115
11601TIP3    H156294   1.333   0.202  13.753  1.0426  2.1226  0.0072
11601TIP3    H256295   1.392   0.132  13.632 -0.2793 -0.1294  0.5871
11602TIP3   OH256296   0.480   2.933  11.388  0.2011 -0.0377 -0.0826
11602TIP3    H156297   0.394   2.901  11.414  0.4484  0.7692  1.9107
11602TIP3    H256298   0.509   2.987  11.461  1.9840  0.5306 -1.1341
11603TIP3   OH256299   4.524   3.496   1.554 -0.4755 -0.2543  0.0586
11603TIP3    H156300   4.519   3.573   1.497 -1.8275  0.0331  0.5464
11603TIP3    H256301   4.565   3.528   1.634  0.1685 -0.3566 -0.2180
11604TIP3   OH256302   2.289   0.077  15.903 -0.1314  0.5484  0.1703
11604TIP3    H156303   2.210   0.042  15.861 -0.0670  0.9134 -0.2647
11604TIP3    H256304   2.304   0.161  15.859  1.4251 -0.2430 -0.8947
11605TIP3   OH256305   3.157   4.198  16.220  0.0320 -0.0660  0.4317
11605TIP3    H156306   3.227   4.191  16.155 -0.4619  1.9096 -0.3701
11605TIP3    H256307   3.099   4.124  16.199  2.1250 -2.1652  1.5511
11606TIP3   OH256308   0.651   1.591  11.852  0.1508  0.0534  0.7636
11606TIP3    H156309   0.565   1.549  11.860  0.0948  0.2194  1.0521
11606TIP3    H256310   0.636   1.682  11.880  0.1442  0.4304 -0.4227
11607TIP3   OH256311   6.718   6.610  16.791  0.0420 -0.4668 -0.0642
11607TIP3    H156312   6.769   6.689  16.775  1.1501 -1.3263 -0.8827
11607TIP3    H256313   6.779   6.538  16.776 -0.6343 -1.4785  1.7583
11608TIP3   OH256314   6.510   5.712  13.455 -0.5689 -0.8294  0.1172
11608TIP3    H156315   6.522   5.714  13.550 -0.5497 -0.6281  0.1103
11608TIP3    H256316   6.599   5.720  13.419 -0.7833  1.8581  0.0524
11609TIP3   OH256317   2.386   2.791   0.331 -0.0404 -0.3160 -0.7733
11609TIP3    H156318   2.388   2.887   0.332 -0.4586 -0.2910 -1.3824
11609TIP3    H256319   2.477   2.765   0.338  0.0068  0.1067  0.3496
11610TIP3   OH256320   2.455   5.042  14.643 -0.1107 -0.2165  0.1151
11610TIP3    H156321   2.473   4.990  14.565  0.2711 -0.8862  0.6442
11610TIP3    H256322   2.399   4.986  14.697  0.8537 -0.3541  0.9933
11611TIP3   OH256323   5.310   3.229  14.406  0.0267  1.0179 -0.0397
11611TIP3    H156324   5.367   3.277  14.465  2.6688 -0.5962 -1.0857
11611TIP3    H256325   5.326   3.269  14.320  1.4259 -0.8889 -0.7284
11612TIP3   OH256326   2.792   3.874   2.368 -0.4598 -0.5689 -0.0044
11612TIP3    H156327   2.784   3.844   2.459  0.1177 -1.8954 -0.3634
11612TIP3    H256328   2.714   3.840   2.325 -1.9766  2.0677  0.4544
11613TIP3   OH256329   0.484   1.451   1.318 -0.0692 -0.4028  0.8939
11613TIP3    H156330   0.506   1.399   1.395 -0.8977  0.4843  1.7531
11613TIP3    H256331   0.540   1.528   1.323  0.6701 -0.8649 -0.0056
11614TIP3   OH256332   5.501   6.528   2.600 -0.2446 -0.2335  0.1005
11614TIP3    H156333   5.544   6.469   2.663  1.7386 -0.4017 -1.2999
11614TIP3    H256334   5.500   6.613   2.644  0.6518 -0.4494  0.5633
11615TIP3   OH256335   2.692   0.643  13.652 -0.2362  0.0557 -0.2438
11615TIP3    H156336   2.653   0.574  13.598 -0.1310  0.6846 -1.1391
11615TIP3    H256337   2.769   0.671  13.602  1.1764 -0.8861  1.2942
11616TIP3   OH256338   1.329   6.602  16.374  0.2471  0.5636 -0.1969
11616TIP3    H156339   1.271   6.570  16.443  0.5009 -0.1149 -0.2812
11616TIP3    H256340   1.378   6.524  16.346  0.6572  0.9708 -0.6437
11617TIP3   OH256341   5.053   4.658   1.613  0.0925 -0.2564 -0.0572
11617TIP3    H156342   5.076   4.598   1.541  1.9992  0.3265  0.0040
11617TIP3    H256343   5.002   4.604   1.673 -0.7500 -1.0155 -1.3891
11618TIP3   OH256344   1.877   1.725  11.236  0.4346 -0.5005 -0.0386
11618TIP3    H156345   1.865   1.641  11.281  4.2631 -0.3800  1.6303
11618TIP3    H256346   1.946   1.708  11.172  0.7414  1.1607 -0.1961
11619TIP3   OH256347   5.996   0.010   0.109  0.2398  0.3707 -0.1564
11619TIP3    H156348   6.067  -0.046   0.078  0.4880 -0.9473  2.5860
11619TIP3    H256349   6.031   0.052   0.188 -0.9590  2.2108 -0.5387
11620TIP3   OH256350   4.623   6.437   1.252 -0.1560 -0.0942 -0.3478
11620TIP3    H156351   4.697   6.452   1.192 -1.3415  0.6613 -1.6688
11620TIP3    H256352   4.578   6.361   1.216 -0.1856 -0.3976  0.3119
11621TIP3   OH256353   6.019   5.010   1.383 -0.0839  0.1203  0.2216
11621TIP3    H156354   6.054   5.050   1.462  1.9470 -0.6361 -0.2174
11621TIP3    H256355   6.081   4.940   1.363 -2.5522 -2.1820  0.0319
11622TIP3   OH256356   6.833   5.251  12.136  0.3093 -0.3981 -0.7600
11622TIP3    H156357   6.825   5.166  12.092  2.7645 -2.1015  1.7823
11622TIP3    H256358   6.788   5.239  12.219  0.9937  0.6850 -0.2241
11623TIP3   OH256359   2.078   0.869   4.630  0.6789  0.3710 -0.0504
11623TIP3    H156360   2.031   0.941   4.672  0.2710 -0.4969  1.0153
11623TIP3    H256361   2.014   0.830   4.570  0.7274  0.5443 -0.2160
11624TIP3   OH256362   2.263   4.667   2.474 -0.5231 -0.3157 -0.3641
11624TIP3    H156363   2.316   4.608   2.527 -1.3853 -1.4565 -0.7183
11624TIP3    H256364   2.243   4.617   2.395  1.8991  1.8171 -2.5235
11625TIP3   OH256365   0.425   3.820   6.004 -0.4419 -0.1016  0.2678
11625TIP3    H156366   0.340   3.811   6.047 -0.3236  0.0892  0.5463
11625TIP3    H256367   0.449   3.912   6.017  0.2039 -0.3558  0.9403
11626TIP3   OH256368   3.307   5.360   1.357 -0.3960 -0.0595 -0.7722
11626TIP3    H156369   3.359   5.321   1.288 -1.3990  0.7740 -2.0433
11626TIP3    H256370   3.357   5.437   1.385  0.4913 -0.9447  0.1706
11627TIP3   OH256371   2.832   3.150  11.482  0.1832 -0.1787  0.4301
11627TIP3    H156372   2.775   3.211  11.434 -0.7978 -0.1006  1.6311
11627TIP3    H256373   2.794   3.147  11.570  2.1412 -0.0137  1.3249
11628TIP3   OH256374   3.285   1.713  13.692  0.2698 -0.8078  0.4627
11628TIP3    H156375   3.335   1.782  13.737 -2.6516  0.6734  1.7140
11628TIP3    H256376   3.265   1.751  13.606 -0.2986 -0.5893  0.6884
11629TIP3   OH256377   1.673   3.376  17.014  0.0723 -0.8856 -0.0830
11629TIP3    H156378   1.699   3.460  16.975 -2.0910  0.7274  1.6497
11629TIP3    H256379   1.752   3.322  17.012  1.4770  1.0833 -1.5095
11630TIP3   OH256380   3.646   5.597   3.205 -0.3060  0.2599 -0.2820
11630TIP3    H156381   3.628   5.527   3.142  0.5996 -0.5355  0.3198
11630TIP3    H256382   3.612   5.564   3.288  1.6591 -0.2417  0.3692
11631TIP3   OH256383   1.413   5.156  16.814 -0.2410  0.9589  0.2114
11631TIP3    H156384   1.373   5.223  16.758 -2.3206  0.1352  0.6128
11631TIP3    H256385   1.421   5.198  16.899  1.2456  1.6228 -0.2204
11632TIP3   OH256386   2.440   5.646   2.359  0.4736  0.0259 -0.1387
11632TIP3    H156387   2.426   5.556   2.331  1.2953 -0.6643  1.5336
11632TIP3    H256388   2.376   5.660   2.429  0.1336  0.8590 -0.6009
11633TIP3   OH256389   4.862   5.138  16.825  0.5568  0.1124 -0.6980
11633TIP3    H156390   4.806   5.216  16.825 -0.4320 -0.5741 -0.8209
11633TIP3    H256391   4.831   5.087  16.750  1.2933 -0.3349 -0.7082
11634TIP3   OH256392   1.005   2.621   4.736 -0.3358  0.2340 -0.0738
11634TIP3    H156393   1.012   2.556   4.806 -0.7177  0.8182  0.5080
11634TIP3    H256394   1.090   2.617   4.691  0.5628  1.0591  1.4760
11635TIP3   OH256395   4.031   1.849  11.116 -0.0729 -0.5472  0.0761
11635TIP3    H156396   4.095   1.783  11.141  0.1525  0.3583  2.0941
11635TIP3    H256397   4.081   1.930  11.108 -0.4404 -0.4523 -1.8145
11636TIP3   OH256398   0.509   5.697   1.493  0.6923  0.2800  0.5124
11636TIP3    H156399   0.584   5.641   1.477  0.3991  0.0563 -0.1284
11636TIP3    H256400   0.486   5.731   1.407 -0.7076 -0.6432  0.4910
11637TIP3   OH256401   2.228   1.899   0.358  0.3090 -0.1667  0.7844
11637TIP3    H156402   2.158   1.958   0.388  0.2673  0.9179 -1.2781
11637TIP3    H256403   2.202   1.813   0.391 -1.7517  0.2955  0.4981
11638TIP3   OH256404   2.221   0.502   3.766 -0.0340 -0.6571  0.5983
11638TIP3    H156405   2.240   0.590   3.799 -1.6332 -0.7973  2.0255
11638TIP3    H256406   2.307   0.466   3.744  0.7116  0.9915  0.6660
11639TIP3   OH256407   5.757   4.096  16.877  0.0672 -0.6806  0.0829
11639TIP3    H156408   5.775   4.067  16.966 -0.6376 -0.6851  0.2236
11639TIP3    H256409   5.752   4.192  16.884 -0.5847 -0.7158  0.1629
11640TIP3   OH256410   4.244   0.590   4.397  0.2761  0.0966 -0.0634
11640TIP3    H156411   4.174   0.606   4.334  0.1797 -1.5585 -0.4327
11640TIP3    H256412   4.302   0.528   4.353 -0.6347 -2.3774  1.9695
11641TIP3   OH256413   0.048   0.744   1.452  0.2219 -0.0416 -0.0718
11641TIP3    H156414   0.075   0.802   1.523  0.7289  0.1257 -0.3969
11641TIP3    H256415   0.074   0.789   1.372  0.9020 -0.8438 -0.3240
11642TIP3   OH256416   2.944   2.452   4.642  0.2191  0.0956  0.5372
11642TIP3    H156417   3.029   2.465   4.599 -0.5829  0.2652 -1.0283
11642TIP3    H256418   2.930   2.533   4.690  0.9226  0.0760  0.7961
11643TIP3   OH256419   5.108   1.636  15.817  0.1530  0.6748 -0.2294
11643TIP3    H156420   5.091   1.614  15.908 -1.3508  0.8790 -0.4365
11643TIP3    H256421   5.114   1.731  15.816  0.6478  0.6455 -0.2759
11644TIP3   OH256422   4.388   6.421   3.960  0.6357 -0.2059  0.0423
11644TIP3    H156423   4.483   6.425   3.973  0.3999  1.7901  1.5691
11644TIP3    H256424   4.355   6.377   4.038  0.1656  0.9087  0.4851
11645TIP3   OH256425   0.889   1.665   5.797  0.0332 -0.0551  0.3012
11645TIP3    H156426   0.827   1.720   5.845 -0.6324 -0.8792  0.3929
11645TIP3    H256427   0.846   1.580   5.790 -0.0323  0.1132 -2.0428
11646TIP3   OH256428   4.092   6.865  14.094 -0.1051 -0.7797 -0.0452
11646TIP3    H156429   3.998   6.845  14.100 -0.5453  0.8913 -0.6278
11646TIP3    H256430   4.096   6.942  14.036  1.6224 -0.7466  0.0646
11647TIP3   OH256431   3.374   1.319  15.448 -0.1454 -0.0841 -0.2464
11647TIP3    H156432   3.370   1.344  15.356  0.5444  0.6464 -0.0896
11647TIP3    H256433   3.282   1.315  15.476 -0.4861 -2.3459 -1.4718
11648TIP3   OH256434   1.443   6.876  10.921 -0.0112  0.0766  0.0249
11648TIP3    H156435   1.512   6.829  10.875 -1.1593 -2.0671  0.3420
11648TIP3    H256436   1.379   6.808  10.943 -1.0771  1.5796  1.8415
11649TIP3   OH256437   4.614   0.360  14.128 -0.0740 -0.0944 -0.3723
11649TIP3    H156438   4.606   0.283  14.184 -1.6793  1.4388  1.6885
11649TIP3    H256439   4.707   0.383  14.131 -0.3336  1.5086  4.1999
11650TIP3   OH256440   5.736   1.777  10.859 -0.1393 -0.1373 -0.2650
11650TIP3    H156441   5.824   1.792  10.822  0.0292 -0.5500 -0.0387
11650TIP3    H256442   5.676   1.809  10.792  0.1876  0.3677 -0.3254
11651TIP3   OH256443   0.238   5.761  14.343  0.5186 -0.4735  0.8750
11651TIP3    H156444   0.309   5.725  14.398  0.5608  0.0990  1.2078
11651TIP3    H256445   0.166   5.776  14.404  0.0790 -1.1100  0.5245
11652TIP3   OH256446   2.904   0.330   4.054 -0.4878 -0.3957 -0.4681
11652TIP3    H156447   2.837   0.264   4.036  0.1109 -1.4318  0.8639
11652TIP3    H256448   2.859   0.395   4.108 -0.4582 -1.0778  0.4081
11653TIP3   OH256449   6.086   6.587  14.829  0.3132 -0.3938  0.6148
11653TIP3    H156450   6.104   6.625  14.915 -2.6370 -1.4229  1.8094
11653TIP3    H256451   6.011   6.529  14.843 -0.4252 -0.4601 -2.6993
11654TIP3   OH256452   2.860   1.363  14.970 -0.4839 -0.1314  0.7419
11654TIP3    H156453   2.841   1.389  14.880 -1.1912 -1.7188  0.3858
11654TIP3    H256454   2.809   1.423  15.024 -0.2650  0.6619  0.0774
11655TIP3   OH256455   1.537   5.731   0.613 -0.5589  0.2205 -0.0313
11655TIP3    H156456   1.532   5.807   0.555 -0.6897 -1.1328 -1.8897
11655TIP3    H256457   1.607   5.753   0.675 -2.2186  2.8455  1.1065
11656TIP3   OH256458   1.864   5.865  11.146  0.0925 -1.0050  0.2699
11656TIP3    H156459   1.881   5.931  11.213  1.0477  0.2362 -1.1275
11656TIP3    H256460   1.889   5.782  11.188  0.7180 -0.2718  1.4265
11657TIP3   OH256461   1.089   5.876  11.596  0.4600  0.6706  0.4742
11657TIP3    H156462   1.110   5.936  11.667  0.6057  1.3546 -0.1357
11657TIP3    H256463   1.048   5.931  11.530 -0.7658 -0.1688  0.5142
11658TIP3   OH256464   0.367   6.176   1.950 -0.6457  0.2504  0.0655
11658TIP3    H156465   0.432   6.173   1.879 -0.6814  0.0763  0.0407
11658TIP3    H256466   0.283   6.176   1.905 -0.6693  0.0951  0.1093
11659TIP3   OH256467   2.557   5.326  12.611 -0.3199 -0.2174  0.2312
11659TIP3    H156468   2.538   5.287  12.526  0.0201 -1.3396  0.6442
11659TIP3    H256469   2.482   5.382  12.629 -0.5904 -0.2925 -0.6258
11660TIP3   OH256470   6.305   2.878   4.953  0.1457  0.6279  0.4093
11660TIP3    H156471   6.254   2.953   4.923  0.2266  1.2798  1.8602
11660TIP3    H256472   6.299   2.815   4.881 -1.8517  1.0848  0.1332
11661TIP3   OH256473   0.888   2.100   1.858 -0.0169  0.0972  0.5438
11661TIP3    H156474   0.858   2.146   1.780 -1.1073  0.5554  1.1929
11661TIP3    H256475   0.969   2.057   1.832 -0.8567 -0.5951 -1.1283
11662TIP3   OH256476   1.626   3.062   3.772 -0.8461 -0.1135 -0.1812
11662TIP3    H156477   1.586   3.131   3.825 -0.9005 -0.8235  0.7312
11662TIP3    H256478   1.552   3.004   3.750 -1.0382  0.7682 -2.0246
11663TIP3   OH256479   2.834   6.472   6.746  0.3067 -0.1657  1.0392
11663TIP3    H156480   2.835   6.510   6.658  1.1485 -1.1619  0.5936
11663TIP3    H256481   2.765   6.519   6.792 -1.5968 -1.0207 -0.7841
11664TIP3   OH256482   5.858   2.396  15.363 -0.4210 -0.3848 -0.1972
11664TIP3    H156483   5.852   2.480  15.409 -1.3264 -0.3813 -0.3071
11664TIP3    H256484   5.803   2.337  15.414 -0.8502 -0.5674 -0.8634
11665TIP3   OH256485   5.132   2.947  11.435  0.8263 -0.2844  0.2663
11665TIP3    H156486   5.100   2.870  11.389 -1.5014  0.8584 -0.1695
11665TIP3    H256487   5.106   2.933  11.526 -3.0569  1.5102 -0.3834
11666TIP3   OH256488   2.292   6.287   4.842  0.2442  0.0337  0.2079
11666TIP3    H156489   2.233   6.345   4.891  1.0260  0.6821  0.4062
11666TIP3    H256490   2.346   6.346   4.790  0.3556 -0.5838 -0.3941
11667TIP3   OH256491   6.359   5.460   6.265  0.1775 -0.4520 -0.2054
11667TIP3    H156492   6.446   5.501   6.265  0.7419 -1.6216  0.5506
11667TIP3    H256493   6.309   5.511   6.201  0.8584  1.4058  0.6685
11668TIP3   OH256494   5.802   5.385  15.464  0.1630 -0.6695  0.0909
11668TIP3    H156495   5.894   5.368  15.486  0.3085 -0.5861 -0.4262
11668TIP3    H256496   5.764   5.421  15.544  0.0203 -2.7324  1.0365
11669TIP3   OH256497   0.883   0.123  15.120  0.4251  0.1732 -0.5162
11669TIP3    H156498   0.850   0.072  15.047  2.5789 -0.8128 -0.8735
11669TIP3    H256499   0.916   0.204  15.080  1.7373 -0.4294 -0.6882
11670TIP3   OH256500   1.984   1.639  12.350  0.2681  0.0834 -0.2197
11670TIP3    H156501   1.897   1.632  12.311 -0.2362 -0.4191  0.9268
11670TIP3    H256502   1.968   1.678  12.436  0.9158 -1.7861  0.8041
11671TIP3   OH256503   5.125   2.609   1.096 -0.4363 -0.8055  0.1875
11671TIP3    H156504   5.123   2.602   1.001  0.0824 -3.1517  0.2759
11671TIP3    H256505   5.214   2.638   1.116 -1.0848  1.5493 -0.0472
11672TIP3   OH256506   5.056   2.209   4.879  0.2740 -0.0047 -0.5095
11672TIP3    H156507   5.110   2.132   4.898 -1.2069 -1.1721 -0.8156
11672TIP3    H256508   5.084   2.274   4.943  0.6725 -1.2413  0.6317
11673TIP3   OH256509   6.499   3.900   4.306 -0.1545  0.5469  0.5796
11673TIP3    H156510   6.553   3.837   4.258  0.9696  0.8790  1.3807
11673TIP3    H256511   6.441   3.846   4.359 -0.4984  0.1883 -0.1361
11674TIP3   OH256512   0.797   0.454   2.322  0.3977  0.2999 -0.5360
11674TIP3    H156513   0.740   0.493   2.256  0.0853 -1.7233 -1.5376
11674TIP3    H256514   0.751   0.374   2.349 -0.1041  1.6584  3.1187
11675TIP3   OH256515   5.309   2.526   4.931 -0.0793 -0.3636 -0.7118
11675TIP3    H156516   5.326   2.453   4.990  0.3024  0.3353  0.0561
11675TIP3    H256517   5.380   2.589   4.948 -0.1182 -0.0233 -1.7073
11676TIP3   OH256518   4.967   2.367  11.031 -0.5328 -0.1497 -0.1888
11676TIP3    H156519   4.918   2.406  11.103 -0.4243 -1.5931  0.7120
11676TIP3    H256520   4.902   2.316  10.982  0.0082 -2.0662  1.0092
11677TIP3   OH256521   2.530   2.140   5.397  0.2620 -0.0551 -0.3926
11677TIP3    H156522   2.491   2.227   5.387 -1.0129 -0.6012 -0.3540
11677TIP3    H256523   2.498   2.090   5.322  3.1169  0.2035 -1.9477
11678TIP3   OH256524   5.151   1.488   0.475 -0.4640 -0.0046 -0.0509
11678TIP3    H156525   5.110   1.429   0.412  1.1969 -2.8461  1.3300
11678TIP3    H256526   5.113   1.463   0.560  2.4850 -1.3667  0.9905
11679TIP3   OH256527   2.594   0.807   2.016 -0.0989 -0.0698  0.1558
11679TIP3    H156528   2.557   0.741   1.959 -1.0532 -0.2742  0.9735
11679TIP3    H256529   2.567   0.781   2.104  1.9707 -0.1985  0.8115
11680TIP3   OH256530   2.303   4.052   3.350  0.1015 -0.4870 -0.8020
11680TIP3    H156531   2.254   4.051   3.432 -0.0706  1.7383 -0.8142
11680TIP3    H256532   2.395   4.056   3.376  0.0137  1.5458 -0.6194
11681TIP3   OH256533   5.077   1.560  13.447  0.4087 -0.2682 -0.3011
11681TIP3    H156534   5.108   1.642  13.485 -0.4847  0.5337 -1.2284
11681TIP3    H256535   5.127   1.550  13.366  1.0907 -1.0751  0.2079
11682TIP3   OH256536   5.652   5.612  13.001  0.3645 -0.7811  0.0521
11682TIP3    H156537   5.572   5.573  12.966  0.7419 -1.3814 -0.1614
11682TIP3    H256538   5.711   5.620  12.926  0.1736  0.5496  0.0228
11683TIP3   OH256539   3.839   4.419   3.879 -0.4004  0.0659  0.5136
11683TIP3    H156540   3.790   4.475   3.818 -1.1964 -1.1703 -0.0370
11683TIP3    H256541   3.913   4.386   3.827  1.2658  2.1629  1.4287
11684TIP3   OH256542   3.943   0.156  13.328 -0.5573 -0.2361 -0.2734
11684TIP3    H156543   4.038   0.159  13.332 -0.5797 -0.4276  3.4712
11684TIP3    H256544   3.917   0.244  13.301  0.6415  0.1378 -0.2430
11685TIP3   OH256545   3.170   3.226   2.913 -0.5459 -0.1237 -0.4354
11685TIP3    H156546   3.177   3.257   3.003 -1.7209  1.5141 -0.8562
11685TIP3    H256547   3.242   3.163   2.903 -1.2939 -1.4539  2.0342
11686TIP3   OH256548   4.451   5.812  14.068  0.3875  0.3915 -0.2320
11686TIP3    H156549   4.509   5.876  14.109  2.1543 -0.9879 -0.4345
11686TIP3    H256550   4.502   5.776  13.995 -0.6883 -0.9402 -0.3821
11687TIP3   OH256551   1.128   5.196   2.208 -0.6729  0.1424 -0.1143
11687TIP3    H156552   1.128   5.268   2.144 -0.3310 -0.4222 -0.7658
11687TIP3    H256553   1.180   5.127   2.166 -1.7854 -0.8476  0.0844
11688TIP3   OH256554   5.098   4.221  16.563 -0.3326  0.4083 -0.0030
11688TIP3    H156555   5.118   4.169  16.641 -0.2530  0.6718  0.1518
11688TIP3    H256556   5.015   4.263  16.582  0.3966  1.6399  0.5426
11689TIP3   OH256557   3.793   5.058  12.298  0.0794 -0.1926 -0.6900
11689TIP3    H156558   3.875   5.009  12.299  0.0938 -0.1634 -0.3254
11689TIP3    H256559   3.782   5.087  12.388 -0.5205 -0.5083 -0.6608
11690TIP3   OH256560   2.350   5.570  14.026  0.7303 -0.0995 -0.1223
11690TIP3    H156561   2.369   5.604  14.113 -0.0425 -1.8545  0.7893
11690TIP3    H256562   2.263   5.530  14.034  1.5206 -2.1717 -1.0900
11691TIP3   OH256563   3.990   5.996   4.692 -0.3781  0.2901 -0.0343
11691TIP3    H156564   3.942   5.944   4.627  0.8826 -2.0593  0.7546
11691TIP3    H256565   4.082   5.986   4.666 -0.1266  3.4259 -0.6598
11692TIP3   OH256566   2.065   4.832   4.547 -0.5727  0.0778 -0.4377
11692TIP3    H156567   2.070   4.858   4.639 -1.3355 -2.8000  0.5247
11692TIP3    H256568   2.097   4.908   4.499 -2.6753  2.7254  2.0082
11693TIP3   OH256569   2.406   3.247  11.658 -0.5826 -0.2881  0.1932
11693TIP3    H156570   2.404   3.337  11.690 -0.8486 -0.3326  0.3004
11693TIP3    H256571   2.387   3.193  11.735  1.0812 -0.5318  0.4815
11694TIP3   OH256572   0.252   3.579  13.677 -0.0825 -0.2530 -0.3512
11694TIP3    H156573   0.335   3.595  13.631  0.1680 -2.2336 -0.6522
11694TIP3    H256574   0.221   3.495  13.643 -0.9967 -0.7372  1.5245
11695TIP3   OH256575   1.634   2.566  16.652 -0.0658  0.4236 -0.2950
11695TIP3    H156576   1.662   2.477  16.670 -0.1708  0.4787  0.1463
11695TIP3    H256577   1.678   2.588  16.569  3.2635  1.3647  1.5088
11696TIP3   OH256578   4.746   2.248  10.907  0.3515 -0.0179  0.5874
11696TIP3    H156579   4.657   2.213  10.908  0.4746 -0.5846  3.8586
11696TIP3    H256580   4.800   2.175  10.876 -0.1868 -0.0217 -0.3705
11697TIP3   OH256581   2.064   5.074   1.330  1.0755 -0.3034 -0.8478
11697TIP3    H156582   2.008   5.049   1.404  0.2102  2.3499 -0.4971
11697TIP3    H256583   2.145   5.104   1.371  1.7583 -1.6604 -1.1910
11698TIP3   OH256584   3.488   6.031  10.852 -0.1500 -0.6219  0.2660
11698TIP3    H156585   3.452   6.055  10.766 -0.7039 -3.0632 -0.2616
11698TIP3    H256586   3.411   6.015  10.906  0.1929 -0.9197  0.6698
11699TIP3   OH256587   3.802   4.078  11.554 -0.0456 -0.0449  0.4104
11699TIP3    H156588   3.868   4.023  11.513  0.4190  2.0090 -1.8336
11699TIP3    H256589   3.852   4.144  11.602 -0.5359 -0.2328  1.1923
11700TIP3   OH256590   6.605   3.195   2.511  0.2302  0.0863 -0.5069
11700TIP3    H156591   6.582   3.103   2.517 -2.6080  0.5712 -2.0968
11700TIP3    H256592   6.638   3.206   2.422  0.6248  0.5957 -0.3016
11701TIP3   OH256593   1.360   5.664   5.057 -0.2549 -0.2277 -0.3031
11701TIP3    H156594   1.383   5.743   5.105  0.6909  0.5139 -1.8925
11701TIP3    H256595   1.333   5.695   4.971  1.1259 -1.6566 -1.3172
11702TIP3   OH256596   4.359   1.131   2.822  0.0073 -0.4200  0.1486
11702TIP3    H156597   4.321   1.123   2.735 -0.8850 -0.4116  0.5252
11702TIP3    H256598   4.370   1.041   2.853  0.7034 -0.4367 -0.1187
11703TIP3   OH256599   2.901   3.519   1.835 -0.4118 -0.1806  0.3154
11703TIP3    H156600   2.938   3.432   1.818 -0.0273 -0.1237  0.8429
11703TIP3    H256601   2.976   3.571   1.864 -1.0052 -0.2134  1.9722
11704TIP3   OH256602   4.749   4.467  13.661  0.5005  0.4323 -0.5750
11704TIP3    H156603   4.674   4.525  13.647 -0.4615 -0.2772  1.3386
11704TIP3    H256604   4.731   4.424  13.745  1.9214 -1.5048 -1.1987
11705TIP3   OH256605   6.143   6.857  10.942 -0.7934 -0.3107  0.0713
11705TIP3    H156606   6.076   6.845  10.875 -0.3800 -2.3905 -0.0535
11705TIP3    H256607   6.225   6.831  10.898 -0.3932 -0.8411  1.0922
11706TIP3   OH256608   6.036   4.603  14.384  0.2325  0.4510 -0.5846
11706TIP3    H156609   6.064   4.518  14.349  1.5250  0.5255  0.1865
11706TIP3    H256610   6.108   4.631  14.441 -1.3629  0.7383  1.4547
11707TIP3   OH256611   0.075   6.670  12.001  0.4637 -0.8633  0.0562
11707TIP3    H156612   0.073   6.574  11.993 -0.8680 -0.9597  1.1478
11707TIP3    H256613   0.003   6.700  11.946 -0.6622 -0.6931  1.5515
11708TIP3   OH256614   5.852   4.600   5.267 -0.2256  0.0843 -0.2004
11708TIP3    H156615   5.917   4.669   5.280  0.3458 -0.2364 -1.2747
11708TIP3    H256616   5.806   4.625   5.187 -0.1002 -0.7102 -0.5265
11709TIP3   OH256617   4.537   3.249  14.498 -0.1589  0.4664 -0.6318
11709TIP3    H156618   4.468   3.308  14.529 -0.5044  0.9239 -2.1963
11709TIP3    H256619   4.618   3.299  14.509 -0.4291  1.1819 -1.7425
11710TIP3   OH256620   0.683   1.439  10.856 -0.1131  0.1971  0.7540
11710TIP3    H156621   0.623   1.424  10.929 -0.6102 -0.8955  0.1459
11710TIP3    H256622   0.765   1.465  10.897 -0.3582 -0.4885  1.7121
11711TIP3   OH256623   1.657   5.620   1.277 -0.5345 -0.2961  0.2397
11711TIP3    H156624   1.706   5.556   1.226  0.1036  0.3025  0.0859
11711TIP3    H256625   1.621   5.681   1.212  2.1359  1.7907  0.5166
11712TIP3   OH256626   3.776   5.309  13.173  0.3296 -0.2848 -0.3529
11712TIP3    H156627   3.808   5.370  13.106 -0.2784  1.0298  0.5164
11712TIP3    H256628   3.818   5.339  13.254 -0.5827 -0.5473  0.2246
11713TIP3   OH256629   1.295   4.575   4.818  0.5916  0.3241  0.5840
11713TIP3    H156630   1.379   4.558   4.861  1.1541  1.4093 -0.0343
11713TIP3    H256631   1.316   4.640   4.750 -0.9265  1.3360  1.0421
11714TIP3   OH256632   3.687   3.526   1.683 -0.1083  0.1074  0.6238
11714TIP3    H156633   3.634   3.576   1.621  0.2232  0.6567  0.7788
11714TIP3    H256634   3.777   3.535   1.651 -0.0624 -0.5652  0.5375
11715TIP3   OH256635   3.992   6.103  14.655  0.1066  0.4383 -0.0415
11715TIP3    H156636   3.905   6.064  14.647 -0.1393  1.0767 -0.4952
11715TIP3    H256637   4.038   6.076  14.575  1.1146 -1.7857  1.1781
11716TIP3   OH256638   1.858   3.155  12.379  0.2395 -0.6453  0.3569
11716TIP3    H156639   1.901   3.167  12.464  0.5286  0.1222  0.1067
11716TIP3    H256640   1.785   3.217  12.380  0.3114 -0.5518  0.0019
11717TIP3   OH256641   0.928   5.830  10.607 -0.8150  0.1435 -0.1783
11717TIP3    H156642   1.013   5.868  10.583 -0.0501  0.3302  2.5040
11717TIP3    H256643   0.922   5.749  10.557  1.1406 -0.0551 -0.1662
11718TIP3   OH256644   6.082   5.514  16.658 -0.3327  0.3430 -0.4039
11718TIP3    H156645   6.102   5.446  16.722  0.4141 -1.0092 -1.9985
11718TIP3    H256646   5.992   5.539  16.677 -0.3869 -0.5953  0.6767
11719TIP3   OH256647   3.984   6.541  15.904 -0.2971 -0.4188 -0.3199
11719TIP3    H156648   4.020   6.505  15.823 -0.5795 -0.4238 -0.4467
11719TIP3    H256649   3.915   6.479  15.929  0.4282 -0.9437  0.4543
11720TIP3   OH256650   3.106   3.406   5.337 -0.2880 -0.0287 -0.3305
11720TIP3    H156651   3.015   3.436   5.337 -0.1821  0.3378 -1.3863
11720TIP3    H256652   3.141   3.433   5.252  0.4301 -1.3162 -0.4832
11721TIP3   OH256653   5.714   0.048   5.033 -0.0064 -0.2866  0.4037
11721TIP3    H156654   5.666  -0.034   5.045 -1.5559  0.6797  1.1057
11721TIP3    H256655   5.740   0.074   5.121  0.2977  0.0876  0.2073
11722TIP3   OH256656   3.795   4.259  14.215 -0.6906 -0.4110 -0.8715
11722TIP3    H156657   3.758   4.250  14.303  0.0523 -0.9522 -0.6010
11722TIP3    H256658   3.843   4.342  14.217  0.1186 -0.8748 -0.4534
11723TIP3   OH256659   4.049   0.350  13.123  0.5203  0.1545  0.6550
11723TIP3    H156660   4.143   0.364  13.115  0.6528 -1.4865 -1.5577
11723TIP3    H256661   4.013   0.384  13.041 -0.5370 -1.1451  0.5556
11724TIP3   OH256662   0.986   1.177   1.297  0.0399  0.5359  0.1387
11724TIP3    H156663   1.045   1.170   1.372 -2.6982  0.4089  2.4721
11724TIP3    H256664   0.978   1.088   1.264  1.7853  0.6936 -0.8174
11725TIP3   OH256665   0.442   6.054  12.069  0.2981  0.4821  0.1266
11725TIP3    H156666   0.523   6.007  12.085  0.5391  1.0827  0.7253
11725TIP3    H256667   0.463   6.146  12.085 -0.6508  0.5820  0.9897
11726TIP3   OH256668   3.242   0.402   6.369 -0.5603  0.0145 -0.0620
11726TIP3    H156669   3.330   0.437   6.376 -0.9108  0.8995  0.1007
11726TIP3    H256670   3.188   0.463   6.419 -1.6452  0.8551 -2.1572
11727TIP3   OH256671   1.733   1.093   2.291 -0.2279  0.0527  0.8634
11727TIP3    H156672   1.715   1.167   2.234  0.5047  0.2256  0.8444
11727TIP3    H256673   1.649   1.071   2.330 -0.4919  0.7334  0.6804
11728TIP3   OH256674   4.842   3.350  12.147  0.1509 -0.3445 -0.4980
11728TIP3    H156675   4.848   3.433  12.099  0.7341 -0.4337 -0.5850
11728TIP3    H256676   4.912   3.354  12.212  1.7542 -1.7281 -2.0286
11729TIP3   OH256677   2.278   0.142   4.407 -0.0250  0.0830 -0.2402
11729TIP3    H156678   2.246   0.229   4.384 -0.1415  0.2867  0.6330
11729TIP3    H256679   2.367   0.139   4.373  0.1990  0.7861  0.2614
11730TIP3   OH256680   3.529   5.385  12.904 -0.1394 -0.1617 -0.3556
11730TIP3    H156681   3.479   5.459  12.870  0.2213 -0.0318 -0.6159
11730TIP3    H256682   3.572   5.349  12.826  0.5429  0.0153 -0.0597
11731TIP3   OH256683   6.215   3.279   4.786 -0.2663  0.3162 -0.1186
11731TIP3    H156684   6.218   3.373   4.801  1.2476 -0.1893  4.0671
11731TIP3    H256685   6.157   3.245   4.854  1.9541 -1.9619  0.8412
11732TIP3   OH256686   2.239   3.185   2.903  0.0039  0.1469 -0.2170
11732TIP3    H156687   2.276   3.259   2.951 -0.3593 -0.3308  0.8340
11732TIP3    H256688   2.301   3.170   2.832  0.9196  0.4661  0.4843
11733TIP3   OH256689   5.525   3.907   0.163 -0.2647  0.3505  0.2477
11733TIP3    H156690   5.605   3.936   0.207 -0.0118  0.3652 -0.2144
11733TIP3    H256691   5.529   3.812   0.167  0.7750  0.2656 -1.4756
11734TIP3   OH256692   5.941   1.280   1.039  0.1266  0.7650  0.1755
11734TIP3    H156693   5.980   1.287   1.126 -1.5132  0.9337  0.9208
11734TIP3    H256694   5.983   1.349   0.988  0.6505  1.0699  1.0043
11735TIP3   OH256695   1.275   0.191  14.540 -0.0846  0.3228  0.0650
11735TIP3    H156696   1.248   0.145  14.619  1.3143 -2.0721 -0.7749
11735TIP3    H256697   1.309   0.275  14.571 -0.2439 -0.2716  1.9145
11736TIP3   OH256698   1.355   3.308   2.185  0.5193 -0.2629  0.2706
11736TIP3    H156699   1.362   3.336   2.276 -1.7461  1.2743  0.0629
11736TIP3    H256700   1.297   3.231   2.189 -1.0391  0.8424  0.0499
11737TIP3   OH256701   0.745   4.807  10.485  0.1443 -0.1765  0.5321
11737TIP3    H156702   0.804   4.792  10.560 -0.0080 -0.5872  0.5722
11737TIP3    H256703   0.686   4.875  10.515  1.0108  0.7178  0.2582
11738TIP3   OH256704   3.739   1.099  13.330 -0.1033  0.3689 -0.5245
11738TIP3    H156705   3.738   1.140  13.243  0.8362  0.5315 -0.4704
11738TIP3    H256706   3.777   1.166  13.387  2.9698 -1.0618 -0.7171
11739TIP3   OH256707   6.794   0.212   4.437  0.1051 -0.3080  0.1598
11739TIP3    H156708   6.878   0.236   4.397  0.4424 -0.6352  0.6524
11739TIP3    H256709   6.764   0.292   4.480  0.2665 -0.2465  0.1598
11740TIP3   OH256710   0.660   0.822  13.430  0.2725 -0.2062  0.2600
11740TIP3    H156711   0.611   0.796  13.507 -0.9675 -0.3301 -0.5497
11740TIP3    H256712   0.731   0.758  13.423 -0.0027 -0.5814  0.9091
11741TIP3   OH256713   3.991   2.162  12.350 -0.1754 -0.1480 -0.0065
11741TIP3    H156714   4.086   2.161  12.343 -0.1072  2.6982 -0.7602
11741TIP3    H256715   3.960   2.106  12.279  0.8951 -1.7176  0.7145
11742TIP3   OH256716   3.451   5.530   6.354 -0.1123  0.2198 -0.2031
11742TIP3    H156717   3.405   5.604   6.394  0.5605  0.9376 -0.7497
11742TIP3    H256718   3.499   5.490   6.427  1.7010  1.9679 -0.3701
11743TIP3   OH256719   2.583   6.280  13.964 -0.1537  0.2669 -0.5288
11743TIP3    H156720   2.520   6.285  13.893 -1.4245 -1.3269  0.4227
11743TIP3    H256721   2.651   6.221  13.931 -0.0767  0.5646 -0.9005
11744TIP3   OH256722   4.594   1.677   6.463  0.0138  0.1277 -0.1423
11744TIP3    H156723   4.643   1.721   6.532 -0.2339 -1.3250  1.0086
11744TIP3    H256724   4.661   1.642   6.404  0.3814 -1.1017  0.9565
11745TIP3   OH256725   3.280   1.454  15.895  0.1057  0.5469  0.5117
11745TIP3    H156726   3.246   1.529  15.847 -1.1978 -0.4265 -0.1640
11745TIP3    H256727   3.359   1.428  15.847  0.2409  1.1302  0.4173
11746TIP3   OH256728   1.287   3.791   2.451  0.0377  0.2459 -0.6187
11746TIP3    H156729   1.262   3.736   2.376  2.9537 -0.9657 -0.8687
11746TIP3    H256730   1.327   3.868   2.411 -0.2171  0.5453 -0.2954
11747TIP3   OH256731   1.043   1.729   5.190 -0.1300  0.1023 -0.0747
11747TIP3    H156732   1.020   1.651   5.139  1.7023 -0.2040 -0.5336
11747TIP3    H256733   1.038   1.700   5.281 -0.6004 -0.2054 -0.1934
11748TIP3   OH256734   3.385   2.358  13.126  0.1024  0.0718  0.0866
11748TIP3    H156735   3.400   2.408  13.046  3.1329 -0.2786  0.3019
11748TIP3    H256736   3.469   2.315  13.143 -1.1012 -1.6048  2.2781
11749TIP3   OH256737   5.701   0.404  12.172 -0.1087 -0.5747  0.2023
11749TIP3    H156738   5.742   0.485  12.204 -0.3320 -0.7592  0.9907
11749TIP3    H256739   5.763   0.335  12.196 -0.8453 -0.8561  1.3958
11750TIP3   OH256740   2.160   1.581   3.991  0.0867  0.2150 -0.0135
11750TIP3    H156741   2.236   1.589   4.048  0.4826  1.1735 -0.6379
11750TIP3    H256742   2.140   1.488   3.990  1.0277 -0.0053  0.4518
11751TIP3   OH256743   4.857   1.905  11.003 -0.0162  0.4729  0.5326
11751TIP3    H156744   4.906   1.825  10.983  0.4405  0.4800  1.5571
11751TIP3    H256745   4.879   1.965  10.933  2.0881  0.7528  1.3718
11752TIP3   OH256746   3.461   5.543   2.408  0.2676 -0.8175 -0.2788
11752TIP3    H156747   3.505   5.545   2.323 -0.0311  1.9837 -0.4456
11752TIP3    H256748   3.532   5.535   2.472  0.6195 -1.2885 -0.7213
11753TIP3   OH256749   0.916   6.683  15.136  0.0706  0.6435  0.0383
11753TIP3    H156750   0.875   6.742  15.073 -0.9064  1.1794  1.1404
11753TIP3    H256751   0.942   6.741  15.208  1.3432  0.0722  0.0601
11754TIP3   OH256752   1.144   4.788   0.706 -0.5502 -0.1125 -0.0604
11754TIP3    H156753   1.182   4.711   0.749 -0.6800 -0.8913 -1.2779
11754TIP3    H256754   1.137   4.763   0.614 -2.1406  0.7607 -0.2175
11755TIP3   OH256755   6.869   0.108   1.864 -0.1168 -0.9636  0.2225
11755TIP3    H156756   6.894   0.022   1.898 -0.5616 -0.4408  1.9867
11755TIP3    H256757   6.807   0.142   1.929 -0.4571  0.4213 -0.7828
11756TIP3   OH256758   2.519   6.348  14.588  0.2097 -0.0109  0.4793
11756TIP3    H156759   2.484   6.405  14.657 -1.1306 -2.6102  2.0785
11756TIP3    H256760   2.604   6.320  14.621 -0.1406 -0.7381  0.7639
11757TIP3   OH256761   3.377   1.406   3.196 -0.2637  0.2490 -0.0080
11757TIP3    H156762   3.412   1.408   3.286 -0.2282 -0.7256  0.0099
11757TIP3    H256763   3.429   1.339   3.152 -2.0458 -1.1926 -0.0088
11758TIP3   OH256764   1.746   3.158  14.929 -0.4816 -0.2370 -0.2380
11758TIP3    H156765   1.695   3.078  14.928 -1.3281  0.2867 -1.8155
11758TIP3    H256766   1.786   3.163  14.843 -0.8783  1.2895 -0.3703
11759TIP3   OH256767   6.602   0.569   5.808  0.4988 -0.8153  0.0205
11759TIP3    H156768   6.639   0.591   5.893 -0.6647 -0.7531  0.5268
11759TIP3    H256769   6.651   0.623   5.746 -0.2216  0.9285  0.9092
11760TIP3   OH256770   1.634   3.131   4.812  0.3255  0.4495 -0.0668
11760TIP3    H156771   1.665   3.188   4.883  1.1222 -0.3716  0.2549
11760TIP3    H256772   1.604   3.052   4.856  1.0952 -0.1837 -0.6569
11761TIP3   OH256773   6.397   6.802  13.344  0.5990  0.6266  0.3554
11761TIP3    H156774   6.377   6.877  13.400  0.9740 -0.2859  1.7641
11761TIP3    H256775   6.493   6.799  13.343  0.5791 -0.2735  0.9212
11762TIP3   OH256776   5.670   1.521  10.342  0.0690  0.5110 -0.6220
11762TIP3    H156777   5.734   1.455  10.315  0.0978  0.1415  0.2964
11762TIP3    H256778   5.695   1.600  10.295  0.6387  0.1241 -0.9814
11763TIP3   OH256779   0.226   0.184  11.565 -0.1329 -0.2204  0.3289
11763TIP3    H156780   0.317   0.156  11.571 -0.0173  0.2832  1.0188
11763TIP3    H256781   0.200   0.201  11.656 -0.8971 -0.3116  0.1339
11764TIP3   OH256782   2.738   5.630  12.084  0.6116  1.0370  0.5639
11764TIP3    H156783   2.727   5.659  11.993  1.7479 -1.3653 -0.4305
11764TIP3    H256784   2.819   5.673  12.113  0.4639  1.4954  0.3115
11765TIP3   OH256785   0.291   2.582  13.969  0.0992 -0.2426 -0.5903
11765TIP3    H156786   0.302   2.591  13.875  0.5577 -0.0885 -0.5239
11765TIP3    H256787   0.283   2.671  14.002  1.3988 -0.1922 -0.3198
11766TIP3   OH256788   6.687   6.573  16.179 -0.3213  0.6906 -0.3888
11766TIP3    H156789   6.602   6.609  16.157 -0.3839  0.5625 -0.3595
11766TIP3    H256790   6.676   6.535  16.266  0.4881  3.0894  0.8449
11767TIP3   OH256791   2.715   0.602  15.461  0.0780 -0.2866  0.5154
11767TIP3    H156792   2.784   0.607  15.527 -0.8452 -0.3359  1.5116
11767TIP3    H256793   2.636   0.632  15.506 -0.8486 -1.5916 -0.1678
11768TIP3   OH256794   3.778   3.946  12.002 -0.3672 -0.1774  0.4342
11768TIP3    H156795   3.747   4.023  11.953  1.5178  0.8413  0.7356
11768TIP3    H256796   3.873   3.944  11.986 -0.2065 -1.8283  1.3161
11769TIP3   OH256797   4.191   2.043   2.905 -0.9991  0.5442  0.2891
11769TIP3    H156798   4.148   2.100   2.969  1.3365  2.5443  0.2422
11769TIP3    H256799   4.214   2.102   2.833 -0.0695 -0.8490 -0.6041
11770TIP3   OH256800   3.874   5.777   6.068  0.1498 -0.2531  0.6542
11770TIP3    H156801   3.806   5.844   6.061  0.2641 -0.1332  0.6824
11770TIP3    H256802   3.939   5.815   6.128  0.3162 -0.3010  0.5058
11771TIP3   OH256803   4.786   3.895   0.123  0.1012  0.8424  0.5129
11771TIP3    H156804   4.811   3.817   0.075 -0.3963 -0.2700  1.9824
11771TIP3    H256805   4.713   3.932   0.073  0.0987  0.1505  0.0004
11772TIP3   OH256806   0.168   5.427  15.103  0.0052 -0.7764  0.0697
11772TIP3    H156807   0.161   5.494  15.035 -0.4084 -1.2620 -0.3717
11772TIP3    H256808   0.256   5.391  15.092  1.3678  1.5882  2.1155
11773TIP3   OH256809   5.494   3.364  15.412  0.0888 -0.0156  0.0575
11773TIP3    H156810   5.537   3.293  15.459 -0.7724 -0.0592  0.7901
11773TIP3    H256811   5.402   3.337  15.405  0.5086 -1.0819 -3.6207
11774TIP3   OH256812   2.736   3.735  15.278 -0.2561 -0.2673  0.8382
11774TIP3    H156813   2.659   3.683  15.300 -2.2022  1.3224 -1.6354
11774TIP3    H256814   2.773   3.691  15.201 -0.7542  0.8011 -0.0501
11775TIP3   OH256815   1.277   0.215  13.991 -0.2060  0.1465  0.3739
11775TIP3    H156816   1.279   0.155  14.065 -1.0073 -0.1008  0.2052
11775TIP3    H256817   1.207   0.277  14.012  0.1910  0.6460  0.2522
11776TIP3   OH256818   0.653   1.076   5.367 -0.0052 -0.4288  0.4799
11776TIP3    H156819   0.609   0.999   5.330 -0.6049 -0.2398  0.7938
11776TIP3    H256820   0.592   1.109   5.433  0.8395 -0.4681  1.2872
11777TIP3   OH256821   6.718   6.670  12.340  0.6210  0.1996 -0.5051
11777TIP3    H156822   6.745   6.761  12.329  0.3779  0.0908 -2.1997
11777TIP3    H256823   6.655   6.654  12.270  1.0686 -1.4195 -0.5955
11778TIP3   OH256824   2.298   5.022   4.125 -0.6570  0.1126 -0.3154
11778TIP3    H156825   2.385   5.003   4.158 -1.3039 -2.1149  0.2974
11778TIP3    H256826   2.309   5.100   4.070  1.3966  0.7921  0.9685
11779TIP3   OH256827   3.838   1.260   1.688 -0.2947  0.3220 -0.3828
11779TIP3    H156828   3.783   1.310   1.627  0.0010  1.8740  0.5582
11779TIP3    H256829   3.825   1.303   1.772  1.2557 -0.1878  0.1445
11780TIP3   OH256830   2.706   4.960  13.117 -0.4103  0.1283  0.0095
11780TIP3    H156831   2.664   5.028  13.065 -1.0036  0.7941  1.3062
11780TIP3    H256832   2.794   4.994  13.135  0.0503 -0.4170 -1.1058
11781TIP3   OH256833   1.102   1.912  11.188 -0.2683  0.2503 -0.0416
11781TIP3    H156834   1.127   1.919  11.096  3.7726 -0.2343  0.8147
11781TIP3    H256835   1.098   1.818  11.205  2.5021  0.2124  0.9098
11782TIP3   OH256836   3.651   5.499   4.904  0.2303 -0.0487  0.1728
11782TIP3    H156837   3.656   5.418   4.853  0.8968 -0.8904  1.5240
11782TIP3    H256838   3.581   5.549   4.861 -0.1971 -1.3257 -0.6981
11783TIP3   OH256839   3.889   3.657  14.921 -0.2926  0.2446  0.1912
11783TIP3    H156840   3.912   3.729  14.862  1.3138 -1.0326 -0.8424
11783TIP3    H256841   3.823   3.607  14.874  0.5337 -0.4222 -0.2875
11784TIP3   OH256842   5.002   4.278  13.586 -0.1649  0.5511  0.4506
11784TIP3    H156843   4.911   4.259  13.609  0.5653 -0.3501  2.8859
11784TIP3    H256844   5.029   4.346  13.649  0.8889  0.7184 -0.1497
11785TIP3   OH256845   6.201   6.487  11.391 -0.0717  0.1364  0.7318
11785TIP3    H156846   6.194   6.392  11.377  0.6889  0.1927 -0.0891
11785TIP3    H256847   6.186   6.525  11.305  0.8078  0.7004  0.8189
11786TIP3   OH256848   0.898   4.518  16.701  0.6018 -0.1085 -0.3962
11786TIP3    H156849   0.833   4.488  16.638 -1.2215 -0.3589  1.4832
11786TIP3    H256850   0.954   4.442  16.715  1.8453  0.3172 -2.5610
11787TIP3   OH256851   4.605   3.795   2.771 -0.0764  0.2219  0.0913
11787TIP3    H156852   4.630   3.865   2.711 -1.3325  0.4648 -0.1715
11787TIP3    H256853   4.555   3.839   2.840 -2.0518 -0.5295 -0.7738
11788TIP3   OH256854   2.747   2.179  15.911  0.6012 -0.0627  0.3913
11788TIP3    H156855   2.836   2.201  15.883  0.9140 -0.4009  1.0964
11788TIP3    H256856   2.736   2.087  15.886  0.5825 -0.1255  0.6300
11789TIP3   OH256857   3.548   5.295   1.774  0.0737  0.0447 -0.6027
11789TIP3    H156858   3.564   5.222   1.714  0.1209  0.5059 -1.1567
11789TIP3    H256859   3.480   5.263   1.833  0.2755 -0.5390 -0.6779
11790TIP3   OH256860   5.260   0.135  13.864 -0.3007  0.0177  0.4877
11790TIP3    H156861   5.214   0.097  13.789  0.7322 -0.4292  0.0650
11790TIP3    H256862   5.232   0.226  13.865  0.0801  0.1774 -0.7861
11791TIP3   OH256863   5.333   4.258  10.716  0.2756 -0.0870  0.0689
11791TIP3    H156864   5.419   4.271  10.675  0.0526  0.6913 -0.1579
11791TIP3    H256865   5.270   4.282  10.648 -0.1055  0.7965  0.7104
11792TIP3   OH256866   4.048   0.594   0.923  0.1653 -0.2497  0.6410
11792TIP3    H156867   4.021   0.564   1.009 -2.4220  2.9504  1.1326
11792TIP3    H256868   4.092   0.678   0.939 -0.5655  0.5267 -1.1428
11793TIP3   OH256869   6.783   0.417   1.318  0.1295  0.0493 -0.3627
11793TIP3    H156870   6.808   0.446   1.230  1.9105  0.6290  0.3018
11793TIP3    H256871   6.749   0.495   1.361  0.3276  0.0242 -0.1606
11794TIP3   OH256872   5.725   4.509  12.010 -0.3408  0.3919  0.0785
11794TIP3    H156873   5.680   4.582  11.967  0.8463  0.3576 -1.3302
11794TIP3    H256874   5.761   4.457  11.937  0.1001 -0.7600  1.0901
11795TIP3   OH256875   4.067   3.980  14.019  0.0503 -0.0584 -0.0166
11795TIP3    H156876   4.101   4.051  14.072 -0.5044  0.6632 -0.6105
11795TIP3    H256877   4.141   3.919  14.010  1.6113  1.9606 -2.1453
11796TIP3   OH256878   1.373   3.862   4.300  0.5342  0.0831 -0.7343
11796TIP3    H156879   1.400   3.866   4.392  1.9126  0.3843 -1.1265
11796TIP3    H256880   1.348   3.952   4.278  0.7228  0.1210 -0.7965
11797TIP3   OH256881   0.118   3.582  14.950 -0.8608 -0.2327  0.6545
11797TIP3    H156882   0.195   3.556  15.000 -0.7029  0.3280  0.7165
11797TIP3    H256883   0.148   3.583  14.859  0.0468  2.6288  0.8658
11798TIP3   OH256884   5.078   4.848  15.483 -0.1311  0.3619 -0.2827
11798TIP3    H156885   4.998   4.868  15.530 -1.2312  0.6556 -2.1825
11798TIP3    H256886   5.059   4.767  15.436  0.9338  0.0635 -0.2381
11799TIP3   OH256887   2.546   4.445   0.793 -0.1311  1.1245  0.2080
11799TIP3    H156888   2.567   4.465   0.702 -3.6836 -2.8493 -1.8811
11799TIP3    H256889   2.490   4.517   0.821  0.5527  2.1395 -0.9648
11800TIP3   OH256890   4.233   1.042   4.092 -0.2548  0.0462 -0.0650
11800TIP3    H156891   4.201   0.992   4.166 -0.3099  2.3160  1.5474
11800TIP3    H256892   4.248   0.977   4.023  1.0556 -2.3480  2.3129
11801TIP3   OH256893   6.298   2.271  11.033  0.6279  0.2268 -0.3802
11801TIP3    H156894   6.217   2.235  11.070  0.4567  0.6007 -0.3844
11801TIP3    H256895   6.324   2.209  10.966  0.1062  0.3244 -0.6766
11802TIP3   OH256896   3.909   0.390   3.780 -0.5644  0.5870  0.3190
11802TIP3    H156897   3.814   0.392   3.795 -0.8541 -0.0259 -1.1791
11802TIP3    H256898   3.918   0.354   3.691  1.1239 -0.5519  0.9065
11803TIP3   OH256899   3.490   3.480  11.285 -0.0788 -0.2769  0.1351
11803TIP3    H156900   3.532   3.406  11.329  1.0200 -0.3607 -0.9865
11803TIP3    H256901   3.439   3.441  11.214 -0.0340 -0.0053 -0.0486
11804TIP3   OH256902   5.799   0.297  16.030  0.3356 -0.5587 -0.3097
11804TIP3    H156903   5.868   0.363  16.020 -0.1589  0.0117  0.0253
11804TIP3    H256904   5.810   0.239  15.954 -0.8131  1.3558 -2.0441
11805TIP3   OH256905   5.580   5.936  13.487  0.5735  0.5632 -0.0013
11805TIP3    H156906   5.546   5.866  13.432 -2.8669  2.7415 -0.9690
11805TIP3    H256907   5.576   5.901  13.576 -0.0786 -0.8021 -0.5344
11806TIP3   OH256908   2.096   1.796   5.841 -0.1011 -0.4565  0.2603
11806TIP3    H156909   2.041   1.868   5.809  1.4504  0.3009 -0.7876
11806TIP3    H256910   2.146   1.768   5.765 -0.2178 -2.2686  0.7986
11807TIP3   OH256911   6.158   1.737   1.846  0.4559 -0.2140  0.2388
11807TIP3    H156912   6.235   1.763   1.896 -0.1202 -0.4808  1.2824
11807TIP3    H256913   6.187   1.662   1.795  1.1224  0.2221 -0.0461
11808TIP3   OH256914   5.050   0.355   5.072  0.1041 -0.0158  0.1562
11808TIP3    H156915   5.126   0.351   5.014  0.8794 -1.1631  1.1895
11808TIP3    H256916   5.034   0.448   5.085  1.7686  0.2640  0.4280
11809TIP3   OH256917   5.239   6.722  13.153 -0.5790  0.5084  0.2326
11809TIP3    H156918   5.157   6.714  13.202  0.0193 -0.2131  1.1356
11809TIP3    H256919   5.228   6.664  13.078 -1.4075  1.4392 -0.3973
11810TIP3   OH256920   1.833   1.076  10.970  0.6116 -0.0827 -0.1786
11810TIP3    H156921   1.746   1.037  10.980  1.3711 -1.7902  0.1443
11810TIP3    H256922   1.872   1.071  11.058  1.2057  0.2112 -0.4189
11811TIP3   OH256923   3.766   6.822  11.103 -0.6317 -0.0075  0.3217
11811TIP3    H156924   3.723   6.906  11.120  1.3593  1.2635 -0.6263
11811TIP3    H256925   3.854   6.832  11.139 -0.4442 -1.8290  0.4706
11812TIP3   OH256926   4.217   5.423  16.974 -0.4652  0.4373 -0.4166
11812TIP3    H156927   4.252   5.380  16.896 -0.2475  0.8283 -0.5377
11812TIP3    H256928   4.242   5.515  16.964 -0.7485  0.5569 -0.0615
11813TIP3   OH256929   4.207   3.258  11.177  0.9712  0.2179 -0.2573
11813TIP3    H156930   4.189   3.334  11.232  2.1072 -0.9006  1.7985
11813TIP3    H256931   4.294   3.275  11.140  0.3570  0.8082 -1.4913
11814TIP3   OH256932   6.829   4.846   5.404  0.2833 -0.3692 -0.2059
11814TIP3    H156933   6.858   4.826   5.316 -1.0502 -0.1564 -0.7212
11814TIP3    H256934   6.905   4.827   5.460  1.1213 -0.5487 -1.3790
11815TIP3   OH256935   4.430   3.335   5.537  0.1045  0.1145 -0.0144
11815TIP3    H156936   4.379   3.270   5.587 -0.5033  1.3853  1.0800
11815TIP3    H256937   4.519   3.326   5.570  0.3953 -1.3125 -1.0949
11816TIP3   OH256938   2.863   4.742   5.675  0.3088  0.2711  0.6331
11816TIP3    H156939   2.869   4.836   5.695 -1.5465  0.4916  0.3837
11816TIP3    H256940   2.769   4.723   5.682  0.6371 -1.5289  0.4693
11817TIP3   OH256941   3.374   2.714   4.472  0.5138 -0.1228 -0.4499
11817TIP3    H156942   3.406   2.673   4.392  0.4654  1.7149 -1.4824
11817TIP3    H256943   3.371   2.808   4.451  2.0472  0.6242  2.2342
11818TIP3   OH256944   1.602   4.435   2.780  0.5824  0.2674 -0.0730
11818TIP3    H156945   1.625   4.364   2.721 -0.7727 -0.2062 -0.0661
11818TIP3    H256946   1.524   4.475   2.741 -0.8446 -0.5587  1.7406
11819TIP3   OH256947   2.595   3.438   1.535  0.3460 -0.2983 -0.0630
11819TIP3    H156948   2.522   3.476   1.485  1.1182  0.3665 -0.7117
11819TIP3    H256949   2.590   3.481   1.621  0.4769  0.3845 -0.3898
11820TIP3   OH256950   6.023   6.057  15.865 -0.0585 -0.2813 -0.0596
11820TIP3    H156951   6.057   5.981  15.912 -1.0098 -0.3018  0.6022
11820TIP3    H256952   6.052   6.133  15.916 -1.2434 -0.3109  0.6754
11821TIP3   OH256953   1.785   3.192   6.164  0.8932  0.2616 -0.5805
11821TIP3    H156954   1.843   3.133   6.211  1.6414  0.1996 -1.5574
11821TIP3    H256955   1.705   3.142   6.150  0.3111  0.5648  1.3525
11822TIP3   OH256956   3.839   4.284  16.492  0.0118  0.7626  0.0531
11822TIP3    H156957   3.916   4.335  16.516 -0.3378  1.2462  0.1502
11822TIP3    H256958   3.860   4.249  16.405  1.8414 -2.0872  1.4941
11823TIP3   OH256959   1.702   2.643   4.056 -0.0989 -0.0537 -0.0775
11823TIP3    H156960   1.707   2.589   3.977  0.3205  0.3337 -0.3254
11823TIP3    H256961   1.630   2.704   4.039  0.1363  0.1760 -0.2579
11824TIP3   OH256962   3.846   6.063  12.809  0.2150 -0.2506 -0.0957
11824TIP3    H156963   3.874   6.028  12.893 -1.4724 -1.3969  0.0418
11824TIP3    H256964   3.927   6.079  12.761  1.1709 -0.4797  1.3822
11825TIP3   OH256965   2.884   2.846  11.842 -0.0994  0.1847 -0.5899
11825TIP3    H156966   2.934   2.862  11.762  0.6494 -0.2092 -0.2077
11825TIP3    H256967   2.916   2.913  11.903  1.5936 -1.4157  0.3674
11826TIP3   OH256968   6.552   2.048   2.738  0.3727 -0.5191  0.3674
11826TIP3    H156969   6.590   1.975   2.787  0.7467 -1.4606 -1.2639
11826TIP3    H256970   6.486   2.084   2.797 -0.3584 -2.6495  0.9557
11827TIP3   OH256971   2.599   2.135   1.785 -0.1300 -0.1994  0.1565
11827TIP3    H156972   2.658   2.106   1.854  0.1236  1.1074  0.5048
11827TIP3    H256973   2.656   2.174   1.719 -0.6057  1.4600  0.6929
11828TIP3   OH256974   0.586   3.641   0.520  0.1438  0.4106  0.4974
11828TIP3    H156975   0.603   3.548   0.530  0.2380  0.5277  1.5470
11828TIP3    H256976   0.527   3.647   0.445  0.6068 -0.4382  0.0573
11829TIP3   OH256977   5.653   0.148  13.754 -0.1324  0.3685  0.6801
11829TIP3    H156978   5.591   0.149  13.681 -0.0730 -1.4241  0.5619
11829TIP3    H256979   5.618   0.213  13.816 -3.3831 -2.0014  1.5801
11830TIP3   OH256980   4.769   3.408  11.027 -0.5053  0.7625 -0.6530
11830TIP3    H156981   4.848   3.381  11.074 -0.1018  1.0439 -1.1567
11830TIP3    H256982   4.796   3.411  10.935 -1.1999  0.5126 -0.8736
11831TIP3   OH256983   1.286   3.745  13.770 -0.0795  0.3305  0.4691
11831TIP3    H156984   1.361   3.804  13.764  1.2523 -1.3893 -0.8610
11831TIP3    H256985   1.221   3.783  13.712 -0.1290  1.6259  1.3149
11832TIP3   OH256986   3.159   0.754  14.703  0.1269  0.0375 -0.0723
11832TIP3    H156987   3.194   0.701  14.773  1.1083 -0.0897 -0.6416
11832TIP3    H256988   3.236   0.791  14.659 -0.4111 -0.4815 -1.5355
11833TIP3   OH256989   5.000   4.805   3.438 -0.0422  0.2579  0.5824
11833TIP3    H156990   4.975   4.774   3.351  0.1087 -0.6143  0.8399
11833TIP3    H256991   4.925   4.782   3.494 -0.2114  0.9677  0.6527
11834TIP3   OH256992   3.006   0.644   5.416  0.1979  0.1413 -0.3984
11834TIP3    H156993   3.012   0.736   5.391  0.2626  0.1987 -0.1767
11834TIP3    H256994   2.925   0.639   5.468  0.5968  0.2267  0.2363
11835TIP3   OH256995   1.452   3.812  15.989  0.2889  0.0515 -0.5383
11835TIP3    H156996   1.377   3.756  15.969 -1.6929  2.0335  0.8041
11835TIP3    H256997   1.422   3.901  15.969  1.7155  1.0634  1.4167
11836TIP3   OH256998   2.636   6.433   5.777  0.4449  0.1517 -0.1282
11836TIP3    H156999   2.594   6.461   5.695  0.9341  1.1458 -0.0597
11836TIP3    H257000   2.603   6.345   5.792 -0.4967  0.3703 -0.8268
11837TIP3   OH257001   3.888   2.077  11.473  0.0431 -0.0271  0.2436
11837TIP3    H157002   3.935   2.113  11.397 -0.5760 -1.1344 -0.6944
11837TIP3    H257003   3.929   1.992  11.489 -1.1733 -0.7065 -0.1607
11838TIP3   OH257004   0.854   5.590  13.063  0.2730 -0.0905 -0.1338
11838TIP3    H157005   0.815   5.671  13.031  1.3913  0.1187 -1.0683
11838TIP3    H257006   0.802   5.520  13.022 -0.7658  0.1466  0.7736
11839TIP3   OH257007   2.518   3.841  13.526 -0.0515 -0.4681  0.0508
11839TIP3    H157008   2.609   3.820  13.503  0.4044  1.2430  0.1415
11839TIP3    H257009   2.490   3.768  13.581  1.5621 -0.6483  0.7005
11840TIP3   OH257010   2.229   1.861  13.000 -0.1921 -0.0394 -0.3891
11840TIP3    H157011   2.259   1.871  13.090  0.0894 -0.2931 -0.4570
11840TIP3    H257012   2.161   1.794  13.004 -2.1798  1.8926  0.0904
11841TIP3   OH257013   6.270   2.791   6.104  0.0672  0.1092 -0.3477
11841TIP3    H157014   6.283   2.794   6.009  0.9359  0.5200 -0.2211
11841TIP3    H257015   6.356   2.811   6.141 -0.1116 -0.6941  0.5356
11842TIP3   OH257016   6.241   4.506   5.267  0.3452  0.5716 -0.0420
11842TIP3    H157017   6.314   4.526   5.325  0.8476 -0.3019 -0.3507
11842TIP3    H257018   6.271   4.531   5.180 -0.4338  1.9454  0.0581
11843TIP3   OH257019   0.187   2.305   3.729 -0.5793  0.0171 -0.2026
11843TIP3    H157020   0.246   2.252   3.783  0.5779  2.8010  1.4240
11843TIP3    H257021   0.239   2.381   3.704 -2.7617  1.3944 -0.8000
11844TIP3   OH257022   2.040   5.125   5.191 -0.4925 -0.1230 -0.2758
11844TIP3    H157023   1.979   5.065   5.148  0.0632 -0.4768 -0.5951
11844TIP3    H257024   2.080   5.174   5.119  1.1678 -1.4036 -0.2914
11845TIP3   OH257025   2.675   4.344  15.841  0.1721 -0.2435 -0.1103
11845TIP3    H157026   2.760   4.363  15.801  0.6732 -2.3834 -0.2016
11845TIP3    H257027   2.677   4.249  15.858 -0.9116  0.1776  2.9387
11846TIP3   OH257028   3.925   6.761   3.655 -0.4390  0.6355  0.4246
11846TIP3    H157029   3.890   6.849   3.644  1.8927  1.5354 -0.5163
11846TIP3    H257030   3.853   6.703   3.632 -1.7685  2.3114  0.1949
11847TIP3   OH257031   6.791   2.553  15.530 -0.1608 -0.2704 -0.1994
11847TIP3    H157032   6.807   2.459  15.536 -0.9703 -0.3360  1.8458
11847TIP3    H257033   6.697   2.560  15.512  0.1676  0.1736 -1.9312
11848TIP3   OH257034   2.776   2.587   3.331 -0.3267  0.1597  0.4496
11848TIP3    H157035   2.757   2.639   3.408  0.5819  0.4371  0.5039
11848TIP3    H257036   2.858   2.542   3.351 -0.0215  0.3132 -0.3839
11849TIP3   OH257037   5.527   6.635   3.937 -0.7239  0.9089 -0.2376
11849TIP3    H157038   5.606   6.652   3.886 -0.7788 -0.0122 -0.6512
11849TIP3    H257039   5.475   6.577   3.882 -0.0389 -1.5254  1.4814
11850TIP3   OH257040   3.844   5.565  13.065 -0.1133  0.4785  0.1010
11850TIP3    H157041   3.829   5.598  12.977 -0.4542  2.3927  0.8326
11850TIP3    H257042   3.906   5.627  13.104 -1.6920  0.9842  1.9272
11851TIP3   OH257043   2.492   2.650  12.654  0.2798 -0.5858 -0.2846
11851TIP3    H157044   2.439   2.595  12.712  1.8981 -2.1340 -0.1431
11851TIP3    H257045   2.435   2.722  12.629 -1.4433 -1.4934  0.8244
11852TIP3   OH257046   2.644   4.004  13.340 -0.2245 -0.2970  0.6365
11852TIP3    H157047   2.588   3.975  13.411 -0.2137  1.5134  1.4218
11852TIP3    H257048   2.731   3.970  13.362 -0.6553 -1.8130  0.1832
11853TIP3   OH257049   6.087   2.004  14.612 -0.4673 -0.1875 -0.1749
11853TIP3    H157050   6.009   2.060  14.612 -0.0625  0.4312 -1.5805
11853TIP3    H257051   6.079   1.953  14.531  0.1009 -0.8352  0.1714
11854TIP3   OH257052   6.605   2.253  15.680  0.0945  0.0758  0.2595
11854TIP3    H157053   6.626   2.304  15.759  1.6579  0.0553 -0.1113
11854TIP3    H257054   6.587   2.320  15.614 -1.3536  0.0935  0.6278
11855TIP3   OH257055   4.997   4.622  13.984 -0.1015 -0.4677 -0.1010
11855TIP3    H157056   4.970   4.650  13.896  0.2552  1.4737  0.3670
11855TIP3    H257057   5.082   4.581  13.971 -0.5648 -1.2665 -0.7888
11856TIP3   OH257058   4.967   1.763  14.754  0.1410  0.4884  0.3243
11856TIP3    H157059   4.958   1.668  14.745  0.3367  0.4937  0.0687
11856TIP3    H257060   4.910   1.799  14.686  0.4929  0.5476  0.0615
11857TIP3   OH257061   5.420   1.011  14.395 -0.0711 -0.2550  0.4466
11857TIP3    H157062   5.431   1.037  14.303 -1.7843  0.5088  0.4228
11857TIP3    H257063   5.494   1.051  14.440  1.8723 -2.1636 -0.8220
11858TIP3   OH257064   0.914   5.064   4.486 -0.1380  0.2593  0.3295
11858TIP3    H157065   0.938   5.156   4.492 -1.3845  0.6339 -0.0932
11858TIP3    H257066   0.824   5.065   4.452 -0.2414 -1.1023  0.5168
11859TIP3   OH257067   0.679   3.464   4.384 -0.3669  0.7068 -0.1021
11859TIP3    H157068   0.753   3.448   4.325 -1.3751 -1.6175 -0.8546
11859TIP3    H257069   0.648   3.376   4.408 -3.1833  1.5795 -0.2224
11860TIP3   OH257070   2.597   4.205  16.620 -0.0200  0.2340  0.2898
11860TIP3    H157071   2.572   4.283  16.571  0.0270  0.5596  0.7754
11860TIP3    H257072   2.658   4.158  16.563 -2.0551 -0.8261 -1.1362
11861TIP3   OH257073   3.928   0.666   2.123 -0.1033  0.5146 -0.1829
11861TIP3    H157074   3.962   0.624   2.043 -1.7940 -0.8321 -0.2529
11861TIP3    H257075   3.973   0.750   2.126  1.0055  0.0456 -1.8321
11862TIP3   OH257076   3.304   5.746   3.287 -0.9298 -0.0514  0.1771
11862TIP3    H157077   3.352   5.759   3.369 -1.6496  0.7023  0.4946
11862TIP3    H257078   3.277   5.835   3.260  1.5770  0.1059 -2.3222
11863TIP3   OH257079   3.738   2.632   3.799  0.1985  0.6633 -0.3416
11863TIP3    H157080   3.815   2.639   3.856 -0.8700  3.3452  0.9644
11863TIP3    H257081   3.665   2.619   3.860 -0.7368  1.4202 -1.2670
11864TIP3   OH257082   0.103   6.063   0.803  0.2249  0.2215  0.3132
11864TIP3    H157083   0.114   5.983   0.855 -0.2735  0.1326  0.2872
11864TIP3    H257084   0.053   6.035   0.726 -0.5396  0.6837  0.6310
11865TIP3   OH257085   4.042   3.404  15.095  0.2526  0.1632  0.6925
11865TIP3    H157086   4.037   3.466  15.022  0.1654 -0.7141 -0.0640
11865TIP3    H257087   4.071   3.457  15.170  0.8865  0.9774 -0.1052
11866TIP3   OH257088   6.411   5.961  14.292  0.6354  0.1013  0.2132
11866TIP3    H157089   6.413   5.885  14.235 -0.0646  0.7535 -0.7067
11866TIP3    H257090   6.344   6.018  14.254  0.5020  0.7743  1.4003
11867TIP3   OH257091   4.290   2.906  14.365  0.0031  0.0304 -0.1990
11867TIP3    H157092   4.201   2.930  14.337 -0.0271  0.4286  0.2368
11867TIP3    H257093   4.303   2.952  14.447  1.0190  0.8450 -0.7888
11868TIP3   OH257094   4.629   0.104  15.998 -0.4778 -0.3182 -0.0378
11868TIP3    H157095   4.683   0.176  15.963 -0.1991 -1.1807 -1.4498
11868TIP3    H257096   4.690   0.053  16.051 -0.2381 -0.5134 -0.4975
11869TIP3   OH257097   0.941   5.811   2.384  0.1331 -0.3201  0.1691
11869TIP3    H157098   0.882   5.838   2.455  0.3033  0.4805  0.0094
11869TIP3    H257099   1.029   5.824   2.419  0.2267  0.8007 -0.4407
11870TIP3   OH257100   4.154   6.384  14.994  0.1307  0.3057 -0.6181
11870TIP3    H157101   4.122   6.294  14.992 -0.2504  0.3726  1.0671
11870TIP3    H257102   4.204   6.393  14.913  2.0784 -2.1236  0.1880
11871TIP3   OH257103   0.783   3.086  13.888 -0.3891 -0.7807 -0.1941
11871TIP3    H157104   0.740   3.155  13.839 -2.2421 -0.4831  1.7220
11871TIP3    H257105   0.767   3.006  13.838  1.5389  0.0450 -2.2821
11872TIP3   OH257106   3.313   3.149  15.259 -0.5159 -0.0388  0.2946
11872TIP3    H157107   3.248   3.216  15.237  0.5213  0.3503 -1.8659
11872TIP3    H257108   3.308   3.087  15.187 -0.4264 -1.5493  1.5364
11873TIP3   OH257109   3.872   4.465   4.873 -0.2713 -0.2855 -0.6014
11873TIP3    H157110   3.852   4.474   4.966 -0.7314 -0.8190 -0.6444
11873TIP3    H257111   3.810   4.523   4.829  2.1814  2.7787 -0.4221
11874TIP3   OH257112   0.712   5.653   5.172  0.0877  0.0877 -0.6289
11874TIP3    H157113   0.712   5.558   5.183  0.4275  0.1079 -0.4085
11874TIP3    H257114   0.781   5.669   5.108  1.0188  0.2831  0.3873
11875TIP3   OH257115   1.765   0.429   0.421 -0.3931  0.1574 -0.1131
11875TIP3    H157116   1.836   0.460   0.366 -0.8696 -0.4404 -1.0937
11875TIP3    H257117   1.805   0.361   0.476 -0.2715 -0.4218 -0.9013
11876TIP3   OH257118   4.700   5.628  14.310  0.0030 -0.2081  0.0660
11876TIP3    H157119   4.675   5.587  14.228 -1.4043  0.9330 -0.1224
11876TIP3    H257120   4.779   5.678  14.290  1.5782 -2.4899  0.2362
11877TIP3   OH257121   5.642   5.194  15.922 -0.1326 -0.1879  0.4818
11877TIP3    H157122   5.697   5.144  15.982 -0.0258 -1.1212 -0.3658
11877TIP3    H257123   5.648   5.146  15.839 -1.1507  0.4554  0.0219
11878TIP3   OH257124   2.942   4.504  12.905  0.1226 -0.4040 -0.3132
11878TIP3    H157125   2.981   4.574  12.853  0.3318 -0.5325 -0.3313
11878TIP3    H257126   2.982   4.514  12.991 -0.0241 -0.3573 -0.2498
11879TIP3   OH257127   5.812   4.687   1.989 -0.1768 -0.0104  0.0515
11879TIP3    H157128   5.784   4.753   2.053 -1.2808 -0.2844 -0.1169
11879TIP3    H257129   5.879   4.636   2.034 -0.8901 -0.1511  0.9903
11880TIP3   OH257130   2.350   0.963   5.203  0.6064  1.1139 -0.0074
11880TIP3    H157131   2.434   0.962   5.250  0.7608 -0.2889 -0.2695
11880TIP3    H257132   2.300   0.892   5.242 -0.3910  1.7790 -0.0264
11881TIP3   OH257133   4.626   5.552   1.141 -1.0142 -0.2756 -0.3026
11881TIP3    H157134   4.556   5.511   1.191 -0.2153 -0.8685  0.3624
11881TIP3    H257135   4.618   5.645   1.158 -1.1691 -0.4139  0.3819
11882TIP3   OH257136   0.936   4.274   1.099  0.0427  0.0226 -0.2070
11882TIP3    H157137   1.013   4.302   1.148  0.7984  0.8934 -1.7740
11882TIP3    H257138   0.969   4.209   1.037 -0.8077 -0.8201  0.2139
11883TIP3   OH257139   0.290   3.593  14.724 -0.0465 -0.2135 -0.1401
11883TIP3    H157140   0.383   3.602  14.745  0.2807 -1.3406 -1.0112
11883TIP3    H257141   0.287   3.600  14.628 -0.7133 -1.3201 -0.2087
11884TIP3   OH257142   3.147   3.086   2.656  0.1408  0.5074  0.6522
11884TIP3    H157143   3.161   3.069   2.749  0.2097 -1.7639  0.2606
11884TIP3    H257144   3.226   3.053   2.613 -0.4257  0.4035 -0.3276
11885TIP3   OH257145   4.109   0.210  12.828 -0.1276 -0.2240  0.4267
11885TIP3    H157146   4.049   0.183  12.898 -2.6650 -1.4442 -2.0298
11885TIP3    H257147   4.151   0.129  12.799  1.5441  0.3936  1.0004
11886TIP3   OH257148   2.989   1.781   0.881  0.0322 -0.0356 -0.2247
11886TIP3    H157149   2.959   1.696   0.913 -0.2652  0.2685  0.3390
11886TIP3    H257150   3.049   1.761   0.809  0.1219 -0.7261  0.0354
11887TIP3   OH257151   2.860   0.519  15.245 -0.2572 -0.1165  0.2435
11887TIP3    H157152   2.790   0.518  15.310 -0.6572 -1.1840 -0.1872
11887TIP3    H257153   2.828   0.464  15.173 -0.2614  1.8644 -1.3568
11888TIP3   OH257154   4.860   2.943   2.493 -0.1481  0.8084 -0.1396
11888TIP3    H157155   4.938   2.995   2.512 -0.5976  1.2739  0.4577
11888TIP3    H257156   4.838   2.902   2.577  0.8320 -1.2454 -0.8226
11889TIP3   OH257157   3.601   4.579  16.136 -0.0644 -0.0506 -0.0311
11889TIP3    H157158   3.623   4.487  16.123 -1.1920 -0.1201 -1.7623
11889TIP3    H257159   3.526   4.578  16.196 -2.8510 -0.6619 -3.2209
11890TIP3   OH257160   3.972   2.870   1.467 -0.1312 -0.0710  0.1798
11890TIP3    H157161   4.046   2.897   1.521  0.0833  0.3162 -0.3032
11890TIP3    H257162   3.999   2.889   1.377 -0.5828 -0.4746 -0.0484
11891TIP3   OH257163   1.679   1.748   6.515 -0.9602 -0.4498 -0.0702
11891TIP3    H157164   1.631   1.752   6.432  1.2368  0.5617 -1.3807
11891TIP3    H257165   1.668   1.657   6.545 -0.9623 -1.1274 -2.0091
11892TIP3   OH257166   3.790   4.044  14.067  0.5268  0.5696  0.4879
11892TIP3    H157167   3.801   4.130  14.106  1.3745  0.1366  1.2370
11892TIP3    H257168   3.874   4.000  14.081  0.3979 -0.0805 -0.6422
11893TIP3   OH257169   4.209   0.400   6.208  0.0942  0.4354  0.1456
11893TIP3    H157170   4.156   0.480   6.213  0.4974  0.6052  3.0429
11893TIP3    H257171   4.299   0.431   6.208  0.2520  0.0010 -0.5174
11894TIP3   OH257172   4.368   4.404  14.196  0.1276 -0.3019  0.2910
11894TIP3    H157173   4.337   4.490  14.168  0.4664 -0.2018  0.2188
11894TIP3    H257174   4.359   4.406  14.291  0.3024 -0.1137  0.3071
11895TIP3   OH257175   0.484   1.906  14.785 -0.2236 -0.1151  0.2580
11895TIP3    H157176   0.489   1.894  14.880 -0.3788  2.3295  0.6196
11895TIP3    H257177   0.575   1.914  14.757 -0.2415  2.7062  0.7751
11896TIP3   OH257178   5.118   3.958  12.674  0.2850 -0.4743  0.7604
11896TIP3    H157179   5.097   4.032  12.617  2.1552  0.5577  1.3098
11896TIP3    H257180   5.088   3.881  12.625 -0.7704  0.5522 -0.2952
11897TIP3   OH257181   5.378   3.712  12.790 -0.4461 -0.1698  0.4570
11897TIP3    H157182   5.302   3.770  12.785 -0.4940 -0.0453  2.0982
11897TIP3    H257183   5.441   3.759  12.846  0.9824 -0.1391 -1.0944
11898TIP3   OH257184   3.061   4.072  13.882 -0.4533  0.0058 -0.2488
11898TIP3    H157185   3.093   4.142  13.824  1.1698 -1.2726 -0.9779
11898TIP3    H257186   3.087   3.991  13.838 -1.8828 -1.0648  0.8099
11899TIP3   OH257187   3.819   3.216  15.949  0.1118 -0.4616 -0.5436
11899TIP3    H157188   3.813   3.122  15.931  0.4625 -0.6016  0.0636
11899TIP3    H257189   3.903   3.243  15.910  1.0377 -0.8328  1.1187
11900TIP3   OH257190   2.285   2.313   1.162  0.2926  0.2596 -0.5012
11900TIP3    H157191   2.212   2.339   1.219  1.7266 -0.1173  1.5910
11900TIP3    H257192   2.244   2.303   1.076 -2.3830 -1.0351  0.7812
11901TIP3   OH257193   2.251   3.029   3.152  0.9384  0.7429  0.1175
11901TIP3    H157194   2.274   3.067   3.067 -0.2602  1.5338  0.1123
11901TIP3    H257195   2.289   3.089   3.216 -0.0069  1.3643  0.1140
11902TIP3   OH257196   5.984   0.466   3.923  0.2715 -0.1256 -0.1772
11902TIP3    H157197   6.059   0.441   3.869 -1.4459 -1.2132 -2.1988
11902TIP3    H257198   6.023   0.488   4.008  2.7568 -1.7732 -0.7567
11903TIP3   OH257199   4.319   2.230  16.982  0.2400  0.3194  0.4788
11903TIP3    H157200   4.297   2.137  16.991  2.1383 -0.1743  0.3711
11903TIP3    H257201   4.276   2.256  16.900 -1.8515  0.0740  1.4205
11904TIP3   OH257202   1.999   3.347  13.352 -0.0933  0.0041 -0.0711
11904TIP3    H157203   1.990   3.404  13.275 -2.1209 -1.3454 -0.9148
11904TIP3    H257204   2.085   3.306  13.341  0.0282  0.5009 -1.1443
11905TIP3   OH257205   5.107   1.696   0.793 -0.5883  0.6287  0.1830
11905TIP3    H157206   5.028   1.728   0.835 -1.9038 -0.4648 -1.3040
11905TIP3    H257207   5.153   1.774   0.763 -1.1556  1.2733  0.9846
11906TIP3   OH257208   4.316   4.393  12.641  0.0462 -0.4107  0.3948
11906TIP3    H157209   4.234   4.437  12.619  0.4126  0.5078  0.8046
11906TIP3    H257210   4.289   4.312  12.685 -0.6669 -1.4312 -1.7928
11907TIP3   OH257211   6.032   6.839   2.719 -0.0008 -0.1694  0.2717
11907TIP3    H157212   5.980   6.919   2.730  0.0155 -0.2503  0.9550
11907TIP3    H257213   6.087   6.857   2.643 -0.3811  0.2627  0.0927
11908TIP3   OH257214   0.558   2.853   3.674 -0.1020 -0.0099 -0.3345
11908TIP3    H157215   0.518   2.878   3.757  0.9812  0.6603  0.0052
11908TIP3    H257216   0.649   2.882   3.681 -0.1668  0.7802 -2.0430
11909TIP3   OH257217   3.279   3.516  15.130  0.2508  0.7555 -0.1232
11909TIP3    H157218   3.331   3.555  15.200  0.3986  0.3826 -0.0212
11909TIP3    H257219   3.189   3.544  15.148  0.5153  2.0839 -0.7673
11910TIP3   OH257220   0.551   5.931  15.883 -0.2994 -0.1531 -0.2595
11910TIP3    H157221   0.640   5.904  15.861 -0.1061  1.6672 -1.9751
11910TIP3    H257222   0.554   6.026  15.878 -2.2271 -0.0461  0.2005
11911TIP3   OH257223   5.711   4.498  15.941  0.3615  0.4885  0.1938
11911TIP3    H157224   5.740   4.572  15.994  1.7186  0.7314 -0.8354
11911TIP3    H257225   5.723   4.421  15.996  1.0288  0.8088  0.4995
11912TIP3   OH257226   2.389   3.992   1.050  0.3124 -0.6168  0.3700
11912TIP3    H157227   2.401   3.994   0.955 -1.7645  4.2356 -0.0761
11912TIP3    H257228   2.471   3.955   1.084  2.8427  1.2047 -3.1958
11913TIP3   OH257229   4.635   2.184   3.588 -0.2251 -0.2832  0.1035
11913TIP3    H157230   4.551   2.213   3.554 -0.4193 -2.0071 -1.0281
11913TIP3    H257231   4.670   2.127   3.520  1.5558 -0.1414  0.8459
11914TIP3   OH257232   1.173   5.270  16.988  0.0580 -0.0673  0.0984
11914TIP3    H157233   1.265   5.281  17.012  0.5310  1.0131 -1.9366
11914TIP3    H257234   1.133   5.356  17.006 -0.5364 -0.5018  0.8902
11915TIP3   OH257235   0.503   2.244   3.677 -1.2013  0.6458  0.6440
11915TIP3    H157236   0.576   2.305   3.664  0.0551 -0.9611 -0.0434
11915TIP3    H257237   0.441   2.266   3.608 -1.2033  1.7124  0.9521
11916TIP3   OH257238   5.591   0.259   1.244 -0.2373  0.1280  0.5691
11916TIP3    H157239   5.631   0.344   1.260 -0.9954  0.4325  0.8474
11916TIP3    H257240   5.497   0.274   1.253 -0.3749 -0.7400  0.6531
11917TIP3   OH257241   2.950   0.136  15.550 -0.1941 -0.3850 -0.2318
11917TIP3    H157242   3.013   0.107  15.616 -1.6197 -1.3901  0.7579
11917TIP3    H257243   2.926   0.225  15.577 -1.1050 -0.9543  0.9079
11918TIP3   OH257244   0.040   2.009  15.406 -0.2833  0.1739 -0.0357
11918TIP3    H157245  -0.020   1.970  15.469  0.4110  0.8682  1.0868
11918TIP3    H257246  -0.005   1.999  15.322 -0.5290 -2.1701  0.3173
11919TIP3   OH257247   2.692   5.243  14.418  0.0319 -0.0719  0.3945
11919TIP3    H157248   2.739   5.168  14.382  1.0017 -0.5379  2.4560
11919TIP3    H257249   2.693   5.309  14.348  0.3491 -1.4677 -0.9621
11920TIP3   OH257250   0.186   1.246   3.668 -0.0774 -0.2059  0.2252
11920TIP3    H157251   0.138   1.326   3.688  2.9719  1.1567  2.9592
11920TIP3    H257252   0.132   1.176   3.705 -2.1241  0.6277 -0.9925
11921TIP3   OH257253   0.881   2.775  12.923 -0.0293  0.3472 -0.2224
11921TIP3    H157254   0.886   2.682  12.945 -0.0352  0.2551 -0.6178
11921TIP3    H257255   0.792   2.800  12.945 -0.4101 -0.0358 -1.2982
11922TIP3   OH257256   5.029   1.524  16.666 -0.3587 -0.2969  0.2065
11922TIP3    H157257   5.087   1.483  16.730  0.9864 -0.9426 -1.3706
11922TIP3    H257258   4.982   1.452  16.626  0.6376 -0.1858 -1.2485
11923TIP3   OH257259   0.791   1.985  13.961 -0.4187 -0.3239 -0.2698
11923TIP3    H157260   0.737   2.060  13.986 -0.5463 -0.7660  0.8573
11923TIP3    H257261   0.869   2.023  13.921 -1.1446  0.3538 -1.0845
11924TIP3   OH257262   4.619   1.031  15.167 -0.3879 -0.3907 -0.1016
11924TIP3    H157263   4.626   0.987  15.082 -0.7082  0.1394 -0.4065
11924TIP3    H257264   4.700   1.008  15.212  0.8288  1.0890 -1.3951
11925TIP3   OH257265   2.950   6.676  12.616  0.1846 -0.1044  0.1612
11925TIP3    H157266   2.858   6.673  12.644  0.3473 -0.4335  0.6774
11925TIP3    H257267   2.999   6.673  12.698  0.7087 -2.2247 -0.1775
11926TIP3   OH257268   4.158   3.741   4.139  0.5032 -0.6069 -0.1057
11926TIP3    H157269   4.223   3.807   4.161 -0.8081  1.1538 -1.3002
11926TIP3    H257270   4.169   3.673   4.205  1.5542  1.0387  1.4790
11927TIP3   OH257271   6.320   5.584  11.326  0.1389 -0.3152  0.2432
11927TIP3    H157272   6.385   5.609  11.392 -0.0574 -0.0754  0.3509
11927TIP3    H257273   6.305   5.665  11.276  0.4358 -0.5472 -0.2260
11928TIP3   OH257274   5.600   6.335   3.071 -0.0297 -0.5765 -0.5074
11928TIP3    H157275   5.615   6.252   3.117 -1.4532 -2.1643 -2.7420
11928TIP3    H257276   5.539   6.383   3.127  2.0979 -0.1851  1.6592
11929TIP3   OH257277   4.991   2.004  10.397  0.3309 -0.5518 -0.1252
11929TIP3    H157278   5.023   1.927  10.444 -0.0500  0.3984  1.7672
11929TIP3    H257279   5.064   2.065  10.397 -0.1838  0.0825  0.6932
11930TIP3   OH257280   3.080   2.092  12.204 -0.5950  0.0321 -0.4086
11930TIP3    H157281   3.113   2.103  12.115 -0.1650  0.0776 -0.2452
11930TIP3    H257282   2.986   2.074  12.193 -0.2752 -1.4426 -0.9397
11931TIP3   OH257283   0.803   5.902   0.062 -0.2574  0.1204 -0.0644
11931TIP3    H157284   0.733   5.847   0.026  0.8200 -1.7277  0.5259
11931TIP3    H257285   0.793   5.986   0.016 -1.2638 -0.9089 -1.8713
11932TIP3   OH257286   3.471   5.720  11.174 -0.1511 -0.0510  0.3891
11932TIP3    H157287   3.507   5.765  11.098  0.3778 -0.9333  0.1132
11932TIP3    H257288   3.547   5.699  11.228 -0.0329 -2.8614 -0.6965
11933TIP3   OH257289   5.251   2.739  11.004 -0.0254  0.2956  0.3508
11933TIP3    H157290   5.281   2.819  10.961  0.1593  1.0343  1.7903
11933TIP3    H257291   5.310   2.671  10.972  0.5360  0.9568 -0.0399
11934TIP3   OH257292   5.091   2.868   0.278  0.0686 -0.1849 -0.1906
11934TIP3    H157293   5.015   2.876   0.336  0.0681 -0.7328 -0.1077
11934TIP3    H257294   5.160   2.917   0.322  0.2667 -1.1755  0.6318
11935TIP3   OH257295   0.615   6.293   2.548 -0.4593 -0.6974  0.4130
11935TIP3    H157296   0.564   6.351   2.490 -0.6947 -1.1636  0.1483
11935TIP3    H257297   0.626   6.212   2.497  2.1681  0.0189 -0.3171
11936TIP3   OH257298   6.332   2.800  13.395 -0.1897 -0.3169 -0.3568
11936TIP3    H157299   6.288   2.878  13.431  0.5943  0.6462 -1.4051
11936TIP3    H257300   6.275   2.771  13.324  0.2511  0.2053 -0.9308
11937TIP3   OH257301   0.022   3.656  15.630 -0.2286  0.0187 -0.3631
11937TIP3    H157302  -0.012   3.569  15.650  0.5231 -0.1278  0.3246
11937TIP3    H257303  -0.031   3.686  15.556 -2.0589 -0.0501  0.8744
11938TIP3   OH257304   1.541   5.320  14.397 -0.0944 -0.0406  0.4000
11938TIP3    H157305   1.630   5.284  14.395 -0.1605 -0.2163 -0.9993
11938TIP3    H257306   1.549   5.401  14.446  1.0474  0.3924 -0.4396
11939TIP3   OH257307   4.139   3.648   5.393  0.2324 -0.2100 -0.2729
11939TIP3    H157308   4.057   3.630   5.439 -0.6817  0.7493 -1.4594
11939TIP3    H257309   4.145   3.744   5.390  0.6031 -0.2476 -1.5141
11940TIP3   OH257310   4.737   0.102   1.743  0.9452  0.3132  0.2002
11940TIP3    H157311   4.718   0.026   1.688 -0.0887  2.5662 -2.8677
11940TIP3    H257312   4.781   0.164   1.684  1.2035  2.3233  2.3552
11941TIP3   OH257313   1.987   4.471  13.464 -0.2242  0.0478  0.2049
11941TIP3    H157314   2.048   4.399  13.447 -0.8165 -0.9931  2.1355
11941TIP3    H257315   1.990   4.525  13.385 -0.3522 -2.5231 -1.6721
11942TIP3   OH257316   1.489   3.646   0.106 -0.8425 -0.2850 -0.1687
11942TIP3    H157317   1.411   3.625   0.157  0.3755 -0.3205  1.7973
11942TIP3    H257318   1.481   3.593   0.027 -3.3586  0.6167 -0.6032
11943TIP3   OH257319   6.275   0.845  16.502  0.2353 -0.1060 -0.1155
11943TIP3    H157320   6.181   0.839  16.520 -0.3026 -0.7950 -2.7651
11943TIP3    H257321   6.317   0.801  16.576 -1.4703  0.3637  1.2061
11944TIP3   OH257322   1.861   0.201   4.011  0.4998  0.1361  0.3015
11944TIP3    H157323   1.815   0.186   3.929 -0.0665 -1.7952  0.9162
11944TIP3    H257324   1.918   0.276   3.993 -0.9089  0.8948 -1.2792
11945TIP3   OH257325   5.397   6.607  14.659  0.0875  0.5017 -0.4312
11945TIP3    H157326   5.366   6.627  14.570  0.6335 -0.7856 -0.9404
11945TIP3    H257327   5.488   6.635  14.659 -1.1452  5.6563  1.5226
11946TIP3   OH257328   4.779   5.911  12.204  0.1158 -0.0307 -0.2780
11946TIP3    H157329   4.843   5.953  12.261 -1.9482  0.4952  1.7933
11946TIP3    H257330   4.760   5.827  12.248 -0.8659 -0.0162 -0.6550
11947TIP3   OH257331   2.974   3.269   1.755  0.0520  0.4198  0.4800
11947TIP3    H157332   3.034   3.233   1.820 -1.7196  0.5692  2.3102
11947TIP3    H257333   2.933   3.192   1.716  0.4604  0.3487  0.1853
11948TIP3   OH257334   1.171   6.579  15.892  0.0821  0.2170 -0.2815
11948TIP3    H157335   1.209   6.641  15.954  1.1275  0.3907 -1.0525
11948TIP3    H257336   1.077   6.586  15.905  0.1801  1.7770 -0.1461
11949TIP3   OH257337   2.304   5.980  11.921 -0.0884  0.2717 -0.6141
11949TIP3    H157338   2.273   6.071  11.925  0.3491  0.4120  3.3261
11949TIP3    H257339   2.396   5.987  11.895 -0.5303  0.7385 -2.1465
11950TIP3   OH257340   3.766   1.550  15.827  0.8823 -0.0159 -0.3658
11950TIP3    H157341   3.772   1.455  15.818 -0.2667 -0.1919  0.4787
11950TIP3    H257342   3.677   1.566  15.857  1.7996  1.1429  1.9802
11951TIP3   OH257343   0.013   3.167  13.812 -0.3204  0.5584 -0.1814
11951TIP3    H157344   0.024   3.261  13.796  2.3022  0.5452  0.9899
11951TIP3    H257345   0.070   3.125  13.748  2.0198  0.0506  2.0951
11952TIP3   OH257346   0.799   3.701  11.941  0.0559  0.2992  0.6665
11952TIP3    H157347   0.847   3.778  11.970  0.3878  1.0807 -1.7665
11952TIP3    H257348   0.864   3.631  11.940 -0.3523 -0.2317  3.3425
11953TIP3   OH257349   3.422   1.932  12.165  0.3073  0.4687 -0.2487
11953TIP3    H157350   3.430   1.886  12.082 -2.0357  1.2290 -0.9648
11953TIP3    H257351   3.345   1.894  12.207  0.6067  1.0942  0.9376
11954TIP3   OH257352   6.809   1.067   4.362  0.1157 -0.3710  0.4425
11954TIP3    H157353   6.752   1.009   4.312  0.4672  0.5411 -1.0725
11954TIP3    H257354   6.896   1.027   4.356  0.1995 -0.1398  0.1465
11955TIP3   OH257355   6.517   4.524   4.023  0.1542 -0.6603 -0.2399
11955TIP3    H157356   6.574   4.547   4.097  1.5495 -1.9933 -0.8496
11955TIP3    H257357   6.444   4.476   4.063 -0.6582  1.1437  0.5617
11956TIP3   OH257358   1.111   5.445   4.380  0.5550  0.4861 -0.6849
11956TIP3    H157359   1.061   5.379   4.332  1.2241 -0.0713 -0.6413
11956TIP3    H257360   1.109   5.415   4.471 -1.5154  2.0373 -0.1411
11957TIP3   OH257361   1.570   4.354  13.335  0.6665  0.3871  0.2240
11957TIP3    H157362   1.649   4.365  13.282 -0.3175  0.1649 -1.3443
11957TIP3    H257363   1.498   4.368  13.274 -0.5204 -0.1665  1.4484
11958TIP3   OH257364   5.253   6.592  16.807  0.2701  0.0858 -0.7017
11958TIP3    H157365   5.254   6.551  16.894 -0.3172 -0.4094 -0.9202
11958TIP3    H257366   5.269   6.520  16.746 -1.2254  0.0639 -1.1202
11959TIP3   OH257367   6.723   6.553  15.276  0.3862  0.0651  0.1562
11959TIP3    H157368   6.680   6.540  15.192  1.7028 -0.7681 -0.4122
11959TIP3    H257369   6.799   6.608  15.256  1.6767 -1.5321  0.4596
11960TIP3   OH257370   0.224   0.902   2.145  0.3453 -0.5167 -0.6843
11960TIP3    H157371   0.251   0.829   2.200  1.2512  0.2119 -0.1287
11960TIP3    H257372   0.128   0.898   2.144  0.2860 -0.4450  1.1188
11961TIP3   OH257373   2.549   4.803  16.720  0.2340  0.1777 -0.3160
11961TIP3    H157374   2.508   4.870  16.774 -0.2986  0.2037 -0.7411
11961TIP3    H257375   2.571   4.847  16.638  0.6313  0.0328 -0.2891
11962TIP3   OH257376   0.285   6.393   5.055  0.0653  0.6830 -0.8136
11962TIP3    H157377   0.236   6.471   5.029  1.0360  1.1960 -1.1671
11962TIP3    H257378   0.302   6.347   4.973 -0.2268  0.2647 -0.6418
11963TIP3   OH257379   2.838   5.696   4.191 -0.0709 -0.4417 -0.1667
11963TIP3    H157380   2.751   5.736   4.185  0.2474  0.0788 -1.8607
11963TIP3    H257381   2.829   5.613   4.144  0.5699  0.0899 -1.2850
11964TIP3   OH257382   6.628   0.911   0.249 -0.5092  0.5697  0.5174
11964TIP3    H157383   6.616   0.838   0.309 -2.6243 -1.0542 -1.6786
11964TIP3    H257384   6.705   0.887   0.197 -2.1262 -1.0588 -1.2893
11965TIP3   OH257385   6.701   6.627   0.236 -0.1498  0.2467 -0.2762
11965TIP3    H157386   6.639   6.562   0.270  0.4742 -0.8768 -1.2109
11965TIP3    H257387   6.665   6.652   0.151  0.8264 -0.6750 -0.9833
11966TIP3   OH257388   2.328   5.464  10.593 -0.1223 -0.6642  0.2039
11966TIP3    H157389   2.333   5.542  10.539 -0.8760 -1.1316 -0.5721
11966TIP3    H257390   2.367   5.395  10.539 -1.6004 -1.3041 -0.0878
11967TIP3   OH257391   3.792   0.908   5.087  0.2781 -0.2759 -0.3555
11967TIP3    H157392   3.886   0.893   5.095  0.0077 -1.5553  0.6391
11967TIP3    H257393   3.779   0.998   5.116  1.1856 -0.1043 -0.4681
11968TIP3   OH257394   5.224   5.120  11.125  0.4421  0.0196 -0.9371
11968TIP3    H157395   5.210   5.210  11.097  1.5733  0.0167 -1.5625
11968TIP3    H257396   5.140   5.077  11.109 -0.5552  1.2602  0.6622
11969TIP3   OH257397   6.098   5.932   0.030 -0.2332 -0.1266  0.0891
11969TIP3    H157398   6.028   5.867   0.021 -1.5155  0.7426  2.7887
11969TIP3    H257399   6.052   6.015   0.044  1.3551  0.7403  0.3720
11970TIP3   OH257400   0.934   3.553   1.015  0.0596  0.6374 -0.3259
11970TIP3    H157401   0.864   3.601   0.971 -0.9664 -1.0989 -0.6534
11970TIP3    H257402   0.959   3.610   1.088 -1.4035  1.4934 -0.4456
11971TIP3   OH257403   3.985   1.992  16.837 -0.3933  0.0053 -0.3915
11971TIP3    H157404   3.977   2.077  16.793 -0.5342 -0.3954 -1.1510
11971TIP3    H257405   3.901   1.980  16.880 -0.0191  0.7090  0.5716
11972TIP3   OH257406   0.268   4.262  14.833  0.0867  0.5750 -0.7142
11972TIP3    H157407   0.281   4.286  14.925 -0.6921 -2.0762  0.1707
11972TIP3    H257408   0.340   4.202  14.814 -0.6493 -0.1198 -1.3430
11973TIP3   OH257409   2.003   5.728   2.439 -0.5569  0.4373  0.2677
11973TIP3    H157410   1.920   5.695   2.472  0.1419 -0.5574  1.1087
11973TIP3    H257411   2.011   5.691   2.351  0.2060 -1.7082  1.1856
11974TIP3   OH257412   6.029   3.490  13.995 -0.2096 -0.5274  0.5489
11974TIP3    H157413   6.012   3.398  14.014 -0.2586 -0.5452  0.4253
11974TIP3    H257414   5.942   3.526  13.975 -0.1853 -0.4648  0.5548
11975TIP3   OH257415   5.790   5.508   1.720 -0.3901 -0.1630 -0.5811
11975TIP3    H157416   5.802   5.592   1.677 -0.8508  0.0757 -0.2443
11975TIP3    H257417   5.719   5.465   1.672 -0.1706 -0.3528 -0.7393
11976TIP3   OH257418   2.808   1.126   2.452 -0.1950  0.6483  0.7697
11976TIP3    H157419   2.756   1.046   2.466 -1.3240  1.2727  0.2492
11976TIP3    H257420   2.782   1.157   2.366 -0.7915  2.3217  1.5240
11977TIP3   OH257421   0.540   5.301  14.935  0.5087  0.1259  0.2819
11977TIP3    H157422   0.626   5.299  14.893  0.8094 -0.1151  0.8991
11977TIP3    H257423   0.495   5.375  14.894  0.3484 -0.8156 -1.3165
11978TIP3   OH257424   3.003   5.717  12.102  0.2064 -0.0297 -0.2601
11978TIP3    H157425   3.033   5.802  12.134  0.2454 -1.0263  2.5854
11978TIP3    H257426   3.066   5.694  12.033  1.0522  1.5899 -0.0743
11979TIP3   OH257427   1.074   1.349  11.125  0.0610 -0.2905  0.0906
11979TIP3    H157428   1.110   1.265  11.097 -1.4306 -0.3387 -1.8173
11979TIP3    H257429   1.142   1.386  11.182 -0.0867 -3.6587  2.7825
11980TIP3   OH257430   1.907   5.002  14.042  0.2258 -0.4465 -0.6099
11980TIP3    H157431   1.916   4.907  14.035  0.4166 -0.6040  1.3265
11980TIP3    H257432   1.955   5.026  14.121 -0.6602  1.1355 -0.4893
11981TIP3   OH257433   0.954   1.347   4.453 -0.0017 -0.6078  0.2719
11981TIP3    H157434   0.985   1.263   4.485  2.4352  0.3274  0.6015
11981TIP3    H257435   1.034   1.400   4.442 -1.4564  1.8049  0.5117
11982TIP3   OH257436   6.461   0.637   5.315 -0.2705  0.2076 -0.5490
11982TIP3    H157437   6.463   0.721   5.270 -0.9096  1.4902  1.6659
11982TIP3    H257438   6.382   0.594   5.282 -0.9790  1.3084 -0.3367
11983TIP3   OH257439   2.959   0.802  15.178  0.3429  0.2625 -0.2278
11983TIP3    H157440   2.871   0.816  15.144  0.5432  3.8195  0.3224
11983TIP3    H257441   2.948   0.738  15.249 -1.5953 -0.0249 -0.7433
11984TIP3   OH257442   1.778   4.238  10.861 -0.1470  0.1896 -0.7174
11984TIP3    H157443   1.836   4.211  10.789 -1.0926 -2.4646 -0.5965
11984TIP3    H257444   1.699   4.185  10.849  0.0239 -1.1118  2.8088
11985TIP3   OH257445   2.388   2.228  15.100 -0.5876  0.4640  0.1531
11985TIP3    H157446   2.310   2.282  15.115 -1.3115 -0.6611  0.5507
11985TIP3    H257447   2.444   2.247  15.176 -0.8223  0.6675  0.2790
11986TIP3   OH257448   3.042   5.924   2.567  0.1895 -0.1416 -0.2875
11986TIP3    H157449   3.016   5.957   2.481 -0.1758  1.0333  0.2554
11986TIP3    H257450   3.042   6.001   2.623  0.6495 -0.8574  0.7211
11987TIP3   OH257451   2.180   1.463  12.906  0.1559  0.3502  0.0398
11987TIP3    H157452   2.110   1.458  12.841  0.1060  1.4808 -0.0183
11987TIP3    H257453   2.247   1.518  12.865 -0.2810  1.8830  1.2714
11988TIP3   OH257454   1.325   5.953   2.797 -0.7589 -0.3810  0.2218
11988TIP3    H157455   1.269   5.877   2.785 -1.5548 -0.2330  2.3747
11988TIP3    H257456   1.356   5.946   2.888  1.2968  0.4943 -0.3448
11989TIP3   OH257457   6.412   2.949   1.599 -0.4614  0.0926  0.9063
11989TIP3    H157458   6.486   2.905   1.643  0.3654  0.0910 -0.4320
11989TIP3    H257459   6.359   2.877   1.565 -1.2654  0.0863  2.0962
11990TIP3   OH257460   5.522   0.793   0.013  0.4517 -0.1277  0.0736
11990TIP3    H157461   5.482   0.751  -0.063 -0.1899  1.0725 -0.2816
11990TIP3    H257462   5.562   0.721   0.062  0.2639 -1.0118 -1.0234
11991TIP3   OH257463   0.656   6.642   3.028 -0.1738 -0.4485 -0.0757
11991TIP3    H157464   0.752   6.640   3.027 -0.1571  0.0328 -0.0459
11991TIP3    H257465   0.632   6.662   2.937 -0.3060 -2.1128 -0.4250
11992TIP3   OH257466   3.233   0.604   2.196 -0.1581  0.3183  0.3404
11992TIP3    H157467   3.283   0.682   2.168 -1.5787  1.6129  1.2503
11992TIP3    H257468   3.295   0.552   2.246  0.2827  1.9711  1.5907
11993TIP3   OH257469   6.491   0.246   4.270 -0.3815  0.2261 -0.1679
11993TIP3    H157470   6.521   0.204   4.351 -0.3676  0.7465  0.0967
11993TIP3    H257471   6.493   0.175   4.205 -2.6180 -0.7904  0.7924
11994TIP3   OH257472   5.070   5.638  15.077 -0.5010 -0.1705  0.1158
11994TIP3    H157473   5.148   5.594  15.043  0.4752 -0.7732  2.8311
11994TIP3    H257474   5.105   5.715  15.123 -1.8169  1.1472 -1.0037
11995TIP3   OH257475   4.447   4.671   3.068 -0.4635  0.1915  0.0348
11995TIP3    H157476   4.467   4.719   2.988  1.6123 -1.0210 -0.2390
11995TIP3    H257477   4.444   4.738   3.136  0.0008  0.9840 -0.7071
11996TIP3   OH257478   1.898   1.544  16.244  0.0924 -0.0395 -0.1486
11996TIP3    H157479   1.827   1.526  16.181 -0.0263 -1.5906  0.3803
11996TIP3    H257480   1.869   1.503  16.325  0.5739  1.3293  0.7427
11997TIP3   OH257481   3.241   6.680   5.233  0.2412 -0.1730 -0.2072
11997TIP3    H157482   3.335   6.689   5.217  0.1285  3.7763  0.1485
11997TIP3    H257483   3.234   6.669   5.328  0.3356 -1.5985 -0.3515
11998TIP3   OH257484   5.541   6.414  11.721 -0.7328  0.2553 -0.2939
11998TIP3    H157485   5.521   6.457  11.804  0.1702 -0.4938  0.3245
11998TIP3    H257486   5.636   6.403  11.722 -0.5793  1.1693 -1.9043
11999TIP3   OH257487   0.706   2.400  16.904  0.3263  0.3899  0.2080
11999TIP3    H157488   0.772   2.352  16.852  0.3163  0.2783  0.2973
11999TIP3    H257489   0.663   2.457  16.840 -1.3039 -1.4293 -0.4078
12000TIP3   OH257490   0.774   4.702  16.052  0.4101 -0.2939 -0.1245
12000TIP3    H157491   0.739   4.618  16.023 -0.6589 -0.7099  2.1336
12000TIP3    H257492   0.791   4.690  16.146 -1.3953  2.4532  0.6977
12001TIP3   OH257493   3.174   0.355   0.079  0.7465  0.2887 -0.6805
12001TIP3    H157494   3.257   0.373   0.036  2.6024 -1.8182  1.7064
12001TIP3    H257495   3.190   0.276   0.130 -0.8680  2.7477  4.3526
12002TIP3   OH257496   6.789   4.599  11.580 -0.6305 -0.2011  0.1899
12002TIP3    H157497   6.850   4.566  11.514 -0.4997 -0.5785  0.4955
12002TIP3    H257498   6.826   4.570  11.663 -0.5095  0.7399  0.4658
12003TIP3   OH257499   3.707   4.877  11.233 -0.5134 -0.1277 -0.6158
12003TIP3    H157500   3.619   4.890  11.268  0.1383 -0.9663  1.5078
12003TIP3    H257501   3.730   4.787  11.259  1.5043  0.5720  0.2272
12004TIP3   OH257502   3.976   3.071  12.146 -0.1027 -0.2426  0.0196
12004TIP3    H157503   3.997   2.986  12.186 -1.0077 -0.2168  0.5799
12004TIP3    H257504   4.051   3.126  12.165 -0.1665 -0.4771  0.9797
12005TIP3   OH257505   3.409   2.320   5.100 -0.1984  0.1827  0.1931
12005TIP3    H157506   3.488   2.343   5.051 -0.5965 -0.5033 -0.7908
12005TIP3    H257507   3.357   2.400   5.101  0.0039  0.3183 -0.1354
12006TIP3   OH257508   4.245   6.006   5.679 -0.1177  0.2118 -0.2694
12006TIP3    H157509   4.255   6.086   5.628  0.4945  1.8374  2.2169
12006TIP3    H257510   4.332   5.988   5.713 -0.7592  0.2105  1.5168
12007TIP3   OH257511   4.384   2.381  15.352  0.3683  0.8826 -0.1257
12007TIP3    H157512   4.477   2.401  15.350  0.0673  2.5761  0.8294
12007TIP3    H257513   4.341   2.467  15.358 -1.3813  0.3700 -3.0745
12008TIP3   OH257514   5.521   4.315  10.920  0.0996  0.2180 -0.3399
12008TIP3    H157515   5.537   4.409  10.909  2.9258 -0.3588 -2.0114
12008TIP3    H257516   5.445   4.297  10.865  1.5340  1.0357 -2.7296
12009TIP3   OH257517   6.707   3.225  10.516 -0.8213 -0.2357  0.3655
12009TIP3    H157518   6.745   3.313  10.527 -0.7978 -0.3222  1.0413
12009TIP3    H257519   6.640   3.220  10.585  0.4442 -1.4354  1.5576
12010TIP3   OH257520   2.785   6.430  16.599  0.6188 -0.2755 -0.1280
12010TIP3    H157521   2.788   6.505  16.658 -1.0513  0.3450 -0.7593
12010TIP3    H257522   2.831   6.361  16.645  1.8832  1.0243  0.6276
12011TIP3   OH257523   6.326   0.883  12.091 -0.2208  0.0000  0.4160
12011TIP3    H157524   6.367   0.952  12.039 -2.2558  1.1679  0.2421
12011TIP3    H257525   6.270   0.930  12.152 -2.2087 -1.4888 -0.1644
12012TIP3   OH257526   0.040   2.587  13.052  0.7936  0.3452  0.1109
12012TIP3    H157527   0.107   2.520  13.070  1.0202  0.4997 -0.1296
12012TIP3    H257528   0.081   2.642  12.984  0.0159 -0.1756 -0.8100
12013TIP3   OH257529   6.364   3.413  15.567  0.4426 -0.0412 -0.0747
12013TIP3    H157530   6.361   3.432  15.473 -1.9573  1.9297  0.3030
12013TIP3    H257531   6.422   3.480  15.603  1.2834 -0.7379 -0.0923
12014TIP3   OH257532   3.625   4.953  15.918  1.1159  0.0692  0.1324
12014TIP3    H157533   3.607   4.956  15.824 -0.9712 -0.5131  0.4617
12014TIP3    H257534   3.557   4.895  15.953  2.2114 -0.1912  1.9289
12015TIP3   OH257535   3.701   1.235   4.593  0.2858 -0.2676  0.0288
12015TIP3    H157536   3.633   1.293   4.627 -0.2708 -1.3135  0.7468
12015TIP3    H257537   3.689   1.153   4.641  2.6366 -0.2063  0.8666
12016TIP3   OH257538   6.030   5.045  13.962 -0.3927 -0.0400  0.3666
12016TIP3    H157539   5.937   5.058  13.946 -0.3620  1.0404  0.9856
12016TIP3    H257540   6.046   5.083  14.048  0.9408  1.4228 -0.4550
12017TIP3   OH257541   4.331   3.991   0.206  0.1202 -0.0879  0.2245
12017TIP3    H157542   4.335   4.060   0.272  1.4679  0.5751 -0.5223
12017TIP3    H257543   4.237   3.980   0.188 -0.0695  3.2162 -1.3718
12018TIP3   OH257544   0.776   1.613  12.280  0.1307  0.4128  0.1209
12018TIP3    H157545   0.692   1.635  12.239  0.6528 -1.2701 -2.0350
12018TIP3    H257546   0.770   1.519  12.299  1.4674  0.2698 -0.0240
12019TIP3   OH257547   6.444   3.525   4.418  0.2646 -0.1981  0.1512
12019TIP3    H157548   6.360   3.495   4.384 -0.2072 -0.0137  1.1190
12019TIP3    H257549   6.464   3.465   4.491  0.7549  0.0223  0.2063
12020TIP3   OH257550   6.766   3.309   5.641  0.2440  0.6733  0.1160
12020TIP3    H157551   6.803   3.257   5.713 -0.5524 -0.0239  0.0410
12020TIP3    H257552   6.703   3.250   5.600 -0.6703  1.6982  0.0076
12021TIP3   OH257553   2.009   6.328  14.209  0.2901 -0.5708  0.5444
12021TIP3    H157554   2.034   6.248  14.162  0.8911  0.1169 -0.3175
12021TIP3    H257555   1.962   6.296  14.286  1.2842 -1.7842  0.6675
12022TIP3   OH257556   2.327   3.024  12.160 -0.0711 -0.1979 -0.3713
12022TIP3    H157557   2.239   2.998  12.186 -1.1771  2.6957 -0.7701
12022TIP3    H257558   2.349   3.097  12.218  1.0730  0.6381 -1.7735
12023TIP3   OH257559   4.162   0.644   0.121 -0.2473  0.4210  0.3064
12023TIP3    H157560   4.190   0.614   0.034 -1.4324 -2.4150  0.8049
12023TIP3    H257561   4.152   0.739   0.111  3.3781  0.7916 -1.5404
12024TIP3   OH257562   0.444   4.809   4.525  0.3486 -0.4759 -0.0950
12024TIP3    H157563   0.438   4.813   4.430  1.3134  1.5232 -0.1255
12024TIP3    H257564   0.538   4.807   4.544  0.1721 -1.2862  0.8388
12025TIP3   OH257565   5.565   5.067   1.430  1.0894 -0.1442 -0.3576
12025TIP3    H157566   5.560   5.121   1.351  0.3633 -0.3764 -0.4772
12025TIP3    H257567   5.475   5.061   1.461  1.3396 -0.1997  0.3961
12026TIP3   OH257568   2.730   1.720  13.691 -0.2066 -0.2886 -0.8200
12026TIP3    H157569   2.685   1.804  13.696  1.6082  0.7341 -0.6193
12026TIP3    H257570   2.803   1.736  13.631  1.0762 -1.2405  0.4160
12027TIP3   OH257571   4.005   1.693   4.741 -0.0628  0.5652  0.0309
12027TIP3    H157572   3.990   1.649   4.825  0.7286  1.3046  0.5828
12027TIP3    H257573   4.070   1.760   4.761  1.8939 -0.7256 -1.6521
12028TIP3   OH257574   1.595   0.680   2.012  0.6510 -0.4664  0.1717
12028TIP3    H157575   1.623   0.771   2.024  0.3975 -0.1721 -1.2746
12028TIP3    H257576   1.657   0.644   1.949 -1.4379 -0.1280 -2.2453
12029TIP3   OH257577   4.342   0.301  14.197 -0.0690  0.1839 -0.1027
12029TIP3    H157578   4.426   0.343  14.213 -0.1892  0.2944  0.2482
12029TIP3    H257579   4.320   0.259  14.280  1.4284 -3.0768 -1.1945
12030TIP3   OH257580   2.023   4.844  11.904 -0.0196  0.0034  0.6996
12030TIP3    H157581   2.034   4.757  11.867 -1.3088  0.6811 -1.4377
12030TIP3    H257582   2.108   4.886  11.892  0.0704 -0.3628  0.0262
12031TIP3   OH257583   2.072   0.276   5.586 -0.4344  0.3366  0.2540
12031TIP3    H157584   2.096   0.367   5.570  1.6230 -0.4427 -1.6141
12031TIP3    H257585   1.996   0.260   5.529 -0.4393  0.7083  0.1568
12032TIP3   OH257586   2.999   5.538   1.311  0.1645  0.4672 -0.0369
12032TIP3    H157587   3.092   5.525   1.291 -0.3174 -0.7559 -1.6765
12032TIP3    H257588   2.981   5.478   1.383 -0.0086 -1.6462 -1.7532
12033TIP3   OH257589   5.267   0.746  15.328  0.5794  0.6524 -0.3595
12033TIP3    H157590   5.219   0.824  15.301 -0.7606  0.6820  1.8904
12033TIP3    H257591   5.350   0.780  15.363  0.7478  0.8938 -0.9757
12034TIP3   OH257592   0.655   3.111   1.884  0.8516  0.1941 -0.1471
12034TIP3    H157593   0.748   3.113   1.908  1.2169  0.1696 -1.4475
12034TIP3    H257594   0.652   3.050   1.809 -0.6397 -1.9017  1.5044
12035TIP3   OH257595   6.099   3.607   2.231 -0.0660  0.2465  0.0283
12035TIP3    H157596   6.114   3.567   2.145  0.9827  0.2502  0.1995
12035TIP3    H257597   6.095   3.701   2.213  2.0030  0.4115  0.1851
12036TIP3   OH257598   2.445   4.777  16.277  0.3814  0.2812  0.6997
12036TIP3    H157599   2.421   4.707  16.337  0.0060  0.9948  1.3968
12036TIP3    H257600   2.497   4.837  16.330 -0.5399  1.2736  0.5079
12037TIP3   OH257601   3.107   6.111  15.030  0.2376 -0.5920  0.1478
12037TIP3    H157602   3.173   6.115  14.960  0.0909  0.1989  0.0568
12037TIP3    H257603   3.146   6.160  15.102  0.0399 -0.7153  0.3395
12038TIP3   OH257604   6.519   1.278  15.462  0.3084  0.2187  0.1678
12038TIP3    H157605   6.571   1.358  15.456 -2.1595  1.8590 -1.7008
12038TIP3    H257606   6.559   1.217  15.400  0.1210  1.4047 -1.1671
12039TIP3   OH257607   0.713   5.006   4.771  0.1201  0.2764 -0.3152
12039TIP3    H157608   0.735   4.932   4.715  2.2226  0.9402 -0.4750
12039TIP3    H257609   0.668   5.068   4.713 -2.9563 -1.3568  0.1418
12040TIP3   OH257610   3.259   1.783  13.350  0.0362  0.0521 -0.4270
12040TIP3    H157611   3.262   1.840  13.273 -1.2909  1.1719  0.3209
12040TIP3    H257612   3.288   1.838  13.422 -0.8297 -0.3277  0.2301
12041TIP3   OH257613   2.687   3.836  15.767  0.5310 -0.2748  0.3695
12041TIP3    H157614   2.721   3.810  15.681  0.5294  2.3142 -0.4793
12041TIP3    H257615   2.664   3.753  15.809  0.6189 -1.6298 -2.0744
12042TIP3   OH257616   4.254   4.041   0.880 -0.3160  0.2624  0.2133
12042TIP3    H157617   4.202   4.062   0.803 -2.7864 -0.8193  1.4640
12042TIP3    H257618   4.195   4.057   0.954  1.0717 -1.2007  1.7405
12043TIP3   OH257619   0.532   2.091  13.756  0.0960 -0.2029 -0.3544
12043TIP3    H157620   0.497   2.037  13.685 -0.3894 -0.3622  0.0067
12043TIP3    H257621   0.624   2.065  13.763 -0.2019 -1.1966  0.0106
12044TIP3   OH257622   0.882   0.080   4.622  0.1705 -0.4020 -0.1929
12044TIP3    H157623   0.868   0.083   4.528  0.0597 -1.0551 -0.1988
12044TIP3    H257624   0.830   0.005   4.652  1.0010 -0.8151  0.2498
12045TIP3   OH257625   1.938   0.627   1.417 -0.3747  0.5100  0.0972
12045TIP3    H157626   1.897   0.552   1.373  0.6208  0.0252 -0.0135
12045TIP3    H257627   1.871   0.657   1.478 -1.3285  0.4342 -0.8715
12046TIP3   OH257628   2.028   1.025   0.212 -0.2168  0.6196 -0.0324
12046TIP3    H157629   2.062   0.937   0.231 -0.3937  0.3944 -0.7236
12046TIP3    H257630   2.094   1.084   0.248  0.2709  0.1935 -0.2149
12047TIP3   OH257631   0.186   2.488   2.299 -0.1914 -0.1789 -0.1526
12047TIP3    H157632   0.266   2.541   2.294 -1.4705  1.7423 -3.6822
12047TIP3    H257633   0.151   2.506   2.386  2.0125  0.7754  0.6097
12048TIP3   OH257634   3.602   2.415   4.443 -0.4034  0.2108  0.1812
12048TIP3    H157635   3.527   2.356   4.447  0.6903 -1.2348  0.1954
12048TIP3    H257636   3.593   2.471   4.520 -2.0280  0.8160 -0.4027
12049TIP3   OH257637   0.067   2.129   2.890  0.0770  0.5106  0.7357
12049TIP3    H157638   0.080   2.095   2.801 -0.4984  0.6579  0.5945
12049TIP3    H257639  -0.008   2.188   2.882  0.6651  1.3318  1.1043
12050TIP3   OH257640   1.636   6.830   1.430 -0.3535  0.4711 -0.2689
12050TIP3    H157641   1.727   6.817   1.402 -1.2165 -1.0382 -2.6001
12050TIP3    H257642   1.632   6.923   1.453  1.7984  0.5445  0.0151
12051TIP3   OH257643   1.788   3.940  13.857 -0.1017 -0.0201  0.0585
12051TIP3    H157644   1.694   3.928  13.842  0.1083 -0.5632 -0.8939
12051TIP3    H257645   1.825   3.853  13.845  0.4696  0.0879  0.9563
12052TIP3   OH257646   0.997   1.440   5.932  0.3294 -0.1270  0.3534
12052TIP3    H157647   1.041   1.525   5.929  2.1248 -1.0625 -0.9259
12052TIP3    H257648   1.057   1.379   5.890 -0.7676 -2.1358  1.5319
12053TIP3   OH257649   2.295   3.163   6.556  0.2709  0.1380  0.0944
12053TIP3    H157650   2.341   3.246   6.570 -1.0718  0.6121  2.2136
12053TIP3    H257651   2.361   3.096   6.575  0.8951  0.7572  0.1567
12054TIP3   OH257652   2.455   2.679   3.449  0.3148 -1.0251  0.2934
12054TIP3    H157653   2.392   2.650   3.383  0.8020  0.6148 -0.9647
12054TIP3    H257654   2.407   2.674   3.531 -1.3256 -0.2640 -0.5646
12055TIP3   OH257655   0.877   0.695  13.620 -0.3142  0.4177 -0.1532
12055TIP3    H157656   0.915   0.698  13.533  1.1363 -0.5324  0.4037
12055TIP3    H257657   0.946   0.728  13.678 -0.9556  0.2709  0.7216
12056TIP3   OH257658   6.512   0.097  14.166  0.1490  0.0422  0.2394
12056TIP3    H157659   6.548   0.013  14.136  2.0397  0.6416  0.7188
12056TIP3    H257660   6.529   0.098  14.260 -0.5358  0.6558  0.3635
12057TIP3   OH257661   0.627   2.852   1.019  0.0015 -0.1418  0.3509
12057TIP3    H157662   0.540   2.836   1.057 -0.1959 -0.9706 -0.4139
12057TIP3    H257663   0.657   2.932   1.061 -1.1863  0.2190  0.5445
12058TIP3   OH257664   6.126   0.421   2.509  0.0201 -0.0056 -0.2291
12058TIP3    H157665   6.063   0.461   2.448  1.8386 -0.6287 -2.7030
12058TIP3    H257666   6.125   0.328   2.487 -0.3785 -0.5503  1.8614
12059TIP3   OH257667   3.961   3.590   1.588 -0.0962 -0.3120 -0.7268
12059TIP3    H157668   3.953   3.601   1.683 -1.2695 -1.1383 -0.7013
12059TIP3    H257669   4.031   3.526   1.576 -0.3429 -0.6520 -0.3803
12060TIP3   OH257670   5.053   6.749  15.346 -0.0856  0.4648  0.5112
12060TIP3    H157671   5.022   6.678  15.289 -0.6063 -0.0237  1.3865
12060TIP3    H257672   4.983   6.815  15.342 -2.5772 -1.5763  4.2484
12061TIP3   OH257673   1.872   4.481   2.812  0.0138  0.1103 -0.2268
12061TIP3    H157674   1.900   4.471   2.903  0.0658 -1.8102 -0.4270
12061TIP3    H257675   1.781   4.451   2.811 -0.0855  0.4214 -0.7597
12062TIP3   OH257676   1.305   6.238   3.126  0.2976  0.1182 -0.5844
12062TIP3    H157677   1.301   6.239   3.030 -2.1965 -2.6030 -0.6339
12062TIP3    H257678   1.397   6.221   3.146  0.3463 -2.6450 -2.6690
12063TIP3   OH257679   3.941   0.886   4.136  0.2072 -0.1106 -0.1539
12063TIP3    H157680   3.961   0.896   4.229  1.2705 -1.0146 -0.2606
12063TIP3    H257681   3.984   0.961   4.094 -1.2309  0.9314  0.1820
12064TIP3   OH257682   3.371   0.333  12.594 -0.3170  0.6691 -0.2198
12064TIP3    H157683   3.401   0.252  12.634 -0.9913  1.3813  1.8517
12064TIP3    H257684   3.448   0.366  12.547  0.3018 -0.5653 -0.1159
12065TIP3   OH257685   1.671   0.234  13.619 -0.5044  0.0699  0.4076
12065TIP3    H157686   1.616   0.265  13.690  0.2534 -0.7504  1.3868
12065TIP3    H257687   1.759   0.266  13.641 -0.6752  2.2429 -1.6517
12066TIP3   OH257688   1.115   4.884  14.247  0.1246  0.2562  0.0606
12066TIP3    H157689   1.100   4.974  14.219  1.8198  0.4662 -0.2737
12066TIP3    H257690   1.070   4.831  14.182  1.2961  0.8177 -1.2568
12067TIP3   OH257691   1.763   0.617  13.437 -0.0718  0.2870 -0.1074
12067TIP3    H157692   1.809   0.619  13.521  0.7782 -0.9022 -0.5190
12067TIP3    H257693   1.800   0.689  13.387  0.1419  0.3766  0.1814
12068TIP3   OH257694   6.015   4.858   3.873  0.4738 -1.0634  0.0138
12068TIP3    H157695   6.035   4.926   3.809 -0.0761 -2.4265 -1.7155
12068TIP3    H257696   6.064   4.883   3.951 -0.0151  1.4722 -0.4080
12069TIP3   OH257697   1.503   3.846  16.943 -0.0820 -0.4526  0.2670
12069TIP3    H157698   1.502   3.754  16.968  1.1549 -0.7827 -0.8056
12069TIP3    H257699   1.473   3.892  17.022 -1.3181 -1.7866  0.6196
12070TIP3   OH257700   1.263   1.228  11.513  0.1473  0.0582 -0.2700
12070TIP3    H157701   1.213   1.174  11.574  1.0123  1.6261  1.9850
12070TIP3    H257702   1.203   1.299  11.490  0.2934  0.2555 -0.0515
12071TIP3   OH257703   5.267   4.631  10.540 -0.2234 -0.1671 -0.5726
12071TIP3    H157704   5.359   4.606  10.532  0.4630  0.6764  3.0462
12071TIP3    H257705   5.223   4.549  10.563  0.3766  0.0957  1.6938
12072TIP3   OH257706   5.458   2.505   3.320  0.5793  0.0001 -0.4219
12072TIP3    H157707   5.398   2.554   3.263  0.6309 -0.1954 -0.6440
12072TIP3    H257708   5.401   2.448   3.372  0.4249  1.0366  0.5773
12073TIP3   OH257709   3.714   4.449   1.986  0.4798  0.0471  0.1505
12073TIP3    H157710   3.641   4.436   2.047 -0.2891 -2.3299 -1.1629
12073TIP3    H257711   3.677   4.506   1.918  1.2452  2.4362  1.5888
12074TIP3   OH257712   5.251   3.104  11.770 -0.4384 -0.1092  0.0657
12074TIP3    H157713   5.235   3.043  11.842  0.6048 -0.0569  0.3524
12074TIP3    H257714   5.329   3.070  11.727  0.2072  1.0544  0.2784
12075TIP3   OH257715   2.084   5.142  14.522 -0.8360  0.2787  0.4778
12075TIP3    H157716   2.096   5.140  14.427  1.3964 -1.0837  0.7184
12075TIP3    H257717   2.048   5.056  14.544  0.1431 -0.0117  1.0027
12076TIP3   OH257718   1.290   2.019   4.594  0.0109  0.3758 -0.0537
12076TIP3    H157719   1.308   1.935   4.636 -2.2708 -0.6037 -0.8790
12076TIP3    H257720   1.376   2.049   4.563  0.9867 -1.2591  0.9040
12077TIP3   OH257721   4.739   0.112   5.570  0.8169 -0.3890  0.4138
12077TIP3    H157722   4.760   0.019   5.571 -0.4986 -0.7152  1.6442
12077TIP3    H257723   4.765   0.143   5.657 -1.6955 -0.3803  1.2579
12078TIP3   OH257724   2.996   6.826  16.426  0.0639 -0.5666  0.0751
12078TIP3    H157725   3.025   6.766  16.495 -0.0086 -1.2004 -0.4362
12078TIP3    H257726   2.919   6.869  16.463  0.8149  0.1167  0.9083
12079TIP3   OH257727   5.516   5.759   1.606 -0.2227  0.0999  0.0927
12079TIP3    H157728   5.583   5.797   1.549 -0.2564  1.1591  0.7351
12079TIP3    H257729   5.504   5.670   1.573  0.3200  0.4339 -1.0542
12080TIP3   OH257730   4.236   3.754  14.883  0.0213 -0.1352 -0.3855
12080TIP3    H157731   4.158   3.799  14.914  0.0484 -1.4497  1.7304
12080TIP3    H257732   4.204   3.671  14.849  0.4556 -0.5324  0.1700
12081TIP3   OH257733   2.758   2.872  10.590  0.0672  0.1762 -0.7241
12081TIP3    H157734   2.727   2.924  10.515 -0.0750 -0.2496 -0.9631
12081TIP3    H257735   2.729   2.783  10.571 -1.3682  0.3329  0.6211
12082TIP3   OH257736   2.784   3.117  16.200  0.8566 -0.1804 -0.3872
12082TIP3    H157737   2.724   3.118  16.126  0.5678  0.5419 -0.1610
12082TIP3    H257738   2.802   3.210  16.217 -0.2415 -0.2475  1.3579
12083TIP3   OH257739   0.717   0.057  15.862 -0.3341  0.9009  0.1026
12083TIP3    H157740   0.710  -0.036  15.843 -0.8658  0.8520  0.5105
12083TIP3    H257741   0.685   0.066  15.951 -0.1041  1.4507  0.1346
12084TIP3   OH257742   0.778   0.133   4.086 -0.0009 -0.0878  0.1907
12084TIP3    H157743   0.746   0.182   4.010 -0.5438 -0.3185  0.2638
12084TIP3    H257744   0.872   0.128   4.073  0.0280  0.7493  0.0549
12085TIP3   OH257745   6.484   4.492   2.613 -0.3923  0.5111  0.1634
12085TIP3    H157746   6.481   4.408   2.659  0.2650  0.3123 -0.1477
12085TIP3    H257747   6.519   4.470   2.527 -0.1114  1.1239  0.1226
12086TIP3   OH257748   1.784   0.490   1.899  0.3084 -0.1718  0.7600
12086TIP3    H157749   1.847   0.451   1.838 -0.1428 -0.5492  0.5254
12086TIP3    H257750   1.701   0.449   1.876 -0.1472  0.8225  0.6250
12087TIP3   OH257751   3.091   1.681   4.846  0.1586  0.5334 -0.6537
12087TIP3    H157752   3.058   1.766   4.816  1.5528  1.2708 -0.1836
12087TIP3    H257753   3.148   1.651   4.776 -0.4997 -0.1352 -0.9130
12088TIP3   OH257754   1.463   4.358  14.879  0.6394 -0.2681  0.3153
12088TIP3    H157755   1.390   4.394  14.930  0.7010  0.8595 -0.3633
12088TIP3    H257756   1.526   4.431  14.873  0.7913 -0.4858 -1.0505
12089TIP3   OH257757   1.576   2.819   5.586 -0.9997 -0.0254  0.4601
12089TIP3    H157758   1.579   2.729   5.554 -0.3816  0.6768 -1.5578
12089TIP3    H257759   1.532   2.812   5.671 -2.7728 -1.9705 -0.5387
12090TIP3   OH257760   6.728   0.936  15.752  0.1916 -0.1721  0.1228
12090TIP3    H157761   6.789   0.883  15.803 -0.3476 -1.1062 -0.1610
12090TIP3    H257762   6.666   0.970  15.817 -2.7272 -4.2977 -0.0261
12091TIP3   OH257763   1.471   0.251   6.804 -0.5494 -0.2425 -0.5640
12091TIP3    H157764   1.428   0.281   6.884 -1.5258  0.2487 -1.2499
12091TIP3    H257765   1.518   0.328   6.772 -0.9863 -0.1539 -0.9934
12092TIP3   OH257766   4.549   3.613   3.040  0.2773 -0.4488 -0.9127
12092TIP3    H157767   4.584   3.695   3.074  0.5903 -1.5006  1.5312
12092TIP3    H257768   4.491   3.640   2.969  0.4834  1.8749 -0.3014
12093TIP3   OH257769   5.411   2.673  13.275  0.0626 -0.0020  0.3844
12093TIP3    H157770   5.418   2.751  13.221  0.3732 -1.0334 -1.1220
12093TIP3    H257771   5.372   2.703  13.357  0.2229  1.7230 -0.1506
12094TIP3   OH257772   5.166   6.771  10.402 -0.1883  0.9842 -0.3182
12094TIP3    H157773   5.249   6.729  10.422 -1.1191 -1.8436 -1.7807
12094TIP3    H257774   5.101   6.701  10.411 -2.1993  2.6966 -0.7336
12095TIP3   OH257775   1.987   6.327   5.547  0.8350  0.3032 -0.4279
12095TIP3    H157776   1.974   6.306   5.639  1.4224  1.0118 -0.1713
12095TIP3    H257777   1.944   6.256   5.499 -0.1647  0.3402  0.3893
12096TIP3   OH257778   1.470   0.182  11.189  0.2838 -0.0363  0.0967
12096TIP3    H157779   1.450   0.269  11.155 -1.7686  1.2043  3.8354
12096TIP3    H257780   1.416   0.122  11.137 -0.0317  1.2004 -1.0464
12097TIP3   OH257781   5.472   0.350   0.305 -0.6781  0.2573 -0.2339
12097TIP3    H157782   5.432   0.297   0.374  0.4939  0.5544  0.6920
12097TIP3    H257783   5.421   0.328   0.226 -2.2134  0.1252  0.7532
12098TIP3   OH257784   0.823   6.231   2.926  0.1245 -0.5003 -0.4708
12098TIP3    H157785   0.894   6.167   2.918  0.0245 -0.5448 -1.0527
12098TIP3    H257786   0.776   6.205   3.005  1.2550  0.0351  0.4068
12099TIP3   OH257787   3.861   4.444  14.762 -0.2494 -0.4708  1.0639
12099TIP3    H157788   3.900   4.520  14.719 -3.0892 -0.0638 -1.0484
12099TIP3    H257789   3.901   4.369  14.717 -0.6666 -0.1096  0.0598
12100TIP3   OH257790   2.867   3.378   3.016 -0.1328  0.1053 -0.1068
12100TIP3    H157791   2.819   3.302   2.985 -0.0609  0.5005 -1.2263
12100TIP3    H257792   2.957   3.364   2.985  0.2214 -0.0531  0.9437
12101TIP3   OH257793   0.642   5.824   1.708  0.0643 -0.4363  0.4866
12101TIP3    H157794   0.590   5.800   1.631 -1.4729  0.2201  1.2553
12101TIP3    H257795   0.732   5.808   1.683 -0.3693  0.0533 -1.5707
12102TIP3   OH257796   1.869   2.735   3.668  0.1906  0.3503 -0.2332
12102TIP3    H157797   1.815   2.762   3.594 -0.2981  1.3343  0.4570
12102TIP3    H257798   1.813   2.677   3.719  0.8581 -1.1276 -1.1162
12103TIP3   OH257799   1.427   6.383  13.048 -0.3911 -0.1754  0.1034
12103TIP3    H157800   1.423   6.476  13.069  0.2776 -0.7126  2.9863
12103TIP3    H257801   1.513   6.372  13.006 -0.0458  0.3565  0.6548
12104TIP3   OH257802   0.045   1.035   3.812 -0.0838  0.1952 -0.6259
12104TIP3    H157803  -0.004   1.066   3.889 -0.9689 -0.8246 -0.7511
12104TIP3    H257804  -0.021   0.994   3.757  0.9595 -1.6207 -0.6019
12105TIP3   OH257805   5.412   0.333   1.807  0.1273  0.0119  0.2253
12105TIP3    H157806   5.434   0.390   1.733 -2.2342  0.4223 -0.2205
12105TIP3    H257807   5.471   0.258   1.797  1.2045  0.9628 -0.9207
12106TIP3   OH257808   1.812   0.422   2.474  0.2935 -0.0797 -0.5242
12106TIP3    H157809   1.839   0.419   2.565 -1.2441 -0.1580 -0.0521
12106TIP3    H257810   1.869   0.488   2.434 -0.8421  2.0226  1.1399
12107TIP3   OH257811   6.827   2.390  14.352 -0.1823  0.0289  0.4838
12107TIP3    H157812   6.885   2.416  14.281 -0.8141 -0.8453 -0.3713
12107TIP3    H257813   6.875   2.322  14.400  0.5433  1.1254  1.3627
12108TIP3   OH257814   3.043   0.408  10.814  0.1804 -0.2054  0.3525
12108TIP3    H157815   2.959   0.413  10.767  0.1354 -0.1668  0.4359
12108TIP3    H257816   3.091   0.486  10.786 -0.5593  0.7734  1.7341
12109TIP3   OH257817   3.400   1.436  16.627  0.2924 -0.0504 -0.7399
12109TIP3    H157818   3.338   1.473  16.563  1.4913 -0.2725 -2.0825
12109TIP3    H257819   3.394   1.342  16.615 -1.2870 -0.2738  1.2774
12110TIP3   OH257820   5.489   2.081  12.924  0.1078 -0.2794  0.1808
12110TIP3    H157821   5.421   2.117  12.981 -0.7211  0.3499 -1.1302
12110TIP3    H257822   5.558   2.147  12.924 -0.2176  0.0718 -0.0927
12111TIP3   OH257823   6.509   1.344  12.922  0.3892 -0.1118  0.9056
12111TIP3    H157824   6.580   1.292  12.884 -0.9329 -1.7708  0.5924
12111TIP3    H257825   6.535   1.356  13.014  0.8673 -1.1198  0.9218
12112TIP3   OH257826   4.130   6.661  10.627 -0.0203 -0.4967 -0.1077
12112TIP3    H157827   4.168   6.661  10.715  2.1230 -1.7694 -0.9477
12112TIP3    H257828   4.198   6.622  10.572 -2.3005 -2.1970 -1.9009
12113TIP3   OH257829   1.095   0.555   4.669  0.2595  0.4993  0.1794
12113TIP3    H157830   1.173   0.517   4.630 -0.5883 -1.8481  0.5953
12113TIP3    H257831   1.122   0.580   4.758  0.2242 -1.8156  0.9105
12114TIP3   OH257832   1.090   1.974   4.400 -0.5193 -0.1636  0.3958
12114TIP3    H157833   1.159   1.999   4.461  0.0621  1.3663 -0.8096
12114TIP3    H257834   1.117   2.012   4.317 -2.4001 -0.2679 -0.3088
12115TIP3   OH257835   2.146   4.134   0.234 -0.0845 -0.3069  1.1097
12115TIP3    H157836   2.092   4.184   0.173  1.1565 -0.6276 -0.3208
12115TIP3    H257837   2.089   4.063   0.265 -0.3442 -1.0061 -0.8379
12116TIP3   OH257838   4.585   1.866   3.920  0.0704 -0.0604  0.5001
12116TIP3    H157839   4.577   1.960   3.937  0.4036  0.0254  0.1911
12116TIP3    H257840   4.567   1.825   4.005 -5.3714 -0.0155 -0.2516
12117TIP3   OH257841   1.733   2.093  11.513  0.1974 -0.4845  0.5319
12117TIP3    H157842   1.827   2.106  11.501  0.1131 -0.0612  0.3173
12117TIP3    H257843   1.712   2.144  11.591  0.1665 -0.6886  0.6595
12118TIP3   OH257844   2.294   4.592   0.666  0.8415  0.0487  0.1279
12118TIP3    H157845   2.356   4.555   0.604  1.3809  0.4656  0.4048
12118TIP3    H257846   2.282   4.683   0.637 -1.6228 -0.6884 -1.4414
12119TIP3   OH257847   3.850   4.684  16.671 -0.2210  0.5592 -0.0308
12119TIP3    H157848   3.812   4.753  16.616  1.5475  0.7734 -1.0525
12119TIP3    H257849   3.897   4.731  16.739  0.0759  0.3525 -0.0901
12120TIP3   OH257850   3.077   5.943  12.280  0.0697 -0.0026  0.1741
12120TIP3    H157851   3.117   5.917  12.363 -1.0784 -0.9761  0.4464
12120TIP3    H257852   3.145   5.995  12.236  1.1575 -0.5370  1.1635
12121TIP3   OH257853   3.500   3.109   3.981  0.0971 -0.0011  0.0198
12121TIP3    H157854   3.429   3.076   4.037 -0.5441 -0.3753 -0.9852
12121TIP3    H257855   3.522   3.194   4.018  1.7221 -1.4078  2.6326
12122TIP3   OH257856   6.145   6.102   5.618 -0.6803  0.2374 -0.5478
12122TIP3    H157857   6.186   6.084   5.533  0.4390 -0.1681  0.0538
12122TIP3    H257858   6.066   6.049   5.618  0.2464 -1.1994 -0.6358
12123TIP3   OH257859   4.884   3.855   0.386  0.8761  0.7293  0.2073
12123TIP3    H157860   4.807   3.836   0.439  2.1387 -1.8765  1.2837
12123TIP3    H257861   4.849   3.896   0.307 -1.6331 -0.5488  0.5472
12124TIP3   OH257862   3.690   4.550   2.276 -0.0329 -0.7626  0.1239
12124TIP3    H157863   3.684   4.544   2.372 -1.6980  0.7889  0.1781
12124TIP3    H257864   3.599   4.563   2.248  0.4908 -0.7181 -1.6248
12125TIP3   OH257865   1.944   4.746  14.055 -0.1930 -0.0304 -0.2208
12125TIP3    H157866   1.890   4.673  14.084 -1.0575  0.9891  0.8250
12125TIP3    H257867   2.030   4.707  14.039 -0.3425 -1.1159  1.3580
12126TIP3   OH257868   4.324   0.462   2.787 -0.0570 -0.3548  0.1584
12126TIP3    H157869   4.386   0.520   2.830 -1.3705  0.9216  0.4084
12126TIP3    H257870   4.376   0.418   2.719  0.7611  2.0114 -0.8703
12127TIP3   OH257871   3.276   0.026  10.486 -0.2316  0.3324 -0.3874
12127TIP3    H157872   3.370   0.024  10.506 -0.2907 -1.7522 -0.1179
12127TIP3    H257873   3.242   0.098  10.539  0.8449 -0.3666  1.3361
12128TIP3   OH257874   4.694   3.402   0.136  0.0232  0.2645 -0.3735
12128TIP3    H157875   4.650   3.473   0.183  0.4137 -0.4243  1.1266
12128TIP3    H257876   4.623   3.341   0.114  0.0399 -0.3458  1.1152
12129TIP3   OH257877   5.580   6.203  16.675 -0.2139  0.3313  0.6815
12129TIP3    H157878   5.517   6.132  16.689 -1.0865  1.0347  0.4431
12129TIP3    H257879   5.573   6.223  16.582 -0.4096  1.1048  0.8500
12130TIP3   OH257880   6.522   3.539  16.265 -0.4315 -0.6293  0.0391
12130TIP3    H157881   6.454   3.484  16.304 -1.8587  0.8485 -0.2481
12130TIP3    H257882   6.482   3.574  16.185  0.5379  0.5235  0.0214
12131TIP3   OH257883   1.901   2.206   0.889 -0.2384 -0.4945 -0.6818
12131TIP3    H157884   1.963   2.137   0.913 -0.7208 -0.8739 -0.4983
12131TIP3    H257885   1.827   2.159   0.849 -0.8064 -0.1432 -0.0732
12132TIP3   OH257886   5.803   6.283   4.875  0.6500 -0.8177 -0.1785
12132TIP3    H157887   5.898   6.288   4.866  0.4843  1.1979 -1.3724
12132TIP3    H257888   5.787   6.303   4.967  1.3182  0.5961 -0.3477
12133TIP3   OH257889   6.606   5.258  13.745 -0.6285 -0.1197 -0.3044
12133TIP3    H157890   6.567   5.252  13.658  1.0883  1.6905 -1.3010
12133TIP3    H257891   6.700   5.270  13.728 -0.2579  0.3392  1.7893
12134TIP3   OH257892   1.834   1.373  12.519 -0.1960 -0.9776  0.1620
12134TIP3    H157893   1.846   1.284  12.484  2.0205 -1.0272  0.8839
12134TIP3    H257894   1.918   1.393  12.561 -0.3040  1.8015 -0.7551
12135TIP3   OH257895   3.731   2.587  11.222  0.2226 -0.2618 -0.2299
12135TIP3    H157896   3.730   2.665  11.278  1.3419 -1.5675  1.7385
12135TIP3    H257897   3.652   2.538  11.247  0.7318 -0.8530  0.2838
12136TIP3   OH257898   2.953   6.170   3.276 -0.1988  0.5661 -0.2676
12136TIP3    H157899   2.938   6.243   3.336  0.7923  1.2748 -0.8662
12136TIP3    H257900   2.956   6.093   3.333 -2.1118  0.8487  0.2942
12137TIP3   OH257901   4.434   5.100   2.326 -0.5682 -0.6340  0.3816
12137TIP3    H157902   4.359   5.126   2.272 -0.9170  0.4071  1.3378
12137TIP3    H257903   4.418   5.140   2.411  0.6224 -1.1715  0.8886
12138TIP3   OH257904   6.616   6.098   1.925  0.4426  0.1471  0.5058
12138TIP3    H157905   6.692   6.136   1.880  1.1560 -0.9967  0.7027
12138TIP3    H257906   6.628   6.004   1.916 -0.8050 -0.0528  0.8160
12139TIP3   OH257907   1.450   2.278   6.103  0.4410 -0.1348  0.1600
12139TIP3    H157908   1.461   2.191   6.065 -0.7895  0.5657 -2.0204
12139TIP3    H257909   1.386   2.266   6.173  1.4611 -1.2167  0.9326
12140TIP3   OH257910   0.266   0.143  14.233 -0.0453  0.0044  0.0326
12140TIP3    H157911   0.265   0.239  14.229  0.5869 -0.0237 -1.8029
12140TIP3    H257912   0.200   0.122  14.298 -2.5194  1.6433 -1.7281
12141TIP3   OH257913   0.964   2.458  14.618  0.1530  0.1372 -0.0643
12141TIP3    H157914   0.901   2.394  14.584 -0.0819 -0.0382  0.6770
12141TIP3    H257915   0.997   2.503  14.540 -2.6476  1.9201 -0.3749
12142TIP3   OH257916   4.381   2.596  16.760  0.8473 -0.4423  0.2971
12142TIP3    H157917   4.437   2.674  16.756  2.2242 -1.2302  2.3881
12142TIP3    H257918   4.361   2.586  16.853 -1.0688 -1.4180 -0.1716
12143TIP3   OH257919   0.672   4.228   3.240 -0.1508 -0.2014 -0.2167
12143TIP3    H157920   0.615   4.300   3.266  0.0477 -0.4422  0.9908
12143TIP3    H257921   0.626   4.184   3.169  0.2639  1.7886 -1.7855
12144TIP3   OH257922   3.784   4.810   6.681  0.0753  0.2696 -0.1883
12144TIP3    H157923   3.772   4.856   6.598 -1.4929 -0.6240 -0.5032
12144TIP3    H257924   3.799   4.879   6.745  2.4905  0.9212 -1.3595
12145TIP3   OH257925   2.142   5.986  13.116  0.1716 -0.1371 -0.1494
12145TIP3    H157926   2.079   6.042  13.162  0.1907 -1.1364  1.1596
12145TIP3    H257927   2.108   5.897  13.127 -0.4074 -0.3538 -3.0761
12146TIP3   OH257928   1.087   2.788  16.582  0.4808 -0.1158  0.1544
12146TIP3    H157929   1.019   2.723  16.597 -0.6071  1.0017  0.2411
12146TIP3    H257930   1.153   2.742  16.530  0.1039 -1.4858  0.8319
12147TIP3   OH257931   1.494   6.287   5.988 -0.4302 -0.7083  0.4459
12147TIP3    H157932   1.472   6.220   6.053  0.1355 -1.4350 -0.0972
12147TIP3    H257933   1.536   6.238   5.917 -1.6993 -0.0383 -0.8080
12148TIP3   OH257934   6.104   2.657  16.442  0.0920 -0.5370  0.1551
12148TIP3    H157935   6.132   2.623  16.527 -1.1023  0.7684  1.1121
12148TIP3    H257936   6.051   2.733  16.463 -1.6065 -1.1288 -1.7054
12149TIP3   OH257937   5.427   1.289  14.539 -0.0123  0.1738  0.2179
12149TIP3    H157938   5.401   1.267  14.450  2.3200 -0.7822 -0.3224
12149TIP3    H257939   5.368   1.239  14.595 -1.1976  0.4029 -0.7986
12150TIP3   OH257940   0.134   6.485  12.553 -0.0455  0.3004  0.2073
12150TIP3    H157941   0.117   6.408  12.606 -1.9686  1.7079  1.8261
12150TIP3    H257942   0.207   6.529  12.596  2.0777 -1.2345 -1.5732
12151TIP3   OH257943   1.049   3.197  14.457 -0.2069 -0.2214 -0.3624
12151TIP3    H157944   1.086   3.284  14.444 -1.6515  0.4536 -0.1008
12151TIP3    H257945   1.050   3.185  14.552 -0.4326 -0.3019 -0.3695
12152TIP3   OH257946   6.631   6.497  13.257 -0.0602 -0.0348 -0.0413
12152TIP3    H157947   6.708   6.465  13.210 -0.2341 -0.1424 -0.2552
12152TIP3    H257948   6.572   6.422  13.261 -0.6613  0.3697 -0.9487
12153TIP3   OH257949   5.198   2.290   2.917  0.2205  0.9375  0.1878
12153TIP3    H157950   5.231   2.334   2.995 -0.6786 -0.0798  1.1763
12153TIP3    H257951   5.103   2.297   2.923  0.0909 -0.2491 -0.1367
12154TIP3   OH257952   1.215   3.139   1.142 -0.0868 -0.0462  0.2045
12154TIP3    H157953   1.214   3.141   1.237  0.0941 -1.8192  0.2708
12154TIP3    H257954   1.275   3.210   1.117  0.4850 -0.0751  1.4274
12155TIP3   OH257955   2.614   0.275   5.609 -0.1195 -0.5365 -0.4547
12155TIP3    H157956   2.543   0.314   5.559 -0.1630 -1.2456 -0.9547
12155TIP3    H257957   2.694   0.305   5.565 -0.1307 -0.4313 -0.4040
12156TIP3   OH257958   6.098   0.208  11.928 -0.0282 -0.1980 -0.6965
12156TIP3    H157959   6.028   0.220  11.864  0.7282 -0.6874 -1.6278
12156TIP3    H257960   6.064   0.250  12.008 -1.2488 -0.1562 -1.2129
12157TIP3   OH257961   2.363   2.928   6.279  0.3870 -0.0531  0.1460
12157TIP3    H157962   2.432   2.879   6.234  0.2186  0.2303 -0.4152
12157TIP3    H257963   2.294   2.864   6.295  1.7640 -1.0250  2.9939
12158TIP3   OH257964   4.819   6.835  12.436 -0.4139  0.0081  0.4037
12158TIP3    H157965   4.755   6.872  12.496  0.0631  2.1603 -0.3235
12158TIP3    H257966   4.769   6.774  12.382 -1.5968  0.7454  0.6343
12159TIP3   OH257967   5.818   1.030  13.822  0.5870 -0.3460  0.1187
12159TIP3    H157968   5.860   1.073  13.748  0.2366 -0.8353 -0.3683
12159TIP3    H257969   5.795   0.943  13.790 -3.4439  0.7883 -0.6142
12160TIP3   OH257970   6.271   4.603  11.502 -0.1019 -0.4304  0.2450
12160TIP3    H157971   6.351   4.654  11.488  0.0591 -0.5994  0.5376
12160TIP3    H257972   6.228   4.603  11.416  0.8504 -1.4297 -0.2576
12161TIP3   OH257973   6.851   0.467   1.663  0.0730  0.1300  0.1552
12161TIP3    H157974   6.826   0.389   1.712  2.8930  0.1499  1.8438
12161TIP3    H257975   6.862   0.535   1.730  3.3322  0.3445 -0.3975
12162TIP3   OH257976   3.662   3.343  13.811 -0.0876 -0.2700 -0.0931
12162TIP3    H157977   3.705   3.328  13.895 -0.5297  0.2335  0.2326
12162TIP3    H257978   3.734   3.359  13.750  0.2466 -0.8958  0.1289
12163TIP3   OH257979   4.653   3.862  15.210  0.1273  0.1074  0.4413
12163TIP3    H157980   4.643   3.824  15.297 -1.4323  0.6438  0.5220
12163TIP3    H257981   4.568   3.850  15.168  1.4555 -2.1686 -1.8941
12164TIP3   OH257982   3.888   3.371   0.337 -0.2794 -0.2429  0.0135
12164TIP3    H157983   3.919   3.376   0.246  1.1015 -0.0886  0.4635
12164TIP3    H257984   3.804   3.417   0.336 -0.4128 -0.4645 -1.2335
12165TIP3   OH257985   5.972   6.836   6.460  0.0093 -0.3543  0.1548
12165TIP3    H157986   6.052   6.879   6.489 -0.3638 -0.3838  1.2513
12165TIP3    H257987   5.915   6.836   6.536 -0.3581 -1.9597 -0.0741
12166TIP3   OH257988   4.816   6.149  15.403 -0.0162  0.3233 -0.2063
12166TIP3    H157989   4.782   6.105  15.325 -0.1644  0.0563  0.0046
12166TIP3    H257990   4.753   6.127  15.472 -1.2297  2.5308 -0.5216
12167TIP3   OH257991   3.035   2.554  14.550 -0.0485 -0.0236  0.0170
12167TIP3    H157992   3.046   2.582  14.459  0.8518 -0.6719 -0.0854
12167TIP3    H257993   3.020   2.460  14.545  0.3114 -0.1145  0.5637
12168TIP3   OH257994   5.093   4.187  14.936  0.3391  0.6342  0.5282
12168TIP3    H157995   5.090   4.251  15.007 -0.8782 -0.4046  1.4491
12168TIP3    H257996   5.013   4.202  14.886  0.3752  0.2483  0.3526
12169TIP3   OH257997   1.657   5.380  16.693  0.1870 -0.5060 -0.0161
12169TIP3    H157998   1.571   5.407  16.725  0.1629 -0.9626  0.3076
12169TIP3    H257999   1.659   5.409  16.602  0.0890  0.4146  0.2661
12170TIP3   OH258000   4.387   6.850   2.003 -0.0921 -0.2544 -0.2138
12170TIP3    H158001   4.362   6.845   2.095 -2.3081  0.0876 -0.7454
12170TIP3    H258002   4.391   6.759   1.974  0.0639 -0.3428  0.0790
12171TIP3   OH258003   3.879   2.394  14.175  0.5212 -0.1448 -0.0074
12171TIP3    H158004   3.940   2.369  14.244  1.9092 -0.5834 -1.3420
12171TIP3    H258005   3.932   2.444  14.113 -0.9873  1.4210 -0.1365
12172TIP3   OH258006   3.892   1.177  13.704  0.1985  0.1676 -0.0962
12172TIP3    H158007   3.822   1.147  13.761 -0.6236  2.4189  0.1742
12172TIP3    H258008   3.962   1.203  13.763  0.8064 -0.8723 -0.3214
12173TIP3   OH258009   0.929   5.864   5.303 -0.0022 -0.5355 -0.6830
12173TIP3    H158010   0.929   5.875   5.398 -0.5167  0.5755 -0.7999
12173TIP3    H258011   0.841   5.833   5.282 -0.6505  1.3888 -0.9991
12174TIP3   OH258012   1.146   5.165   5.629  0.0329 -0.4851 -0.5132
12174TIP3    H158013   1.121   5.209   5.548  1.5513  0.5412 -0.4692
12174TIP3    H258014   1.095   5.209   5.697  0.3199  0.1195 -0.6773
12175TIP3   OH258015   3.226   2.360  12.778 -0.3972  0.3893  0.1664
12175TIP3    H158016   3.170   2.392  12.848  0.5304  1.4270  0.4665
12175TIP3    H258017   3.262   2.277  12.812  0.1917  0.9745  1.0123
12176TIP3   OH258018   3.521   6.131   1.504  0.5701  0.0201  0.1705
12176TIP3    H158019   3.452   6.104   1.565  0.8087  0.2450  0.5413
12176TIP3    H258020   3.582   6.181   1.557  0.9023  0.0215 -0.2082
12177TIP3   OH258021   3.454   2.257   0.356 -0.7476 -0.2858  0.1122
12177TIP3    H158022   3.495   2.260   0.443 -0.7107 -1.8286  0.1745
12177TIP3    H258023   3.371   2.211   0.370 -0.2702 -1.4860 -0.8242
12178TIP3   OH258024   6.570   3.359   3.551 -0.2502  0.3953  0.9397
12178TIP3    H158025   6.535   3.411   3.479  0.3168  1.0693  1.1322
12178TIP3    H258026   6.665   3.367   3.542 -0.1513 -0.7779  0.8681
12179TIP3   OH258027   3.904   1.591   2.916  0.1696 -0.7936  0.0664
12179TIP3    H158028   3.941   1.512   2.876  1.5791 -0.2112  0.1711
12179TIP3    H258029   3.928   1.662   2.856  1.9062  0.0322  1.6309
12180TIP3   OH258030   2.904   5.362   4.395  0.4541  0.1588 -0.4820
12180TIP3    H158031   2.977   5.307   4.365 -0.9686 -0.7336 -2.5974
12180TIP3    H258032   2.937   5.406   4.473  3.0894 -0.5251 -1.1162
12181TIP3   OH258033   3.195   0.643   3.354 -0.6932  0.2672 -0.4791
12181TIP3    H158034   3.155   0.695   3.424 -0.9879 -0.2918 -0.2252
12181TIP3    H258035   3.121   0.601   3.310 -0.7547  2.4409 -2.6613
12182TIP3   OH258036   0.545   0.090  15.206 -0.2155  0.5849 -0.0423
12182TIP3    H158037   0.537   0.059  15.297  0.9398  3.4940  1.1624
12182TIP3    H258038   0.632   0.129  15.202 -1.5046  3.5958 -1.3573
12183TIP3   OH258039   1.104   2.410   4.372 -0.0039 -0.4898 -0.9688
12183TIP3    H158040   1.078   2.367   4.454 -1.4089  1.2356 -0.4535
12183TIP3    H258041   1.027   2.402   4.316  0.4611 -0.4281 -1.6244
12184TIP3   OH258042   0.988   4.232  13.520  0.1388  0.3508  0.3004
12184TIP3    H158043   0.948   4.223  13.433 -3.2754 -0.8488  1.8256
12184TIP3    H258044   1.000   4.327  13.531  1.4374  0.4880 -1.7029
12185TIP3   OH258045   5.226   3.155  13.600  0.0857  0.7854  0.5591
12185TIP3    H158046   5.236   3.225  13.665  0.6495  1.6666 -0.4390
12185TIP3    H258047   5.253   3.195  13.517  0.4011 -0.6138 -0.0466
12186TIP3   OH258048   5.261   5.731  12.203 -0.0718 -0.3822 -0.4230
12186TIP3    H158049   5.335   5.690  12.159 -0.4588 -1.3540 -0.1851
12186TIP3    H258050   5.285   5.734  12.295  0.0826  0.2262 -0.4759
12187TIP3   OH258051   3.813   6.310   4.068 -0.4722 -0.6668 -0.4941
12187TIP3    H158052   3.865   6.376   4.023  2.5628 -0.8267  2.4350
12187TIP3    H258053   3.782   6.353   4.148 -1.0984 -1.8815 -0.0520
12188TIP3   OH258054   6.399   0.468  12.726 -0.7104  0.5976  0.0161
12188TIP3    H158055   6.481   0.503  12.761  0.3363 -1.5440 -0.1276
12188TIP3    H258056   6.387   0.385  12.771 -0.8905 -0.8293 -2.4719
12189TIP3   OH258057   5.981   6.234   2.391  0.5590 -0.2423 -0.0345
12189TIP3    H158058   6.060   6.181   2.403 -0.7994 -2.2688  0.4065
12189TIP3    H258059   5.983   6.296   2.463  0.6487 -1.7605  1.3321
12190TIP3   OH258060   3.961   6.073   2.522  0.0481 -0.7219  0.1555
12190TIP3    H158061   3.974   6.157   2.565  1.4652 -0.9911  0.3047
12190TIP3    H258062   4.019   6.013   2.569  0.2058 -1.4385 -0.9144
12191TIP3   OH258063   0.515   1.381   4.378  0.1767  0.1881 -0.0282
12191TIP3    H158064   0.446   1.392   4.312  0.6297  2.4558 -0.2034
12191TIP3    H258065   0.592   1.355   4.328 -0.0968 -0.6487 -0.0389
12192TIP3   OH258066   6.825   4.378  16.484 -0.4783 -0.0106 -0.2166
12192TIP3    H158067   6.897   4.316  16.479 -0.1991  0.2619  0.3843
12192TIP3    H258068   6.863   4.462  16.457  0.6258  1.1226  4.1704
12193TIP3   OH258069   1.726   0.795  11.346 -0.4678  0.4679  0.5697
12193TIP3    H158070   1.799   0.753  11.391 -0.9746  0.0530  1.0263
12193TIP3    H258071   1.655   0.731  11.351 -1.4291  1.5697  1.7466
12194TIP3   OH258072   4.999   2.607   1.577  0.1282 -0.1420 -0.0949
12194TIP3    H158073   5.063   2.568   1.638  0.6836  1.2649  0.2639
12194TIP3    H258074   4.914   2.581   1.612  0.4657 -0.1883  0.7150
12195TIP3   OH258075   1.478   3.548  16.892  0.7526  0.3629 -0.4786
12195TIP3    H158076   1.498   3.588  16.808  0.0070 -0.3916 -1.0259
12195TIP3    H258077   1.452   3.459  16.871 -0.2718  0.4132  0.4692
12196TIP3   OH258078   1.545   4.707   6.514 -0.2472 -0.0191  0.1376
12196TIP3    H158079   1.597   4.765   6.458 -1.6087  0.3304 -0.8122
12196TIP3    H258080   1.509   4.641   6.454 -0.0712 -0.8541  0.9390
12197TIP3   OH258081   1.339   5.397  14.629  0.2251  0.1231 -0.0971
12197TIP3    H158082   1.262   5.372  14.679  0.3992  1.2622  0.7752
12197TIP3    H258083   1.352   5.326  14.566  0.5675 -1.8309  2.0771
12198TIP3   OH258084   2.946   5.204   0.440 -0.0864  0.2037  0.4442
12198TIP3    H158085   2.951   5.170   0.530  1.0379 -0.4152  0.1584
12198TIP3    H258086   2.956   5.298   0.450  0.1392  0.1284  0.9626
12199TIP3   OH258087   5.671   3.376  11.504 -0.6400  0.1376  0.3055
12199TIP3    H158088   5.644   3.416  11.421 -1.4089 -1.6540 -0.3655
12199TIP3    H258089   5.588   3.353  11.547 -0.2307 -0.2537  0.8967
12200TIP3   OH258090   3.807   2.949   0.394 -0.0812  0.8977  0.9227
12200TIP3    H158091   3.872   2.887   0.362  0.9321  0.9990  2.6836
12200TIP3    H258092   3.777   2.995   0.315 -0.0668 -1.0451 -0.2676
12201TIP3   OH258093   0.931   2.678   1.787 -0.3632  0.0367  0.2037
12201TIP3    H158094   0.904   2.641   1.703  0.1791 -0.8558  0.4086
12201TIP3    H258095   0.849   2.694   1.834 -0.6082 -0.8408  0.0804
12202TIP3   OH258096   6.681   4.914   4.300  0.3901 -0.1134 -0.1321
12202TIP3    H158097   6.724   4.897   4.383  1.4959  0.1281 -0.6379
12202TIP3    H258098   6.602   4.859   4.302 -0.3265  0.9087  1.6238
12203TIP3   OH258099   4.475   2.683  14.939 -0.2917  0.4445  0.1888
12203TIP3    H158100   4.426   2.765  14.950 -1.4312 -0.0999 -0.6220
12203TIP3    H258101   4.474   2.668  14.844 -0.8085 -0.9127  0.3940
12204TIP3   OH258102   1.493   1.891  10.461 -0.5539 -0.2636 -0.4008
12204TIP3    H158103   1.490   1.959  10.527 -1.6770  0.4477 -1.1474
12204TIP3    H258104   1.411   1.842  10.472 -0.5559 -0.4088 -0.9750
12205TIP3   OH258105   3.481   1.387   3.451 -0.4295 -0.5145 -0.1902
12205TIP3    H158106   3.526   1.310   3.418 -0.6370 -0.6383 -0.1868
12205TIP3    H258107   3.547   1.435   3.501 -0.1172 -0.3282 -0.7828
12206TIP3   OH258108   4.666   0.207  11.748 -0.1152  0.4498  0.2444
12206TIP3    H158109   4.625   0.123  11.768  0.1151  0.3640  0.3665
12206TIP3    H258110   4.747   0.184  11.703 -0.0163  0.6014  0.3431
12207TIP3   OH258111   1.776   5.542  14.802 -0.3627 -0.6037 -0.2661
12207TIP3    H158112   1.723   5.462  14.800 -0.8537 -0.4063  1.8336
12207TIP3    H258113   1.714   5.610  14.826  0.4009  0.0694 -0.1859
12208TIP3   OH258114   0.495   6.804  14.173  0.5001 -0.0855  0.2080
12208TIP3    H158115   0.469   6.823  14.264  0.7065 -0.7670  0.4229
12208TIP3    H258116   0.542   6.881  14.144 -0.7780  0.7237  0.1958
12209TIP3   OH258117   1.742   1.921   1.362  0.8557 -0.0973 -0.2006
12209TIP3    H158118   1.694   1.880   1.435  0.8294 -0.3976 -0.3817
12209TIP3    H258119   1.774   1.847   1.311  0.5786  0.1114 -0.6854
12210TIP3   OH258120   4.257   5.425   0.831  0.3938 -0.1968 -0.0803
12210TIP3    H158121   4.207   5.344   0.844  1.7511 -1.1511 -0.4560
12210TIP3    H258122   4.253   5.471   0.914  2.0780 -2.1527  1.1901
12211TIP3   OH258123   2.253   0.011  13.920 -0.0747 -0.0744 -0.3823
12211TIP3    H158124   2.308  -0.052  13.967  1.4500  1.4312 -0.0459
12211TIP3    H258125   2.179   0.025  13.978  1.6182  1.5077  1.5432
12212TIP3   OH258126   5.810   2.242  12.729  0.2672 -0.1915 -0.4694
12212TIP3    H158127   5.784   2.240  12.821  1.5346  0.7615 -0.0491
12212TIP3    H258128   5.837   2.152  12.709 -1.4674 -0.7544 -0.3839
12213TIP3   OH258129   0.057   1.147  13.541 -0.3262 -0.6874 -0.0189
12213TIP3    H158130  -0.038   1.159  13.548 -0.4242 -1.0165 -0.7270
12213TIP3    H258131   0.079   1.091  13.615 -0.7770 -1.0727 -0.1672
12214TIP3   OH258132   6.308   0.020  13.034 -0.6094  0.3484  1.0805
12214TIP3    H158133   6.236  -0.042  13.023  0.7447 -1.0571 -0.5883
12214TIP3    H258134   6.358  -0.013  13.109 -0.5718  0.1275  0.9582
12215TIP3   OH258135   1.422   3.441  16.011  0.4443 -0.5049 -0.1374
12215TIP3    H158136   1.400   3.404  15.926 -0.9159  1.3798 -0.6559
12215TIP3    H258137   1.499   3.496  15.994 -0.4996  0.7698 -0.4342
12216TIP3   OH258138   5.956   4.614  16.968  0.2146 -0.0425  0.1043
12216TIP3    H158139   6.013   4.566  17.028 -0.2457 -1.9663 -0.9307
12216TIP3    H258140   5.952   4.560  16.889 -0.3341  1.7195 -1.1434
12217TIP3   OH258141   0.747   5.549  13.531 -0.6339 -0.0216  0.0271
12217TIP3    H158142   0.731   5.614  13.463 -1.4107  0.5432  0.7175
12217TIP3    H258143   0.793   5.478  13.487 -0.1300  0.8200 -0.8361
12218TIP3   OH258144   1.304   6.656   6.878  0.2411  0.3139 -1.1090
12218TIP3    H158145   1.244   6.642   6.804 -0.8013 -0.1250 -0.2036
12218TIP3    H258146   1.389   6.673   6.837  0.3273 -2.7182 -2.4130
12219TIP3   OH258147   2.877   0.648   3.846  0.3690  0.7794 -0.6835
12219TIP3    H158148   2.925   0.584   3.795 -0.0566  0.2524 -0.4354
12219TIP3    H258149   2.902   0.631   3.937  0.3443  1.0434 -0.6256
12220TIP3   OH258150   5.365   3.803   4.170  0.4252 -0.6787 -0.4925
12220TIP3    H158151   5.371   3.742   4.244  2.3527 -0.9104 -0.7756
12220TIP3    H258152   5.395   3.752   4.095 -0.1365 -0.0298 -1.1688
12221TIP3   OH258153   5.411   4.957   2.831  0.5134  0.0681  0.3770
12221TIP3    H158154   5.375   5.016   2.897 -1.5147  1.4236 -1.7993
12221TIP3    H258155   5.506   4.966   2.840  0.2928  0.9156  2.4369
12222TIP3   OH258156   2.620   4.705   5.722 -0.2167  0.0141  0.3725
12222TIP3    H158157   2.548   4.754   5.761 -2.0807 -1.0757 -1.4843
12222TIP3    H258158   2.624   4.624   5.772  0.0718  0.2750  0.7821
12223TIP3   OH258159   4.836   0.137   5.811 -0.2757  0.4030 -0.4601
12223TIP3    H158160   4.830   0.199   5.884 -0.0622 -2.1359  1.8891
12223TIP3    H258161   4.921   0.094   5.823 -1.2819 -1.7843 -0.6619
12224TIP3   OH258162   2.817   3.756   3.559  0.1501 -0.1219  0.2808
12224TIP3    H158163   2.831   3.805   3.478 -0.5965  0.4522  0.4803
12224TIP3    H258164   2.721   3.750   3.566  0.2051 -0.0367  1.1915
12225TIP3   OH258165   6.132   2.008   2.538  0.2124  0.1508 -0.8135
12225TIP3    H158166   6.112   2.004   2.445  1.5806 -1.2853 -1.0964
12225TIP3    H258167   6.120   2.099   2.562 -1.2021  0.3400 -2.1389
12226TIP3   OH258168   4.303   1.354   0.950 -0.2348  0.0774  0.7877
12226TIP3    H158169   4.272   1.265   0.932 -0.2753 -0.0389  1.4148
12226TIP3    H258170   4.315   1.393   0.863 -3.5536  0.6424  0.4660
12227TIP3   OH258171   0.474   6.727  16.733  0.1507 -0.1113  0.0051
12227TIP3    H158172   0.510   6.752  16.818  0.6286 -1.3138  0.1895
12227TIP3    H258173   0.534   6.765  16.669  0.6528 -0.4578  0.2626
12228TIP3   OH258174   3.570   5.692   5.108 -0.2221 -0.5184  0.0778
12228TIP3    H158175   3.490   5.733   5.077 -0.5979 -1.3707 -0.1204
12228TIP3    H258176   3.588   5.623   5.043  1.0009  0.0408 -0.2101
12229TIP3   OH258177   6.042   1.654   5.055 -0.2370 -0.3126 -0.1014
12229TIP3    H158178   6.070   1.711   5.126 -1.2802  0.5355 -0.3433
12229TIP3    H258179   5.999   1.581   5.098 -0.0058 -0.2882  0.1719
12230TIP3   OH258180   0.372   0.480   5.125 -0.1147  0.3567  0.2307
12230TIP3    H158181   0.400   0.551   5.184  0.4535  0.2538  0.0896
12230TIP3    H258182   0.447   0.421   5.122  0.6077  1.2917 -2.0644
12231TIP3   OH258183   0.225   1.271  12.478  0.3202  0.6967  0.1026
12231TIP3    H158184   0.219   1.197  12.538 -0.9522 -0.1079 -0.9555
12231TIP3    H258185   0.164   1.250  12.408  1.7714  1.5951 -1.5111
12232TIP3   OH258186   6.848   6.058  10.404  0.1360 -0.0692  0.3876
12232TIP3    H158187   6.771   6.027  10.451  0.1266  0.6991  0.9098
12232TIP3    H258188   6.921   6.035  10.461 -0.0114  2.6607  1.8829
12233TIP3   OH258189   5.500   1.492  12.278  0.0536  0.3554  0.5467
12233TIP3    H158190   5.548   1.468  12.357 -0.6933 -1.2375  0.5643
12233TIP3    H258191   5.567   1.514  12.214  0.7554 -0.4758  0.9814
12234TIP3   OH258192   2.397   2.035   5.203 -0.2225  0.4518 -0.3336
12234TIP3    H158193   2.379   1.984   5.124  0.7326  1.0285 -0.9591
12234TIP3    H258194   2.375   2.125   5.178 -0.0624  0.6135  0.1025
12235TIP3   OH258195   6.461   1.581  15.652  1.1687  0.0696 -0.5861
12235TIP3    H158196   6.542   1.531  15.662  1.2688 -0.0083 -1.6453
12235TIP3    H258197   6.468   1.620  15.565 -0.7994 -1.5515 -1.5370
12236TIP3   OH258198   5.264   4.885   3.741  0.2927 -0.0798  0.0477
12236TIP3    H158199   5.335   4.905   3.680  0.9742 -0.2370  0.7695
12236TIP3    H258200   5.259   4.961   3.798  2.6715 -1.6575  2.5879
12237TIP3   OH258201   5.702   3.337   3.433 -0.6630 -0.8619  0.1949
12237TIP3    H158202   5.733   3.257   3.389 -2.1093 -0.5920 -1.3968
12237TIP3    H258203   5.609   3.343   3.411 -1.4267 -0.4862  3.0476
12238TIP3   OH258204   0.772   6.277   0.691 -0.1640 -0.1570  0.1324
12238TIP3    H158205   0.857   6.285   0.734  0.7503  1.8418 -1.8620
12238TIP3    H258206   0.722   6.354   0.721 -1.0427 -0.9201  0.7057
12239TIP3   OH258207   4.694   6.268   0.332  0.0998  0.4657  0.0613
12239TIP3    H158208   4.779   6.312   0.335  1.4522 -1.9362 -0.0962
12239TIP3    H258209   4.680   6.236   0.422 -0.7468  1.0148  0.1327
12240TIP3   OH258210   3.705   0.959  12.954 -0.5586  0.1002 -0.2982
12240TIP3    H158211   3.730   0.940  13.044 -0.7971 -1.3224 -0.5058
12240TIP3    H258212   3.782   0.936  12.902 -1.2346 -1.5051 -0.6644
12241TIP3   OH258213   5.130   0.165   2.595 -0.7276  1.1742 -0.2021
12241TIP3    H158214   5.158   0.256   2.606 -1.6525  1.4637 -0.0733
12241TIP3    H258215   5.038   0.165   2.624 -1.1890  0.5057 -1.5641
12242TIP3   OH258216   0.577   0.428   4.227  0.3156 -0.3435 -0.0074
12242TIP3    H158217   0.583   0.377   4.146 -1.9292 -1.1123  0.2406
12242TIP3    H258218   0.601   0.366   4.296  1.5839  0.1268 -0.0082
12243TIP3   OH258219   4.890   3.223  12.745  0.4411  0.0288  0.6763
12243TIP3    H158220   4.960   3.249  12.805  0.6774 -1.3011  1.0143
12243TIP3    H258221   4.834   3.166  12.797 -0.6209  0.6478  0.2556
12244TIP3   OH258222   0.117   3.626   1.034 -0.2369 -0.4170 -0.1059
12244TIP3    H158223   0.030   3.596   1.010 -0.3188 -0.1505 -0.1556
12244TIP3    H258224   0.106   3.720   1.049 -0.5727 -0.7965  2.6796
12245TIP3   OH258225   4.038   4.870   2.832  0.0690 -0.3842  0.4005
12245TIP3    H158226   4.126   4.841   2.808 -0.1006  0.1686 -1.0039
12245TIP3    H258227   4.002   4.797   2.883  0.2952 -1.9297 -1.5168
12246TIP3   OH258228   0.801   4.971  16.049 -0.2127 -0.2550 -0.1622
12246TIP3    H158229   0.790   4.878  16.066 -0.9504 -0.3301 -0.9808
12246TIP3    H258230   0.747   4.988  15.972 -1.4006  1.1587  0.9215
12247TIP3   OH258231   0.210   4.231   1.357  0.1813 -0.4708 -0.1342
12247TIP3    H158232   0.305   4.241   1.351  0.0714 -0.2564 -2.2574
12247TIP3    H258233   0.185   4.288   1.429  1.3041  2.5305 -1.9071
12248TIP3   OH258234   2.769   4.597   0.255  0.3172  0.4439  0.1674
12248TIP3    H158235   2.766   4.520   0.312  2.6217 -0.6057 -0.9806
12248TIP3    H258236   2.710   4.576   0.183  1.7490 -0.8340 -0.7082
12249TIP3   OH258237   1.756   1.010  14.790 -0.8100  0.1295 -0.3058
12249TIP3    H158238   1.681   1.034  14.734 -0.1576  1.0809 -0.7999
12249TIP3    H258239   1.723   1.021  14.879 -1.7168 -0.9246 -0.4887
12250TIP3   OH258240   6.782   0.570  13.064  0.6524 -0.3900 -0.4739
12250TIP3    H158241   6.693   0.580  13.099  1.0679  0.5754  0.3437
12250TIP3    H258242   6.839   0.591  13.138  1.5584  1.0064 -1.5216
12251TIP3   OH258243   2.393   0.566   2.736 -0.1394  0.2600 -0.0562
12251TIP3    H158244   2.323   0.597   2.679 -1.4404  0.0392  1.3633
12251TIP3    H258245   2.376   0.607   2.820 -1.2265 -3.1953  1.5921
12252TIP3   OH258246   5.214   3.661   3.028 -0.5653 -0.6337  0.2446
12252TIP3    H158247   5.119   3.650   3.023 -0.8534  0.4441  2.2454
12252TIP3    H258248   5.246   3.579   3.065 -1.0061 -0.2142  1.6177
12253TIP3   OH258249   3.828   1.736  16.315  0.3755 -0.1702 -0.1842
12253TIP3    H158250   3.748   1.698  16.350  0.9807 -0.6498  0.7286
12253TIP3    H258251   3.866   1.784  16.388  2.0495 -1.8093  0.0983
12254TIP3   OH258252   4.299   1.561  14.234  0.0070 -0.4003 -0.2706
12254TIP3    H158253   4.237   1.633  14.236 -0.3467 -0.6909 -0.6429
12254TIP3    H258254   4.382   1.599  14.264 -0.4000 -0.0605  0.4475
12255TIP3   OH258255   5.042   6.498   4.234 -0.1492  0.0561  0.1515
12255TIP3    H158256   5.119   6.448   4.208 -0.4853 -0.0993 -0.5748
12255TIP3    H258257   5.051   6.508   4.329  0.8413  0.1838  0.0574
12256TIP3   OH258258   1.576   5.176   6.720 -0.1273  0.1812  0.4566
12256TIP3    H158259   1.527   5.101   6.756  0.1066 -0.1749  0.0440
12256TIP3    H258260   1.514   5.249   6.726 -0.3739 -0.0485  0.8300
12257TIP3   OH258261   4.527   3.946   1.158  0.0502 -0.3395  0.5269
12257TIP3    H158262   4.488   3.876   1.210 -0.9576  0.1564  0.4576
12257TIP3    H258263   4.553   4.012   1.223 -0.3789 -0.1188  0.4755
12258TIP3   OH258264   3.289   3.822  14.015  0.2425  0.1967  0.3127
12258TIP3    H158265   3.256   3.842  13.928  0.1504 -0.3177  0.2286
12258TIP3    H258266   3.372   3.871  14.021  0.3695  0.0430 -0.1501
12259TIP3   OH258267   3.014   6.226  12.034 -0.5814 -0.1860  0.2766
12259TIP3    H158268   3.093   6.264  11.995 -1.0106  0.0250 -0.4149
12259TIP3    H258269   2.991   6.286  12.105 -1.0722  0.6937 -0.6054
12260TIP3   OH258270   1.958   3.094  16.716  0.1202  0.1098  0.1992
12260TIP3    H158271   1.872   3.131  16.738 -0.8665 -0.5459 -2.2320
12260TIP3    H258272   1.953   3.003  16.745 -1.4332 -0.9522 -2.9233
12261TIP3   OH258273   3.268   4.658  14.002  0.0937  0.2273 -0.6888
12261TIP3    H158274   3.258   4.563  14.005  1.7430  0.0444 -0.1942
12261TIP3    H258275   3.244   4.687  14.090  1.4972  0.0339 -0.2190
12262TIP3   OH258276   2.940   1.377   1.463  0.5809 -0.4137  0.0139
12262TIP3    H158277   2.891   1.299   1.491  0.9071 -0.6050  0.0641
12262TIP3    H258278   2.991   1.401   1.541  0.6076 -0.2505 -0.0552
12263TIP3   OH258279   2.774   5.062   1.001 -0.0599  0.2445 -0.2386
12263TIP3    H158280   2.851   5.020   0.963  0.2273 -0.8016  1.3925
12263TIP3    H258281   2.807   5.143   1.039  0.4466 -0.5701  1.1437
12264TIP3   OH258282   5.628   0.641   3.138  0.0108 -0.5925 -0.4060
12264TIP3    H158283   5.629   0.715   3.078 -2.1931 -0.9076 -0.9194
12264TIP3    H258284   5.652   0.565   3.085  2.9751 -0.2761  0.2657
12265TIP3   OH258285   5.977   2.636   5.066 -0.2007  0.6077 -1.1905
12265TIP3    H158286   6.058   2.601   5.029 -0.2632  1.8325 -2.5607
12265TIP3    H258287   6.007   2.690   5.140  0.1035 -0.0223 -0.8401
12266TIP3   OH258288   6.289   6.805  15.528  0.2644  0.4634 -0.4534
12266TIP3    H158289   6.209   6.783  15.479  0.2119 -0.9892  0.2543
12266TIP3    H258290   6.289   6.745  15.602  1.4926  1.1568  0.1319
12267TIP3   OH258291   0.129   1.088   1.144 -0.6402 -0.7207  0.1429
12267TIP3    H158292   0.119   1.145   1.221 -1.3360 -0.5134 -0.0887
12267TIP3    H258293   0.097   1.141   1.071 -0.9576 -1.2744 -0.1293
12268TIP3   OH258294   2.927   1.843   3.812 -0.1719 -0.4949 -0.4653
12268TIP3    H158295   2.977   1.829   3.732  0.9931 -0.7366  0.2817
12268TIP3    H258296   2.844   1.798   3.797 -0.4557  0.4786 -1.9857
12269TIP3   OH258297   6.371   5.259   1.728 -0.7698 -0.5215  0.6250
12269TIP3    H158298   6.410   5.214   1.803  0.6238 -1.2248 -0.4705
12269TIP3    H258299   6.380   5.352   1.748 -0.9175 -0.7076  1.5773
12270TIP3   OH258300   3.753   3.886   3.677 -0.3145 -0.4906 -0.4498
12270TIP3    H158301   3.694   3.859   3.748 -2.0171  0.1908 -1.5513
12270TIP3    H258302   3.839   3.854   3.704 -0.3165  1.9129  3.2440
12271TIP3   OH258303   3.450   2.236   4.732  0.1251  0.0404 -0.2679
12271TIP3    H158304   3.367   2.216   4.777 -0.4808  1.3373 -0.7530
12271TIP3    H258305   3.516   2.228   4.801 -0.5297 -0.0544  0.3737
12272TIP3   OH258306   6.229   5.139  16.587  0.4674 -0.2283  0.5295
12272TIP3    H158307   6.266   5.204  16.528  1.4256 -0.0209  1.3331
12272TIP3    H258308   6.299   5.120  16.649  0.0478 -1.6824  0.5959
12273TIP3   OH258309   4.372   6.876   1.357 -0.5793 -0.4956 -0.0005
12273TIP3    H158310   4.464   6.850   1.347 -0.7718 -0.9982 -0.5120
12273TIP3    H258311   4.332   6.804   1.406 -1.1244 -1.2020 -1.4402
12274TIP3   OH258312   3.240   6.052  10.988  0.7725  0.5929  0.3682
12274TIP3    H158313   3.161   6.045  11.043  0.0285 -0.6907 -0.7914
12274TIP3    H258314   3.225   6.130  10.935 -0.9039 -0.8472 -1.4854
12275TIP3   OH258315   3.564   3.544   1.401 -0.1533  0.0829 -0.1623
12275TIP3    H158316   3.652   3.519   1.373  0.1293 -0.0427  0.8098
12275TIP3    H258317   3.507   3.514   1.330  0.3268 -2.0734  0.2803
12276TIP3   OH258318   2.236   0.994  14.254  0.1550  0.4454  0.0236
12276TIP3    H158319   2.180   1.060  14.296 -0.4952 -0.7859  1.1831
12276TIP3    H258320   2.302   1.045  14.207 -0.1903  1.9294  1.0573
12277TIP3   OH258321   1.666   6.422   2.860  0.0250 -0.9176  0.1906
12277TIP3    H158322   1.647   6.328   2.870 -1.8305 -0.8093 -1.5513
12277TIP3    H258323   1.645   6.441   2.768  1.1714  1.0551  0.2784
12278TIP3   OH258324   0.126   5.911   5.639  0.4935 -0.1012 -0.0248
12278TIP3    H158325   0.197   5.873   5.689 -0.2105 -0.8952  0.4017
12278TIP3    H258326   0.051   5.911   5.699  0.6118  2.7095  0.2975
12279TIP3   OH258327   1.978   5.993  14.135  0.0541  0.3289 -0.2067
12279TIP3    H158328   1.905   6.043  14.098 -1.0706 -0.4528  0.8750
12279TIP3    H258329   2.034   5.974  14.060  0.9615  3.7944 -0.6027
12280TIP3   OH258330   6.503   1.758  11.517 -0.2009 -0.1878  0.0970
12280TIP3    H158331   6.467   1.736  11.431  1.0914  2.4053 -1.2295
12280TIP3    H258332   6.597   1.769  11.502 -0.3590  3.9441  0.8140
12281TIP3   OH258333   1.622   5.331  16.080  0.1770 -0.2869 -0.3322
12281TIP3    H158334   1.557   5.369  16.138  0.6837 -0.2294  0.2078
12281TIP3    H258335   1.579   5.326  15.995 -0.4375 -0.0042 -0.0409
12282TIP3   OH258336   4.110   5.457   5.451  0.3364  0.0818  0.0324
12282TIP3    H158337   4.077   5.415   5.371  1.3550 -0.2961 -0.2131
12282TIP3    H258338   4.103   5.550   5.433 -0.1655  0.0050 -0.1881
12283TIP3   OH258339   5.343   3.982   1.976 -0.7234 -0.1547  0.6647
12283TIP3    H158340   5.397   4.021   2.044 -0.3683 -2.5375  1.8534
12283TIP3    H258341   5.388   4.004   1.894 -0.0727  1.0909  1.3207
12284TIP3   OH258342   3.373   4.143  13.878  0.5876  0.0594 -0.0862
12284TIP3    H158343   3.347   4.151  13.786  0.5093  2.6381  0.1071
12284TIP3    H258344   3.459   4.101  13.874  0.8585  0.6713 -1.3974
12285TIP3   OH258345   2.455   5.598  11.273  0.0559  0.1584  0.0326
12285TIP3    H158346   2.397   5.522  11.273 -1.3918  1.2065  0.2738
12285TIP3    H258347   2.482   5.607  11.181 -0.5918 -0.0385 -0.1822
12286TIP3   OH258348   3.448   1.581  13.389 -0.4970 -0.3687  0.1977
12286TIP3    H158349   3.369   1.633  13.404 -1.5784 -1.2293 -2.0782
12286TIP3    H258350   3.454   1.574  13.294  1.2670 -1.9260  0.3759
12287TIP3   OH258351   3.031   5.916   1.783 -0.4689  0.9147  0.8938
12287TIP3    H158352   3.036   5.838   1.728 -0.3299 -0.5461  2.8366
12287TIP3    H258353   3.078   5.984   1.735  0.5438 -0.5632 -0.2735
12288TIP3   OH258354   3.763   2.753  11.988  0.2921  1.0210 -0.7550
12288TIP3    H158355   3.832   2.747  11.923  0.7910  0.5465 -0.1956
12288TIP3    H258356   3.685   2.779  11.939  0.0478 -1.6614 -2.0048
12289TIP3   OH258357   3.764   4.635  12.596 -0.0596 -0.1416 -0.0854
12289TIP3    H158358   3.844   4.682  12.619  0.7254 -2.3214  2.1913
12289TIP3    H258359   3.789   4.581  12.521  1.2615 -2.0777  1.6349
12290TIP3   OH258360   0.703   6.378   4.304 -0.3243 -0.5870 -0.3919
12290TIP3    H158361   0.786   6.415   4.331  0.7153 -1.3648 -2.3324
12290TIP3    H258362   0.643   6.397   4.377  1.1851  1.1406  0.4761
12291TIP3   OH258363   0.349   3.161   4.704 -0.3172  0.5759 -0.3237
12291TIP3    H158364   0.435   3.201   4.704  0.5684 -1.2297 -0.2226
12291TIP3    H258365   0.356   3.088   4.642 -0.5426 -1.9287  2.3549
12292TIP3   OH258366   2.916   1.825   1.787 -0.3523 -0.5027  0.1616
12292TIP3    H158367   2.908   1.832   1.882 -0.6967 -0.5888  0.1406
12292TIP3    H258368   2.988   1.763   1.773 -0.5960 -0.8323  0.3695
12293TIP3   OH258369   4.259   5.734   0.421  0.1529 -0.1456 -0.0759
12293TIP3    H158370   4.252   5.698   0.333 -0.2623  1.8631 -0.9282
12293TIP3    H258371   4.346   5.707   0.451  0.0437 -1.4075 -0.8223
12294TIP3   OH258372   1.509   5.010   2.537 -0.4402  0.0936  0.5469
12294TIP3    H158373   1.433   5.060   2.565 -1.3157 -0.7231 -0.2998
12294TIP3    H258374   1.543   4.970   2.618  0.4515  2.1950  1.2883
12295TIP3   OH258375   2.790   6.509  11.490 -0.0978 -0.1387 -0.8148
12295TIP3    H158376   2.854   6.480  11.425  0.8822  1.3730 -0.5782
12295TIP3    H258377   2.707   6.509  11.443  0.3583 -0.4618 -1.6410
12296TIP3   OH258378   6.325   5.818  15.462  0.0879 -0.0929  0.0574
12296TIP3    H158379   6.369   5.890  15.506  1.8019 -1.7171  1.1348
12296TIP3    H258380   6.256   5.791  15.522  1.0184 -0.8853  0.8035
12297TIP3   OH258381   0.964   2.926  15.546  0.2211 -0.2966  0.3820
12297TIP3    H158382   0.885   2.973  15.573  0.7985  1.0607 -0.1871
12297TIP3    H258383   0.965   2.848  15.600 -0.0793  0.9924  2.3349
12298TIP3   OH258384   5.312   3.201   4.634 -0.5546  0.8631  0.3102
12298TIP3    H158385   5.247   3.211   4.565 -0.2025  2.0218  0.1219
12298TIP3    H258386   5.367   3.128   4.604 -1.4697  0.1730  0.2599
12299TIP3   OH258387   2.010   3.521  14.926 -0.3127 -0.3997  0.2438
12299TIP3    H158388   2.077   3.569  14.974 -2.4843  1.0119  2.0239
12299TIP3    H258389   2.056   3.486  14.849  3.1607 -2.0643  2.7921
12300TIP3   OH258390   0.754   1.533  13.863  0.2952 -0.1591  0.3688
12300TIP3    H158391   0.693   1.476  13.910 -0.5643  0.4816  0.0625
12300TIP3    H258392   0.840   1.498  13.884  0.0114  0.3839  2.8693
12301TIP3   OH258393   4.548   0.987   0.479  0.0331 -1.3709 -0.3631
12301TIP3    H158394   4.454   0.994   0.498  0.3005 -0.7874  0.8492
12301TIP3    H258395   4.584   1.071   0.507  0.8866 -1.4835 -1.0829
12302TIP3   OH258396   3.382   1.113   0.292  0.0331 -0.4026 -0.0893
12302TIP3    H158397   3.433   1.104   0.213 -0.1913  2.3201 -0.6395
12302TIP3    H258398   3.441   1.086   0.363  1.1295 -0.3096 -0.9541
12303TIP3   OH258399   3.078   0.942  12.802 -0.1743 -0.5547 -0.0392
12303TIP3    H158400   3.141   0.936  12.730  0.1110  0.2562  0.1266
12303TIP3    H258401   2.994   0.957  12.758  0.0526  0.2905 -0.2001
12304TIP3   OH258402   0.189   2.914  15.261  0.1766  0.0221  0.5172
12304TIP3    H158403   0.119   2.849  15.264  1.4304 -1.3244  1.7870
12304TIP3    H258404   0.210   2.921  15.168 -1.2312  0.0291  0.1696
12305TIP3   OH258405   5.109   0.146   0.799 -0.0770  0.4048 -0.1163
12305TIP3    H158406   5.203   0.146   0.783 -0.2034  1.1989 -0.9272
12305TIP3    H258407   5.092   0.063   0.844  0.6885 -0.8059 -1.9288
12306TIP3   OH258408   4.767   2.844   1.807  0.3680  0.7036  0.3197
12306TIP3    H158409   4.792   2.756   1.835 -1.2569  0.4985  1.2643
12306TIP3    H258410   4.741   2.833   1.716 -0.7157 -0.0071  0.6967
12307TIP3   OH258411   3.112   1.936  12.419 -0.3712 -0.2019 -0.0345
12307TIP3    H158412   3.142   1.986  12.344 -1.0093  0.1966 -0.0356
12307TIP3    H258413   3.109   2.000  12.491 -0.4368 -0.4143  0.1526
12308TIP3   OH258414   1.281   2.301   3.426  0.0333 -0.3989  0.1023
12308TIP3    H158415   1.200   2.275   3.470 -2.0502  0.4083 -2.8713
12308TIP3    H258416   1.270   2.396   3.411  1.0086 -0.4631 -1.2389
12309TIP3   OH258417   0.756   3.674  16.359  0.0518 -0.3643  0.3759
12309TIP3    H158418   0.847   3.699  16.342  0.2259 -0.0934  1.5720
12309TIP3    H258419   0.755   3.649  16.452 -0.7030 -2.1787 -0.0828
12310TIP3   OH258420   1.955   1.280  14.233 -0.4105 -0.2025  0.0642
12310TIP3    H158421   1.864   1.271  14.205 -0.2207  1.5542 -1.2804
12310TIP3    H258422   1.985   1.360  14.191  1.0957  0.4891  2.3088
12311TIP3   OH258423   3.878   2.129  16.445  0.4539 -0.0708  0.2686
12311TIP3    H158424   3.892   2.210  16.397  0.3356  0.5405  1.2354
12311TIP3    H258425   3.960   2.115  16.493 -0.4470  0.9730  2.2340
12312TIP3   OH258426   5.364   1.887  15.120  0.0991  0.1394 -0.4885
12312TIP3    H158427   5.346   1.825  15.050 -0.6680  1.3257 -1.3784
12312TIP3    H258428   5.311   1.855  15.194 -2.4298  1.1578 -1.7501
12313TIP3   OH258429   5.956   1.800  16.070  0.5742 -0.2387  0.0053
12313TIP3    H158430   5.942   1.830  16.159  1.3318  0.0764  0.0223
12313TIP3    H258431   5.969   1.881  16.019 -2.7692 -0.1714 -0.9594
12314TIP3   OH258432   6.352   1.412   3.538 -0.0743  0.1012  0.2606
12314TIP3    H158433   6.344   1.493   3.488 -1.2849 -0.1351  0.0416
12314TIP3    H258434   6.267   1.403   3.582  0.1212 -0.9466  0.4413
12315TIP3   OH258435   2.250   4.070   1.289  0.7685  0.3629  1.3119
12315TIP3    H158436   2.304   4.136   1.332 -0.9404  2.1563  0.8709
12315TIP3    H258437   2.251   4.094   1.197  0.4993 -0.5281  1.0663
12316TIP3   OH258438   6.185   0.550  14.587 -0.3108  0.7803  0.2882
12316TIP3    H158439   6.161   0.573  14.677 -0.4430  0.3283  0.3722
12316TIP3    H258440   6.116   0.588  14.533 -1.8575 -1.4059  0.6051
12317TIP3   OH258441   5.838   3.002  12.848  0.4544 -0.0562 -0.3358
12317TIP3    H158442   5.777   3.041  12.786  0.8728  0.2112 -0.5799
12317TIP3    H258443   5.902   3.071  12.866  1.3998 -0.7143 -1.0392
12318TIP3   OH258444   0.790   6.129  16.947 -0.3391 -0.2672  0.0518
12318TIP3    H158445   0.767   6.156  16.858  1.6076  0.1377 -0.3696
12318TIP3    H258446   0.793   6.210  16.997  1.3650 -0.1059 -0.2301
12319TIP3   OH258447   1.097   1.940  14.863 -0.4803  0.1340 -0.7719
12319TIP3    H158448   1.044   2.019  14.878 -1.1123 -0.3517 -0.3884
12319TIP3    H258449   1.099   1.896  14.948 -1.6625 -1.1797 -1.3870
12320TIP3   OH258450   2.071   3.893   2.872 -0.9312  0.6954 -0.4791
12320TIP3    H158451   2.066   3.805   2.833 -1.9484  0.3237  0.4491
12320TIP3    H258452   2.163   3.917   2.862  0.1184 -1.7700  1.9223
12321TIP3   OH258453   4.542   3.033  15.176  0.0522  0.1498 -0.1292
12321TIP3    H158454   4.450   3.009  15.186 -0.0378  0.3252 -0.4989
12321TIP3    H258455   4.560   3.092  15.248  0.2308 -0.8860  0.7006
12322TIP3   OH258456   0.603   3.560  12.485  0.2888  0.2045  0.1240
12322TIP3    H158457   0.524   3.511  12.507  0.1365  0.0821 -0.6918
12322TIP3    H258458   0.655   3.558  12.566 -0.2260 -0.3028  0.4535
12323TIP3   OH258459   3.385   5.591  12.779 -0.0086  0.3174 -0.8623
12323TIP3    H158460   3.319   5.620  12.843  1.1558  0.0644  0.4930
12323TIP3    H258461   3.350   5.620  12.695 -1.9423  0.0263 -0.2145
12324TIP3   OH258462   6.331   4.058   0.092  0.0756  0.3579 -0.1831
12324TIP3    H158463   6.406   4.052   0.033 -0.6390 -1.6141 -0.9716
12324TIP3    H258464   6.359   4.011   0.171  0.0614  0.5890 -0.0403
12325TIP3   OH258465   3.381   5.500  15.564  0.3698  0.1196  0.0537
12325TIP3    H158466   3.297   5.545  15.572 -0.6348 -1.5345 -0.6457
12325TIP3    H258467   3.392   5.453  15.647  0.2002 -0.3060 -0.1619
12326TIP3   OH258468   1.135   2.647  14.823  0.0348 -0.4289  0.4520
12326TIP3    H158469   1.075   2.718  14.843  1.3667  0.3985  1.7804
12326TIP3    H258470   1.156   2.659  14.731  2.0217  2.4537  1.1157
12327TIP3   OH258471   4.783   4.230  16.263 -0.5370 -0.5090  0.2093
12327TIP3    H158472   4.793   4.141  16.230 -1.4659 -0.7379  0.5321
12327TIP3    H258473   4.690   4.250  16.253 -0.5651 -0.0331  1.2692
12328TIP3   OH258474   6.271   5.569   4.180  0.0812 -0.0435 -0.4307
12328TIP3    H158475   6.228   5.536   4.102 -3.6341  0.5224  1.1822
12328TIP3    H258476   6.285   5.491   4.234  0.2361 -0.1255 -0.5887
12329TIP3   OH258477   6.206   0.973   1.895  0.0300 -1.2184  0.0990
12329TIP3    H158478   6.191   0.949   1.803 -0.9131  1.0422 -0.4186
12329TIP3    H258479   6.121   1.004   1.926  0.6605 -0.6271  1.2975
12330TIP3   OH258480   1.105   4.020  16.942 -0.2776  0.1252 -0.1862
12330TIP3    H158481   1.189   4.049  16.908  0.4703 -0.9534  0.6873
12330TIP3    H258482   1.071   3.961  16.874 -0.6885  1.1076 -0.8628
12331TIP3   OH258483   6.856   3.383  11.484  0.1089 -0.1094 -0.2510
12331TIP3    H158484   6.928   3.446  11.485 -0.4190  0.4896  0.2125
12331TIP3    H258485   6.842   3.361  11.576  1.2462 -2.0254 -0.4769
12332TIP3   OH258486   0.649   5.234  13.361 -0.0990 -0.1969 -0.4715
12332TIP3    H158487   0.726   5.281  13.330 -0.5128 -0.0586 -1.3267
12332TIP3    H258488   0.582   5.252  13.295 -0.0263 -2.7041 -1.3074
12333TIP3   OH258489   3.311   6.399   3.778 -0.2478  0.4663  0.0795
12333TIP3    H158490   3.338   6.473   3.723  0.1728  0.1250 -0.1764
12333TIP3    H258491   3.261   6.439   3.849 -1.4662  0.8511 -0.9606
12334TIP3   OH258492   4.504   0.789  12.025  0.3486  0.0610 -0.1275
12334TIP3    H158493   4.565   0.717  12.005 -0.9387 -0.7433 -1.3170
12334TIP3    H258494   4.555   0.848  12.080  1.3469 -1.9288  1.2096
12335TIP3   OH258495   4.012   5.232  12.205 -0.9267  0.0228  0.2920
12335TIP3    H158496   3.924   5.206  12.230 -1.0804  0.4235  0.1728
12335TIP3    H258497   4.007   5.327  12.195 -0.6520 -0.0266 -0.3970
12336TIP3   OH258498   6.219   1.025  13.388 -0.3353 -0.8774  0.3806
12336TIP3    H158499   6.229   1.119  13.373  0.9621 -1.2007 -0.9962
12336TIP3    H258500   6.304   0.996  13.422 -0.4317 -1.6800 -0.0182
12337TIP3   OH258501   5.146   1.874  11.219 -0.2121  0.4732 -0.1479
12337TIP3    H158502   5.148   1.817  11.142 -1.7056  2.0261 -1.4195
12337TIP3    H258503   5.231   1.918  11.219  0.7242 -1.2216  0.5077
12338TIP3   OH258504   1.498   5.759  11.845 -0.1420 -0.0995  0.4650
12338TIP3    H158505   1.581   5.806  11.848  0.4661 -1.0727 -0.5124
12338TIP3    H258506   1.457   5.786  11.763 -0.7479  0.2817  0.8823
12339TIP3   OH258507   4.611   5.999   3.069 -0.9257 -0.0939 -0.2532
12339TIP3    H158508   4.656   6.065   3.122 -0.9616 -0.1275 -0.1806
12339TIP3    H258509   4.552   6.050   3.013 -1.8677 -0.1192  0.6638
12340TIP3   OH258510   6.185   4.871   0.161 -0.1971 -0.3760 -0.2196
12340TIP3    H158511   6.209   4.836   0.247  1.1361 -0.6722 -0.6929
12340TIP3    H258512   6.091   4.886   0.167 -0.0539  0.0472  1.4420
12341TIP3   OH258513   0.774   4.777   1.461 -0.1064 -0.4141 -0.0648
12341TIP3    H158514   0.831   4.845   1.496 -1.9042  0.9218  0.4193
12341TIP3    H258515   0.825   4.737   1.391  2.3171 -0.9224  1.8516
12342TIP3   OH258516   4.909   5.712  14.440 -0.0341  0.1841 -0.3985
12342TIP3    H158517   4.894   5.619  14.428 -0.6659  0.4323 -1.6554
12342TIP3    H258518   4.854   5.735  14.516  0.8585 -0.6265  0.5196
12343TIP3   OH258519   0.187   2.469  14.191  0.0936  0.2021 -0.0882
12343TIP3    H158520   0.176   2.375  14.173 -0.3591 -0.4240  2.9160
12343TIP3    H258521   0.209   2.507  14.107  3.1864 -3.0436 -0.9590
12344TIP3   OH258522   4.232   0.895  12.055  0.5369 -0.7243 -0.2480
12344TIP3    H158523   4.260   0.829  12.119 -0.0915 -1.4954 -0.7666
12344TIP3    H258524   4.314   0.925  12.014  0.6973 -2.5803 -1.3729
12345TIP3   OH258525   6.169   2.086  13.575  0.0123 -0.3056 -0.3680
12345TIP3    H158526   6.170   2.177  13.546 -1.0575  0.1695  0.9717
12345TIP3    H258527   6.209   2.038  13.504  0.9579  1.2616 -0.9436
12346TIP3   OH258528   1.359   2.816   2.942  0.7963 -0.3946  0.2810
12346TIP3    H158529   1.342   2.789   2.852 -1.2840 -0.7500  0.7425
12346TIP3    H258530   1.426   2.885   2.934  0.5813 -0.3495 -1.5268
12347TIP3   OH258531   4.303   4.377   1.527  0.2604 -0.1448  0.0907
12347TIP3    H158532   4.358   4.450   1.555  0.4446 -0.3627  0.3021
12347TIP3    H258533   4.352   4.299   1.553  0.0152 -0.3416 -0.0373
12348TIP3   OH258534   4.897   3.591   0.980 -0.4038  0.1178 -0.1555
12348TIP3    H158535   4.830   3.642   1.026 -2.1705  0.3287 -2.7519
12348TIP3    H258536   4.876   3.500   1.002 -1.9938  0.1410 -1.3586
12349TIP3   OH258537   1.157   1.622  10.686  0.2558  0.0809  0.1779
12349TIP3    H158538   1.102   1.672  10.746 -0.2479 -0.1309 -0.1077
12349TIP3    H258539   1.141   1.531  10.710 -1.3792 -0.1299 -1.4693
12350TIP3   OH258540   6.197   6.464   3.389  0.0504  0.8427 -0.3498
12350TIP3    H158541   6.162   6.453   3.300  1.9083 -0.2014 -1.0057
12350TIP3    H258542   6.133   6.520   3.433 -0.5580  2.0005 -2.5623
12351TIP3   OH258543   2.061   3.008  15.049  0.0973  0.0748  1.1365
12351TIP3    H158544   2.001   3.078  15.025  2.2965  1.4131 -0.8242
12351TIP3    H258545   2.005   2.929  15.051 -1.6416  1.0982 -1.3427
12352TIP3   OH258546   4.454   5.544   4.256  0.0277 -0.4227 -0.1642
12352TIP3    H158547   4.432   5.624   4.209 -1.0174  0.5578  1.8557
12352TIP3    H258548   4.410   5.474   4.207 -2.9413  0.8107  0.4985
12353TIP3   OH258549   4.043   3.201  15.728 -0.1034  0.0098  0.3035
12353TIP3    H158550   4.003   3.256  15.661 -0.2601 -0.8584 -0.3277
12353TIP3    H258551   4.136   3.200  15.705  0.4543  2.4316  2.0536
12354TIP3   OH258552   5.388   5.626   5.735 -0.4825 -0.4179  0.4223
12354TIP3    H158553   5.433   5.709   5.750 -1.2424 -0.0184  0.5731
12354TIP3    H258554   5.412   5.571   5.810  4.4207 -2.4298 -2.1198
12355TIP3   OH258555   4.235   2.737   2.037  0.3884 -0.2681  0.3154
12355TIP3    H158556   4.199   2.687   2.110  0.6088 -0.0548  0.5750
12355TIP3    H258557   4.159   2.776   1.994  0.3699  1.3859  1.7399
12356TIP3   OH258558   4.989   3.538  14.827 -0.1635  0.2220 -0.1567
12356TIP3    H158559   5.065   3.526  14.770  1.4767  0.9825  1.7601
12356TIP3    H258560   4.962   3.450  14.851  1.2183 -0.0364  0.4998
12357TIP3   OH258561   4.868   6.006  13.798  0.2634 -0.3125 -0.6022
12357TIP3    H158562   4.963   6.019  13.798  0.3380 -0.0333 -4.2158
12357TIP3    H258563   4.831   6.094  13.789 -0.3526 -0.4987 -0.0280
12358TIP3   OH258564   1.663   4.221   1.584  0.1385  0.0059  0.3809
12358TIP3    H158565   1.724   4.168   1.532 -0.6909 -0.6137  0.0092
12358TIP3    H258566   1.579   4.212   1.538 -0.0609  1.5493  0.3814
12359TIP3   OH258567   1.073   6.159  15.060 -0.1800  0.3264  0.0022
12359TIP3    H158568   1.141   6.192  15.119  0.9926 -0.4596 -0.8539
12359TIP3    H258569   1.038   6.082  15.104 -1.2417  1.2873  0.8995
12360TIP3   OH258570   2.564   0.208   4.978 -0.0013 -0.3828  0.0739
12360TIP3    H158571   2.548   0.134   5.037 -0.4572  0.0234  0.4689
12360TIP3    H258572   2.603   0.275   5.034  0.4564 -0.3346 -0.2937
12361TIP3   OH258573   5.891   5.077  11.976  0.5991  0.1919  0.0856
12361TIP3    H158574   5.826   5.147  11.976  1.1377  0.7477  2.4634
12361TIP3    H258575   5.839   4.997  11.980  0.0263  0.5026 -0.7554
12362TIP3   OH258576   3.962   3.003   0.726 -0.1507 -0.6686  0.2277
12362TIP3    H158577   3.998   3.039   0.645  0.0531 -2.2391 -0.4153
12362TIP3    H258578   3.972   3.074   0.790 -0.5200  0.6952 -1.1531
12363TIP3   OH258579   2.489   1.244  14.737  0.3203 -0.4240 -0.2235
12363TIP3    H158580   2.501   1.165  14.683  3.3782 -1.2955  1.4625
12363TIP3    H258581   2.491   1.316  14.674  0.7225 -1.5518 -1.5508
12364TIP3   OH258582   4.973   1.847   3.747  0.2157  0.6662  0.4337
12364TIP3    H158583   4.902   1.895   3.789  0.1780  0.0251  1.1058
12364TIP3    H258584   4.931   1.802   3.674  0.1615  1.2359  0.1012
12365TIP3   OH258585   6.102   3.734  13.856 -0.1289 -0.2596  0.1416
12365TIP3    H158586   6.028   3.714  13.914  1.0562 -0.7917  1.5433
12365TIP3    H258587   6.150   3.652  13.848  2.3469  0.8107  2.3409
12366TIP3   OH258588   5.714   1.657   3.087 -0.2645  0.3121  0.0533
12366TIP3    H158589   5.702   1.633   2.995  0.1003  0.1439  0.0472
12366TIP3    H258590   5.625   1.671   3.120 -0.4238 -0.0799 -0.2030
12367TIP3   OH258591   3.621   2.509   2.453 -0.2494  0.0471  0.6512
12367TIP3    H158592   3.568   2.560   2.515  0.5639 -0.6209  1.9464
12367TIP3    H258593   3.704   2.556   2.448  0.7489 -1.4089  2.3530
12368TIP3   OH258594   3.249   2.774   1.742 -0.2219 -0.3418 -0.1943
12368TIP3    H158595   3.177   2.800   1.685 -0.7011  0.1000  0.6101
12368TIP3    H258596   3.328   2.804   1.696 -0.4928 -1.2780 -1.3287
12369TIP3   OH258597   6.191   0.477   5.171  0.2669 -0.0456 -0.2197
12369TIP3    H158598   6.120   0.419   5.195  0.3102  0.2466  0.6375
12369TIP3    H258599   6.148   0.561   5.152  0.0254 -0.6982 -2.9362
12370TIP3   OH258600   6.178   4.159  11.271  0.2753  0.4079 -0.0762
12370TIP3    H158601   6.101   4.118  11.232  1.5294 -0.0960 -2.2060
12370TIP3    H258602   6.146   4.201  11.351 -1.8008 -1.4266  0.1351
12371TIP3   OH258603   3.905   0.653  13.132  0.5220  0.3364  0.3643
12371TIP3    H158604   3.836   0.706  13.171  1.2008  0.7032  1.1105
12371TIP3    H258605   3.983   0.675  13.183  1.0867 -0.4196 -0.1551
12372TIP3   OH258606   5.592   5.254   1.904 -0.1175 -0.2259  0.2090
12372TIP3    H158607   5.556   5.175   1.944 -1.2011 -0.2534 -0.7537
12372TIP3    H258608   5.613   5.229   1.815  0.3934  0.3432  0.1601
12373TIP3   OH258609   5.857   3.548  12.144 -0.0340  0.1822 -0.4020
12373TIP3    H158610   5.946   3.554  12.111  0.5806 -0.0500  1.1164
12373TIP3    H258611   5.847   3.456  12.171  0.9366  1.0736  3.6387
12374TIP3   OH258612   6.265   4.755  14.498  0.1652 -0.3068  0.2107
12374TIP3    H158613   6.348   4.741  14.545  0.5594  0.1164 -0.3455
12374TIP3    H258614   6.271   4.845  14.465 -0.7168 -0.1124  0.5450
12375TIP3   OH258615   5.798   1.970  15.301  0.2636  0.0528  0.6603
12375TIP3    H158616   5.792   1.967  15.396  1.2839 -1.6743  0.6993
12375TIP3    H258617   5.891   1.983  15.282  0.4525 -2.0639 -0.0834
12376TIP3   OH258618   1.355   1.431  15.119 -0.0961 -0.3147  0.3819
12376TIP3    H158619   1.420   1.434  15.049  0.0907 -1.3660  0.4994
12376TIP3    H258620   1.404   1.456  15.198 -0.3092  0.8794  0.1502
12377TIP3   OH258621   3.608   4.985  12.111 -0.1171 -0.0216  0.2551
12377TIP3    H158622   3.575   5.074  12.096 -1.5025 -0.5287  0.1998
12377TIP3    H258623   3.647   4.988  12.198 -1.1885  0.3664  0.7394
12378TIP3   OH258624   5.620   3.532   5.123  0.3535  0.1026 -0.4202
12378TIP3    H158625   5.610   3.485   5.206  2.0274  1.7563  0.7993
12378TIP3    H258626   5.684   3.600   5.141  3.0279 -1.2186 -3.8234
12379TIP3   OH258627   2.231   0.687   4.802  0.1336  0.0199 -0.6315
12379TIP3    H158628   2.299   0.661   4.740 -0.2283  1.8796 -1.8978
12379TIP3    H258629   2.170   0.740   4.750  0.2011  2.2936  1.4340
12380TIP3   OH258630   1.080   2.015   0.959  0.6065  0.2912  0.5452
12380TIP3    H158631   1.151   1.957   0.985  1.7023  1.8499  1.1546
12380TIP3    H258632   1.007   1.956   0.939  1.3230 -1.2464  2.1960
12381TIP3   OH258633   4.343   5.454  13.041  0.2166 -0.0127 -0.0294
12381TIP3    H158634   4.312   5.390  12.977 -0.8348  1.2301 -0.7918
12381TIP3    H258635   4.419   5.495  13.000  0.7541 -0.5912  0.3671
12382TIP3   OH258636   2.511   4.293   3.628 -0.5370  0.3004  0.3714
12382TIP3    H158637   2.601   4.305   3.656  0.0452 -1.5074 -0.5666
12382TIP3    H258638   2.485   4.377   3.590  0.4988  1.0469  1.2886
12383TIP3   OH258639   2.329   3.789  16.779 -0.1322  0.3166  0.2480
12383TIP3    H158640   2.319   3.854  16.709  0.9198  0.2047 -0.0204
12383TIP3    H258641   2.239   3.763  16.800 -0.4685  0.2196 -1.1965
12384TIP3   OH258642   4.022   3.837   3.089  0.2651  0.2010 -0.4157
12384TIP3    H158643   4.059   3.895   3.155 -0.3215  2.2815 -1.8298
12384TIP3    H258644   3.952   3.790   3.135  0.7521  0.5854  0.7600
12385TIP3   OH258645   5.152   3.847   0.258  0.8664 -0.3409  0.6531
12385TIP3    H158646   5.157   3.930   0.305 -0.5061 -0.5820  1.2832
12385TIP3    H258647   5.060   3.821   0.266  0.4460 -0.2454 -2.4211
12386TIP3   OH258648   4.563   3.506  16.058 -0.7244  0.0191  0.2758
12386TIP3    H158649   4.628   3.551  16.004  1.0187 -0.1486  2.1179
12386TIP3    H258650   4.486   3.563  16.055 -0.0198  0.9704 -0.8023
12387TIP3   OH258651   2.382   0.130  11.544  0.0418  0.4389  1.0420
12387TIP3    H158652   2.447   0.162  11.606  0.9714  0.9103 -0.1149
12387TIP3    H258653   2.391   0.035  11.545 -0.1985  0.4204  1.8659
12388TIP3   OH258654   0.899   6.192  12.385  0.5108  0.3700  0.1848
12388TIP3    H158655   0.971   6.154  12.434 -0.3362 -2.3418 -0.4889
12388TIP3    H258656   0.923   6.180  12.293 -0.8778 -0.9012 -0.0555
12389TIP3   OH258657   6.018   5.203  15.346  0.3557  0.5047  0.1433
12389TIP3    H158658   6.051   5.292  15.360 -1.3308  1.3289 -0.7652
12389TIP3    H258659   6.084   5.146  15.384  1.5432  2.1489  0.6337
12390TIP3   OH258660   6.412   4.157   1.440 -0.0213  0.0859  0.1774
12390TIP3    H158661   6.421   4.119   1.352 -0.6599  0.2937  0.0187
12390TIP3    H258662   6.425   4.251   1.426  0.4908  0.0542  0.4073
12391TIP3   OH258663   1.154   3.102  14.094  0.1050 -0.3437 -0.6368
12391TIP3    H158664   1.214   3.177  14.094 -0.2164 -0.0662  0.2905
12391TIP3    H258665   1.077   3.133  14.141 -0.3461 -1.0238 -0.9095
12392TIP3   OH258666   5.387   5.245  13.613  0.0710  0.0651  0.1724
12392TIP3    H158667   5.366   5.328  13.569 -1.3946 -0.1764  0.3778
12392TIP3    H258668   5.483   5.242  13.613  0.1469  1.6318 -0.0682
12393TIP3   OH258669   6.283   2.825   1.333  0.0990 -0.8321 -0.0324
12393TIP3    H158670   6.282   2.744   1.282 -1.2507 -0.3463 -0.8296
12393TIP3    H258671   6.226   2.808   1.407 -2.8057  0.3131 -1.8335
12394TIP3   OH258672   1.490   4.041  12.712 -0.0020  0.0441 -0.2618
12394TIP3    H158673   1.534   4.043  12.627  0.7777  0.4769  0.1397
12394TIP3    H258674   1.560   4.049  12.775 -0.6906  1.2282  0.3931
12395TIP3   OH258675   0.378   6.563   0.269 -0.6901  0.3773 -0.6789
12395TIP3    H158676   0.315   6.593   0.335  0.3787 -0.2519  0.6859
12395TIP3    H258677   0.345   6.477   0.243  0.5826 -0.8849  1.5408
12396TIP3   OH258678   5.182   1.752  14.143 -0.2908 -0.0665 -0.5579
12396TIP3    H158679   5.207   1.790  14.059 -2.3468 -0.2051 -1.2967
12396TIP3    H258680   5.146   1.666  14.121 -1.1582  0.0265  0.4125
12397TIP3   OH258681   1.700   4.336  15.764 -0.5794 -0.0223  0.0484
12397TIP3    H158682   1.655   4.286  15.831 -3.8426  0.3215 -1.6707
12397TIP3    H258683   1.649   4.321  15.684  0.0937  3.4795 -1.2598
12398TIP3   OH258684   2.097   3.903  15.561  0.0283 -0.3715 -0.5264
12398TIP3    H158685   2.026   3.840  15.554 -1.5805  1.4350 -1.7196
12398TIP3    H258686   2.060   3.984  15.526  2.1180  1.1353  0.5281
12399TIP3   OH258687   2.833   3.242   4.279  0.4901 -0.0054  0.6576
12399TIP3    H158688   2.774   3.192   4.223 -0.0632  0.1996  1.0434
12399TIP3    H258689   2.790   3.242   4.365 -0.3006  2.3793  0.3346
12400TIP3   OH258690   5.386   2.888  13.102  0.5447 -0.2377 -0.3065
12400TIP3    H158691   5.376   2.899  13.008  2.8428 -1.0811 -0.7241
12400TIP3    H258692   5.379   2.977  13.137  1.3466  0.3299 -1.4999
12401TIP3   OH258693   0.945   6.219  14.612  0.9907 -0.4801  0.3223
12401TIP3    H158694   1.004   6.280  14.568 -0.2639  0.7812  0.3152
12401TIP3    H258695   0.973   6.222  14.704  0.4451  0.7298  0.4630
12402TIP3   OH258696   5.579   1.547  15.213 -0.4446 -0.3257 -0.3055
12402TIP3    H158697   5.587   1.592  15.129 -0.3153  1.0526  0.4334
12402TIP3    H258698   5.566   1.616  15.277 -2.9934 -1.4916  0.5425
12403TIP3   OH258699   3.878   0.312  12.351 -0.5388  0.2626 -0.1058
12403TIP3    H158700   3.792   0.353  12.365 -0.0048  1.1167  0.8609
12403TIP3    H258701   3.872   0.228  12.397 -0.6044  0.6723  0.6572
12404TIP3   OH258702   2.025   4.479   6.072 -0.3930  0.4066  0.4994
12404TIP3    H158703   2.021   4.476   6.167 -1.9979  1.1581  0.4858
12404TIP3    H258704   1.973   4.403   6.043  0.0578  0.2016  0.2200
12405TIP3   OH258705   1.103   5.701   4.879  0.0612 -0.5593 -0.3948
12405TIP3    H158706   1.045   5.762   4.925  0.6419 -0.4295  0.1725
12405TIP3    H258707   1.122   5.744   4.796 -0.7862 -0.6797 -0.6611
12406TIP3   OH258708   0.486   0.267  12.382 -0.5066 -0.1538  0.0518
12406TIP3    H158709   0.452   0.213  12.310 -0.9459  0.1366  0.0339
12406TIP3    H258710   0.567   0.304  12.348 -0.4208 -0.4682 -0.0894
12407TIP3   OH258711   1.773   5.278   5.318  0.3521 -0.0187  0.3549
12407TIP3    H158712   1.861   5.315   5.311  0.8474 -1.4408 -2.0246
12407TIP3    H258713   1.788   5.187   5.345 -0.3328 -0.4222 -0.5814
12408TIP3   OH258714   1.009   5.847   3.142 -0.4323 -0.3300 -0.1630
12408TIP3    H158715   1.055   5.768   3.169  0.0380  0.2693  0.8575
12408TIP3    H258716   1.076   5.916   3.145 -0.8690  0.1444 -0.8743
12409TIP3   OH258717   2.565   2.484  10.938 -0.0528 -0.6328  0.0810
12409TIP3    H158718   2.575   2.465  11.031  2.2495 -0.0985  0.0004
12409TIP3    H258719   2.521   2.569  10.936 -1.1986 -1.1880  0.6257
12410TIP3   OH258720   1.621   2.612  13.236  0.6243 -0.4854 -0.3708
12410TIP3    H158721   1.659   2.663  13.164  0.2147  0.7811  0.2878
12410TIP3    H258722   1.538   2.580  13.201  1.2847 -1.4771 -1.0902
12411TIP3   OH258723   0.603   4.799   3.371 -0.0821 -0.2262  0.2557
12411TIP3    H158724   0.630   4.768   3.284  0.7698  0.1834  0.3681
12411TIP3    H258725   0.519   4.842   3.356 -0.9168 -1.8651 -0.0412
12412TIP3   OH258726   1.047   0.381   4.246  0.0052 -0.0859  0.1891
12412TIP3    H158727   0.979   0.445   4.225 -0.6010 -0.9940 -0.7179
12412TIP3    H258728   0.999   0.302   4.271  0.7390 -0.2655  1.0581
12413TIP3   OH258729   3.526   3.298   0.290  0.4102  0.3061  0.1383
12413TIP3    H158730   3.572   3.223   0.253  0.3602  0.4168 -0.1584
12413TIP3    H258731   3.593   3.365   0.300  0.2307  0.6335 -0.7578
12414TIP3   OH258732   4.328   0.566  13.101 -0.3582  0.4012 -0.1471
12414TIP3    H158733   4.415   0.525  13.104 -0.9281 -0.8647 -0.0313
12414TIP3    H258734   4.310   0.592  13.191 -0.6576 -0.5957  0.0922
12415TIP3   OH258735   3.563   2.457  11.408  0.5582  0.4355  0.1383
12415TIP3    H158736   3.605   2.379  11.373  0.0970 -0.1389  0.8341
12415TIP3    H258737   3.499   2.424  11.471  4.5193  1.3488  5.4099
12416TIP3   OH258738   5.502   2.935  16.284 -0.6017 -0.8885 -0.3239
12416TIP3    H158739   5.520   2.899  16.197 -0.2627 -1.3945 -0.0507
12416TIP3    H258740   5.425   2.990  16.272 -0.2011 -0.4731 -1.0686
12417TIP3   OH258741   6.060   3.950  11.987  0.1355 -0.3989 -0.2548
12417TIP3    H158742   6.074   4.029  11.936 -0.4184 -1.0986 -1.5350
12417TIP3    H258743   5.997   3.977  12.055  0.0395  0.2728 -0.6004
12418TIP3   OH258744   6.039   3.833   4.175  0.1652  0.5768  0.1717
12418TIP3    H158745   6.081   3.897   4.119 -0.3109  1.2771  0.5958
12418TIP3    H258746   5.957   3.875   4.202 -0.2309 -0.2721  0.3217
12419TIP3   OH258747   1.343   1.977  11.604 -0.7984  0.4051  0.6628
12419TIP3    H158748   1.281   2.028  11.657 -0.3954  1.0598  0.5235
12419TIP3    H258749   1.394   1.928  11.668 -1.0419  0.3483  0.8171
12420TIP3   OH258750   6.211   5.336   2.859 -0.2738 -0.6995 -0.0325
12420TIP3    H158751   6.221   5.317   2.766 -0.7965 -2.6868  0.2704
12420TIP3    H258752   6.301   5.335   2.893 -0.0375  0.5539 -0.5878
12421TIP3   OH258753   3.977   6.702   4.669  0.5377 -0.2617 -0.2802
12421TIP3    H158754   4.000   6.680   4.759  0.5676  0.2049 -0.1699
12421TIP3    H258755   4.051   6.672   4.617  0.9282  0.2674 -0.0457
12422TIP3   OH258756   0.357   5.148   5.611 -0.0598  0.4061  0.1339
12422TIP3    H158757   0.363   5.059   5.645 -0.0167  1.0425  1.8886
12422TIP3    H258758   0.411   5.200   5.671  0.2784  1.5596 -1.1199
12423TIP3   OH258759   0.857   5.597  16.146 -0.4781 -0.4445 -0.0043
12423TIP3    H158760   0.855   5.649  16.065 -0.6981 -0.2097  0.1481
12423TIP3    H258761   0.795   5.642  16.204  1.5019  0.8884  1.2046
12424TIP3   OH258762   6.760   5.093  13.388  0.1928  0.1149 -0.4237
12424TIP3    H158763   6.824   5.029  13.419 -0.0971  0.2473  0.4660
12424TIP3    H258764   6.676   5.047  13.396  0.0248  0.4676 -0.1638
12425TIP3   OH258765   5.906   5.959   5.633 -0.3776  0.1661  0.0186
12425TIP3    H158766   5.824   6.002   5.612  1.0542  2.8970 -0.4528
12425TIP3    H258767   5.911   5.962   5.729 -1.3594 -1.2139  0.1448
12426TIP3   OH258768   1.862   2.788  16.532  0.1320  0.3448 -0.2848
12426TIP3    H158769   1.930   2.845  16.496  0.4631  0.9478  1.2359
12426TIP3    H258770   1.869   2.799  16.627 -1.3768 -0.4224 -0.0559
12427TIP3   OH258771   3.460   1.958   0.646  0.1710  0.2343 -0.0224
12427TIP3    H158772   3.479   1.943   0.553 -0.7257 -0.1931 -0.1469
12427TIP3    H258773   3.472   2.052   0.659 -0.7813  0.4822 -0.8362
12428TIP3   OH258774   0.914   3.857   1.738  0.5363 -0.0053 -0.1514
12428TIP3    H158775   0.825   3.844   1.768 -0.0581  1.6472 -1.0524
12428TIP3    H258776   0.940   3.942   1.774  0.9702  0.4931 -1.5540
12429TIP3   OH258777   5.839   4.550  13.576 -0.4553  0.3533 -0.1207
12429TIP3    H158778   5.918   4.595  13.547 -1.3379  1.8196 -0.3116
12429TIP3    H258779   5.798   4.610  13.638  0.0684 -1.6268  2.3028
12430TIP3   OH258780   5.798   4.212   6.212  0.2194 -0.2015 -0.8680
12430TIP3    H158781   5.776   4.167   6.130  1.1165  0.8704 -1.7290
12430TIP3    H258782   5.878   4.169   6.242  0.7788  0.4390 -1.4105
12431TIP3   OH258783   0.307   5.566   2.821  0.3981  0.3487 -0.0583
12431TIP3    H158784   0.389   5.615   2.816  0.7032 -0.0752  0.7978
12431TIP3    H258785   0.308   5.525   2.907 -1.5514  1.8465  0.7684
12432TIP3   OH258786   2.758   5.372   0.194 -0.1966 -0.6784 -0.5036
12432TIP3    H158787   2.811   5.357   0.116 -0.6033 -0.9916 -0.7286
12432TIP3    H258788   2.768   5.292   0.246 -2.4314 -1.8567 -1.7395
12433TIP3   OH258789   1.485   5.505  12.609 -0.3026 -0.4680  0.4766
12433TIP3    H158790   1.499   5.527  12.701  0.5920 -0.7103  0.4101
12433TIP3    H258791   1.509   5.584  12.561  1.7399 -1.0998  0.3153
12434TIP3   OH258792   1.615   0.057  10.544 -0.1027 -0.1427  0.4945
12434TIP3    H158793   1.551   0.125  10.523  0.4273  0.5268  1.0261
12434TIP3    H258794   1.573  -0.025  10.515  0.2417  0.6087 -2.5129
12435TIP3   OH258795   6.107   0.309  14.055 -0.3908 -0.1670 -0.0892
12435TIP3    H158796   6.035   0.371  14.064 -0.4538 -0.3146  0.4635
12435TIP3    H258797   6.186   0.364  14.052 -0.3602 -0.0777  1.3942
12436TIP3   OH258798   0.398   1.156  11.314 -0.3600  0.2367  0.4026
12436TIP3    H158799   0.425   1.132  11.225 -2.1939 -1.0754  0.1400
12436TIP3    H258800   0.433   1.086  11.369 -0.1516  0.4689  0.5670
12437TIP3   OH258801   5.219   6.279  16.542  0.0582 -0.0652  0.1150
12437TIP3    H158802   5.180   6.195  16.517  1.2254 -0.6710  0.2685
12437TIP3    H258803   5.279   6.300  16.470  0.9013 -0.1351  0.7830
12438TIP3   OH258804   6.697   1.868   1.174  0.4504  0.5519 -0.3884
12438TIP3    H158805   6.712   1.774   1.168 -0.0619  0.4288  0.1211
12438TIP3    H258806   6.756   1.897   1.244  0.6066  0.6148 -0.5441
12439TIP3   OH258807   3.368   5.957   1.709 -0.0627  0.0917  0.1898
12439TIP3    H158808   3.426   5.942   1.784  0.5874 -1.6357 -0.6016
12439TIP3    H258809   3.347   6.050   1.713  0.5986  0.2011  2.0463
12440TIP3   OH258810   3.376   4.329   5.330 -0.4184  0.3395  0.2215
12440TIP3    H158811   3.450   4.269   5.337 -1.0168 -0.3265  1.1503
12440TIP3    H258812   3.328   4.299   5.253 -0.4895 -0.1271  0.4434
12441TIP3   OH258813   0.033   1.531   4.369  0.4520 -0.0838 -0.2394
12441TIP3    H158814  -0.023   1.501   4.298  1.0736  0.2531 -0.8826
12441TIP3    H258815  -0.021   1.522   4.448 -0.4623  0.1327 -0.8256
12442TIP3   OH258816   5.304   6.619   3.741  0.4677 -0.0161  0.0902
12442TIP3    H158817   5.245   6.547   3.766  0.7966 -0.2386  0.2256
12442TIP3    H258818   5.281   6.690   3.800 -0.7127  0.4140 -0.8504
12443TIP3   OH258819   0.009   6.161   3.973  0.4724  0.1926  0.1930
12443TIP3    H158820   0.095   6.161   4.015  0.0960  0.0416  0.9689
12443TIP3    H258821  -0.054   6.157   4.045 -0.1719 -0.5247 -0.3864
12444TIP3   OH258822   2.508   6.871   1.556  0.2762  0.1879 -0.4653
12444TIP3    H158823   2.434   6.914   1.599 -0.2291 -1.2539  0.1627
12444TIP3    H258824   2.552   6.824   1.627  2.3228  1.6832 -0.6687
12445TIP3   OH258825   0.135   0.697  11.622 -0.2392 -0.3257  0.0285
12445TIP3    H158826   0.112   0.621  11.569 -1.5716 -0.4204  0.6987
12445TIP3    H258827   0.121   0.669  11.713  2.1361 -0.2107  0.4849
12446TIP3   OH258828   6.196   2.616   3.909  0.1484  0.1252  0.7191
12446TIP3    H158829   6.172   2.525   3.925 -1.6941  0.7292  1.6289
12446TIP3    H258830   6.242   2.644   3.988  0.3411  0.1047  0.6147
12447TIP3   OH258831   2.988   5.738  12.770  0.1879  1.4527 -0.1351
12447TIP3    H158832   3.017   5.789  12.695  0.2363 -0.4303 -1.4789
12447TIP3    H258833   3.067   5.724  12.822  0.4892  1.4243 -0.5958
12448TIP3   OH258834   5.574   2.269  15.427 -0.3546  0.0781 -0.2234
12448TIP3    H158835   5.561   2.364  15.425  1.6652  0.3982  0.0745
12448TIP3    H258836   5.524   2.237  15.352  0.1230  1.5490 -1.2272
12449TIP3   OH258837   5.000   3.819   5.666 -0.1668 -0.4855  0.0137
12449TIP3    H158838   5.084   3.815   5.620 -0.4949 -0.8017 -0.5755
12449TIP3    H258839   4.945   3.874   5.610 -1.2096 -2.5019 -1.0789
12450TIP3   OH258840   1.650   6.278   4.116  0.5024 -0.3135  0.1383
12450TIP3    H158841   1.709   6.337   4.070  1.6342 -0.5160  1.2771
12450TIP3    H258842   1.681   6.190   4.092  1.0969 -0.4181  1.2610
12451TIP3   OH258843   6.315   2.373   0.222  0.6013 -0.1950 -0.2937
12451TIP3    H158844   6.238   2.394   0.275  0.5191 -0.0986 -0.4512
12451TIP3    H258845   6.281   2.364   0.133  0.5932 -1.2065 -0.2042
12452TIP3   OH258846   5.723   3.313   5.790  0.1885  0.3224 -0.2155
12452TIP3    H158847   5.720   3.398   5.747 -1.3475  0.3995 -0.0337
12452TIP3    H258848   5.758   3.331   5.877  1.8749  0.4006 -0.8739
12453TIP3   OH258849   6.387   3.184  12.161  0.7742  0.1979  0.1227
12453TIP3    H158850   6.354   3.219  12.244 -0.2803  0.0740 -0.2336
12453TIP3    H258851   6.426   3.099  12.184 -0.6165 -0.4090  0.3174
12454TIP3   OH258852   2.259   0.888   2.974 -0.3459  0.4309  0.1988
12454TIP3    H158853   2.331   0.832   2.946 -0.5954 -0.0100  0.4185
12454TIP3    H258854   2.180   0.842   2.945 -0.5270  1.3883 -0.9094
12455TIP3   OH258855   3.486   0.740   4.999 -0.5130 -0.5067 -0.2859
12455TIP3    H158856   3.426   0.672   4.971  0.4117 -0.9670 -1.2097
12455TIP3    H258857   3.499   0.795   4.921  1.3200 -1.2308 -0.5469
12456TIP3   OH258858   6.766   6.737  10.354  0.3113 -0.6724 -0.6413
12456TIP3    H158859   6.821   6.663  10.381 -0.7705 -0.8359  1.2894
12456TIP3    H258860   6.689   6.731  10.410 -1.2152  0.1723 -2.5276
12457TIP3   OH258861   5.372   4.829   1.844  0.2844  0.7991 -0.1063
12457TIP3    H158862   5.284   4.834   1.881  0.7501 -1.2080  1.4872
12457TIP3    H258863   5.361   4.775   1.765  0.3300 -1.5453  1.3759
12458TIP3   OH258864   4.485   5.787   4.109  0.1401  0.0046 -0.2596
12458TIP3    H158865   4.487   5.866   4.056 -1.2297  0.9048  0.9413
12458TIP3    H258866   4.577   5.772   4.133  0.5556  0.5506 -1.4397
12459TIP3   OH258867   0.744   4.847   4.544  0.0438  0.4693 -0.8471
12459TIP3    H158868   0.812   4.914   4.541  1.2044 -0.5677  1.0194
12459TIP3    H258869   0.790   4.765   4.528 -0.1270 -0.6161  3.1961
12460TIP3   OH258870   0.364   4.561  15.217 -0.0223  0.0220  0.3237
12460TIP3    H158871   0.392   4.653  15.222 -1.5725  0.4985  1.0276
12460TIP3    H258872   0.268   4.565  15.226 -0.0041 -1.7572  1.9952
12461TIP3   OH258873   3.382   6.424   0.694 -0.0704  0.0031  0.1681
12461TIP3    H158874   3.337   6.509   0.702  0.0872  0.1133 -0.1167
12461TIP3    H258875   3.473   6.444   0.715 -0.2586 -0.3365  1.3646
12462TIP3   OH258876   4.506   2.207   1.681 -0.0337 -0.7027  0.5081
12462TIP3    H158877   4.461   2.276   1.633  0.4162 -1.1373 -0.5725
12462TIP3    H258878   4.436   2.159   1.726 -0.3251  0.5797  1.4760
12463TIP3   OH258879   0.471   3.717   3.483 -0.1309 -0.5504  0.3002
12463TIP3    H158880   0.408   3.692   3.416 -0.7912 -0.9727  1.0591
12463TIP3    H258881   0.498   3.806   3.460 -1.4345 -0.1461  0.2706
12464TIP3   OH258882   5.119   6.350  13.600  0.3606  0.4146 -0.1882
12464TIP3    H158883   5.192   6.308  13.556 -0.6042 -1.0191 -0.5127
12464TIP3    H258884   5.157   6.387  13.680  1.2443 -1.4118  0.3062
12465TIP3   OH258885   4.496   0.977   1.945 -0.2529 -0.0078 -0.5686
12465TIP3    H158886   4.500   0.960   1.851 -0.4027 -0.1852 -0.5426
12465TIP3    H258887   4.587   0.992   1.970  0.0798 -2.0735 -0.3542
12466TIP3   OH258888   2.877   5.368   1.491 -0.3644  0.4185 -0.6045
12466TIP3    H158889   2.877   5.279   1.528  2.2676  0.5432 -0.0851
12466TIP3    H258890   2.820   5.417   1.550  1.2578 -0.1096  1.5757
12467TIP3   OH258891   0.255   4.798   3.144 -0.1627  0.0371  0.8647
12467TIP3    H158892   0.305   4.812   3.224 -0.5790 -1.9091  1.5171
12467TIP3    H258893   0.236   4.704   3.143 -0.8579  0.1418 -1.1160
12468TIP3   OH258894   2.160   3.393   1.731  0.4527 -0.0253 -0.2711
12468TIP3    H158895   2.186   3.416   1.820  1.5648 -1.1921 -0.2728
12468TIP3    H258896   2.239   3.360   1.690 -0.5236 -1.6767 -0.9517
12469TIP3   OH258897   2.899   5.683   2.636 -0.6883 -0.4773 -0.2023
12469TIP3    H158898   2.930   5.769   2.607 -1.1608 -0.7364 -1.5530
12469TIP3    H258899   2.804   5.693   2.640 -0.6481 -0.4589  1.3178
12470TIP3   OH258900   6.536   1.333   4.900 -0.3588  0.0707 -0.2893
12470TIP3    H158901   6.464   1.293   4.948 -0.6447  0.1904 -0.6145
12470TIP3    H258902   6.552   1.273   4.827 -0.0011 -0.0527 -0.1152
12471TIP3   OH258903   3.521   5.370  16.972 -0.7387  0.0336 -0.0506
12471TIP3    H158904   3.502   5.451  16.925  0.8829  0.7547  0.4565
12471TIP3    H258905   3.596   5.333  16.926 -0.4988 -0.3715  0.6551
12472TIP3   OH258906   0.581   6.815  15.519 -0.2474  0.1141  0.2154
12472TIP3    H158907   0.507   6.770  15.560  0.4720 -2.0286 -0.6931
12472TIP3    H258908   0.601   6.763  15.441  2.6055  0.1977  0.7514
12473TIP3   OH258909   0.207   0.482   1.466  0.0893 -0.1138 -0.2206
12473TIP3    H158910   0.277   0.535   1.504 -0.0810 -0.7664  1.0801
12473TIP3    H258911   0.131   0.540   1.463  0.7136  0.6815 -1.8912
12474TIP3   OH258912   4.043   4.245   1.034  0.4759 -0.1765 -0.5980
12474TIP3    H158913   4.015   4.239   1.125 -0.2576  0.0921 -0.7984
12474TIP3    H258914   3.970   4.289   0.990  1.1790  0.4445 -1.1563
12475TIP3   OH258915   0.456   4.727  11.841  0.3375  0.2745 -0.1409
12475TIP3    H158916   0.538   4.741  11.793 -0.3646 -0.0005 -1.4641
12475TIP3    H258917   0.394   4.789  11.802 -0.6922 -1.0622 -0.7279
12476TIP3   OH258918   1.882   6.441   3.780  0.0468 -0.2055  0.3353
12476TIP3    H158919   1.870   6.533   3.805  1.1670  0.2535 -0.7590
12476TIP3    H258920   1.965   6.416   3.821  1.1488  0.1151 -1.6060
12477TIP3   OH258921   0.770   1.063   2.036  0.0288  0.3285 -0.3647
12477TIP3    H158922   0.741   1.070   2.127  2.7176  3.2247  0.4499
12477TIP3    H258923   0.750   1.149   1.998  3.2388  0.9091 -0.9883
12478TIP3   OH258924   5.781   3.167   3.054 -0.5297  0.0413  0.2783
12478TIP3    H158925   5.692   3.158   3.022 -0.2830 -1.0548 -0.1660
12478TIP3    H258926   5.834   3.116   2.993  0.7885  2.6592 -0.9297
12479TIP3   OH258927   2.825   2.223   4.733 -0.1618  0.0544 -0.0693
12479TIP3    H158928   2.828   2.318   4.728 -0.8283  0.0183 -2.2455
12479TIP3    H258929   2.750   2.204   4.790  0.9706  0.7889  1.7335
12480TIP3   OH258930   0.373   6.746   0.977  0.1531  0.7442  0.4883
12480TIP3    H158931   0.325   6.726   1.057 -1.2692  0.6272 -0.3614
12480TIP3    H258932   0.359   6.670   0.921  0.6455  1.0751 -0.0979
12481TIP3   OH258933   6.468   0.415  12.287  0.1672  0.2312 -0.1221
12481TIP3    H158934   6.490   0.351  12.220 -0.0142 -0.8830  0.8651
12481TIP3    H258935   6.390   0.459  12.253 -1.7918 -2.4214  0.6741
12482TIP3   OH258936   1.830   2.371   5.411 -0.1966 -0.2528  0.7113
12482TIP3    H158937   1.815   2.409   5.498  1.4640 -1.5490  1.6436
12482TIP3    H258938   1.845   2.278   5.429  0.6243 -0.4569 -0.9065
12483TIP3   OH258939   5.716   4.245   0.097  0.0041  0.2447 -0.3704
12483TIP3    H158940   5.694   4.178   0.162 -0.6736  0.9662  0.1608
12483TIP3    H258941   5.782   4.299   0.140 -0.2489  0.5643 -0.3854
12484TIP3   OH258942   1.270   3.619   2.226  0.5417  0.0719  0.4893
12484TIP3    H158943   1.323   3.639   2.149  0.0582  0.1265  0.1614
12484TIP3    H258944   1.328   3.568   2.283  0.8132 -0.2308 -0.0463
12485TIP3   OH258945   6.052   3.243  15.866 -0.1575 -0.6227  0.2447
12485TIP3    H158946   6.017   3.300  15.934 -0.7524 -0.2769 -0.3354
12485TIP3    H258947   6.135   3.211  15.901  0.4736  1.0565  0.3525
12486TIP3   OH258948   1.571   1.823  14.148  0.0879 -0.0747  0.1304
12486TIP3    H158949   1.504   1.777  14.199 -0.1138 -1.4131 -1.2855
12486TIP3    H258950   1.565   1.913  14.178 -1.6191 -0.3666  0.8116
12487TIP3   OH258951   0.580   1.386  12.998  0.2880  0.2832  0.5129
12487TIP3    H158952   0.569   1.355  12.908 -0.8072  0.8977  0.4167
12487TIP3    H258953   0.524   1.328  13.050  0.8610 -0.0240  0.8064
12488TIP3   OH258954   1.311   0.618  11.438 -0.2693  0.8327  0.1189
12488TIP3    H158955   1.246   0.589  11.502 -0.0559  1.4769  0.6404
12488TIP3    H258956   1.264   0.618  11.354 -0.4842 -0.2515  0.2225
12489TIP3   OH258957   3.535   5.540   1.331 -0.7076  0.5242  0.2309
12489TIP3    H158958   3.548   5.577   1.244  0.5286  1.0873  0.6362
12489TIP3    H258959   3.623   5.527   1.365 -1.1424 -1.2943  0.7463
12490TIP3   OH258960   2.207   1.226   6.002  0.2342  0.0370  0.2753
12490TIP3    H158961   2.245   1.314   6.002 -1.3219  0.7287 -0.1149
12490TIP3    H258962   2.217   1.196   6.093  1.0085  0.4884  0.3484
12491TIP3   OH258963   5.406   3.023   2.634  0.0945  0.4113 -0.2833
12491TIP3    H158964   5.495   2.993   2.620  0.2605  0.5675  0.3861
12491TIP3    H258965   5.398   3.102   2.581  1.0507  1.6064  1.2766
12492TIP3   OH258966   0.888   4.178  14.598 -0.1152  0.0356  0.0788
12492TIP3    H158967   0.839   4.140  14.524  0.4046 -0.0032 -0.2498
12492TIP3    H258968   0.928   4.257  14.562 -1.0814  0.8432  0.7259
12493TIP3   OH258969   3.551   2.486   2.068  0.1316  0.6416  0.4104
12493TIP3    H158970   3.626   2.476   2.127 -0.4084  0.5248  1.0902
12493TIP3    H258971   3.482   2.432   2.106 -0.4930  1.2149  0.1334
12494TIP3   OH258972   4.339   5.794  15.271 -0.5119 -0.2729  0.2267
12494TIP3    H158973   4.271   5.848  15.230  0.3585  0.1764 -0.6652
12494TIP3    H258974   4.350   5.721  15.210 -0.0514 -0.2342  0.2648
12495TIP3   OH258975   2.426   6.878  12.782 -0.2685 -0.6390  0.3276
12495TIP3    H158976   2.446   6.972  12.781  0.8830 -0.8131  2.2909
12495TIP3    H258977   2.502   6.838  12.739  0.3345 -0.7936  1.4870
12496TIP3   OH258978   6.162   6.003  13.871  0.2291  0.6645 -0.0433
12496TIP3    H158979   6.081   6.051  13.853  0.9919  0.9481 -3.4820
12496TIP3    H258980   6.145   5.914  13.839  0.8309  0.3556  0.4741
12497TIP3   OH258981   4.178   1.093   0.307 -0.6699  1.1542 -0.3658
12497TIP3    H158982   4.213   1.169   0.353 -0.4950  1.5792 -1.1667
12497TIP3    H258983   4.218   1.018   0.349 -0.9937  1.4922  0.5647
12498TIP3   OH258984   4.185   0.725   3.427  0.1052  0.4014  0.1231
12498TIP3    H158985   4.132   0.803   3.412 -1.9708 -0.9566  0.1451
12498TIP3    H258986   4.217   0.701   3.340 -0.3972  0.4951 -0.0904
12499TIP3   OH258987   6.745   4.512  14.080 -0.2536 -0.5302  0.2060
12499TIP3    H158988   6.783   4.453  14.015  1.0001 -0.6991  1.0513
12499TIP3    H258989   6.693   4.573  14.029  2.0325  0.4082 -1.1821
12500TIP3   OH258990   1.208   2.816  13.713 -0.1141 -0.2087 -0.0395
12500TIP3    H158991   1.250   2.752  13.771 -0.2141  0.0665  0.3434
12500TIP3    H258992   1.167   2.878  13.773  0.1000  0.2920 -0.4116
12501TIP3   OH258993   1.579   4.027  11.114 -0.1752  0.3568 -0.1117
12501TIP3    H158994   1.665   4.016  11.073 -0.1899  0.5372 -0.1914
12501TIP3    H258995   1.518   3.982  11.055 -0.3107  1.3096 -0.7175
12502TIP3   OH258996   2.088   1.703  13.686 -0.1108  0.2810 -0.0955
12502TIP3    H158997   2.079   1.781  13.630 -0.0948  0.2252 -0.1766
12502TIP3    H258998   2.048   1.633  13.635  0.4529  0.1044 -0.2997
12503TIP3   OH258999   1.174   6.244  13.586 -0.5070  0.2017 -0.3296
12503TIP3    H159000   1.202   6.162  13.627 -0.8875 -0.5294 -1.5038
12503TIP3    H259001   1.220   6.312  13.636 -0.8530 -0.6557  1.2182
12504TIP3   OH259002   4.044   5.359  15.636  0.5051  0.4016 -0.1437
12504TIP3    H159003   4.120   5.380  15.581  1.1181 -1.4776 -0.1002
12504TIP3    H259004   4.041   5.429  15.701  0.7509  1.7981 -1.5630
12505TIP3   OH259005   3.782   5.597   3.897  0.5212  0.0297 -0.0901
12505TIP3    H159006   3.828   5.542   3.834 -0.4265 -0.5325 -0.3154
12505TIP3    H259007   3.714   5.642   3.846  0.4282  0.3824  0.3331
12506TIP3   OH259008   1.581   5.976   5.612 -0.6234  0.7550 -0.4451
12506TIP3    H159009   1.538   5.891   5.619  2.0089 -0.6068  0.4576
12506TIP3    H259010   1.582   5.995   5.518 -0.3451 -0.7391 -0.7692
12507TIP3   OH259011   4.386   2.814  11.482 -0.0461  0.1517 -0.1751
12507TIP3    H159012   4.384   2.802  11.387 -1.5143  0.7373 -0.2298
12507TIP3    H259013   4.400   2.908  11.495 -4.0675  0.8767  0.0818
12508TIP3   OH259014   2.312   3.027  11.495  0.0397  0.0667  0.8588
12508TIP3    H159015   2.326   3.020  11.589  0.3534  0.7249  0.8735
12508TIP3    H259016   2.337   2.942  11.460  0.2925 -0.0571  1.3324
12509TIP3   OH259017   2.079   5.462  14.065 -0.1977 -0.1272  0.1358
12509TIP3    H159018   2.027   5.456  13.984 -1.6224 -1.9113  1.0961
12509TIP3    H259019   2.027   5.520  14.121 -0.0288 -0.1716  0.3355
12510TIP3   OH259020   4.429   3.514   2.454 -0.6917 -0.0666 -0.5492
12510TIP3    H159021   4.489   3.452   2.412 -0.4022 -0.5095  0.4676
12510TIP3    H259022   4.342   3.478   2.437 -0.7013  0.6375 -2.1284
12511TIP3   OH259023   2.913   0.931   6.118 -0.0551  0.4139 -0.0261
12511TIP3    H159024   2.987   0.953   6.175 -0.7291 -0.1987  1.1121
12511TIP3    H259025   2.874   0.853   6.157  0.5505 -1.1854 -2.3709
12512TIP3   OH259026   2.611   0.767  12.250 -0.5962  0.0631  0.4865
12512TIP3    H159027   2.528   0.771  12.299 -1.7146 -0.4880 -1.2548
12512TIP3    H259028   2.648   0.682  12.273 -0.8225  0.0435  0.8017
12513TIP3   OH259029   2.512   1.846   2.695 -0.5335 -0.1210 -0.0955
12513TIP3    H159030   2.476   1.888   2.773  0.1217  0.4000 -0.0575
12513TIP3    H259031   2.513   1.915   2.629  1.1599  0.1470  0.1577
12514TIP3   OH259032   0.725   1.083  14.572 -0.0604 -0.0449 -0.4191
12514TIP3    H159033   0.734   1.029  14.494 -0.8149 -0.6427 -0.1052
12514TIP3    H259034   0.647   1.136  14.556 -0.1643 -0.1004 -0.1173
12515TIP3   OH259035   6.682   4.870   2.229 -0.3672 -0.3428 -0.0144
12515TIP3    H159036   6.594   4.835   2.220 -0.7253 -0.1351  2.1285
12515TIP3    H259037   6.738   4.793   2.243 -0.5551 -0.3639  0.6972
12516TIP3   OH259038   4.926   2.800   4.361  0.3295 -0.0502 -0.1878
12516TIP3    H159039   4.901   2.711   4.385  1.5803 -0.2999  0.3045
12516TIP3    H259040   4.973   2.832   4.438 -1.2079  1.5159  0.1491
12517TIP3   OH259041   5.745   6.129  11.858  0.1739 -0.1846  0.1432
12517TIP3    H159042   5.736   6.221  11.836  0.1556  0.4332  2.4610
12517TIP3    H259043   5.814   6.096  11.801  0.5622  1.4104 -0.3311
12518TIP3   OH259044   5.549   0.239   5.949 -0.0584  0.3460 -0.1945
12518TIP3    H159045   5.544   0.146   5.972 -0.2627  0.3490 -0.2286
12518TIP3    H259046   5.544   0.284   6.033  0.5836  0.3110 -0.1285
12519TIP3   OH259047   6.213   0.495  10.446  0.0967  0.1729  0.4383
12519TIP3    H159048   6.245   0.584  10.454  0.5263 -0.0883  1.7136
12519TIP3    H259049   6.118   0.504  10.442  0.1835  0.7779 -1.0739
12520TIP3   OH259050   3.395   6.032   5.058 -0.0788 -0.1476 -0.2448
12520TIP3    H159051   3.401   6.064   4.968  1.1475 -1.6752 -0.7631
12520TIP3    H259052   3.408   6.109   5.113  1.4968  0.4465 -1.4032
12521TIP3   OH259053   5.394   2.956   1.977  0.0143 -0.1254 -0.2962
12521TIP3    H159054   5.412   2.974   2.069  1.6213  0.4711 -0.7006
12521TIP3    H259055   5.412   2.862   1.967 -1.2100 -0.4382  0.1997
12522TIP3   OH259056   3.813   6.137   4.416 -0.3591  0.3528 -1.1130
12522TIP3    H159057   3.751   6.127   4.344 -1.0683  2.7021 -0.9148
12522TIP3    H259058   3.765   6.107   4.493 -0.1196 -0.7609 -1.3802
12523TIP3   OH259059   5.655   5.023  11.488 -0.6155 -0.2238 -0.2914
12523TIP3    H159060   5.717   5.026  11.415 -2.3259 -0.0885 -1.8067
12523TIP3    H259061   5.635   5.115  11.505  0.1193 -0.2300  0.6986
12524TIP3   OH259062   4.122   0.179   3.664  0.2157 -0.4107  0.5311
12524TIP3    H159063   4.117   0.152   3.756 -0.9589  0.1632  0.6489
12524TIP3    H259064   4.211   0.212   3.653  0.9489 -2.0968  0.9924
12525TIP3   OH259065   1.142   0.771   3.752  0.1441  0.0306 -0.0245
12525TIP3    H159066   1.213   0.835   3.745 -0.2005  0.3683 -0.4729
12525TIP3    H259067   1.077   0.800   3.688 -0.8135  0.2592  1.0133
12526TIP3   OH259068   0.866   2.390   1.182 -0.3280  0.3751 -0.3093
12526TIP3    H159069   0.951   2.375   1.139 -0.2468 -1.2113  0.3558
12526TIP3    H259070   0.836   2.474   1.145  0.4339 -0.1702 -2.3232
12527TIP3   OH259071   0.396   3.998   6.300 -0.2809 -0.2600 -0.2946
12527TIP3    H159072   0.465   3.932   6.308  0.0555  0.1089 -0.1199
12527TIP3    H259073   0.441   4.076   6.270 -0.6804 -0.1091 -0.5082
12528TIP3   OH259074   4.651   2.410  10.699 -0.6431  0.3293  0.4706
12528TIP3    H159075   4.687   2.327  10.731 -0.3029  1.1579  2.3642
12528TIP3    H259076   4.724   2.452  10.654 -1.0165 -0.6772 -1.1674
12529TIP3   OH259077   3.771   0.090   3.558 -0.6218  0.2118 -0.3837
12529TIP3    H159078   3.816   0.167   3.522  1.5857 -1.9451 -2.5584
12529TIP3    H259079   3.718   0.058   3.485 -1.5482 -0.3537  0.5182
12530TIP3   OH259080   5.337   2.325  14.526 -0.3048  0.6425  0.2099
12530TIP3    H159081   5.378   2.290  14.447 -0.0872  1.2863  0.0319
12530TIP3    H259082   5.275   2.392  14.494 -0.8852  0.2660  0.5281
12531TIP3   OH259083   0.924   5.119  12.865  0.0078  0.3628 -0.8558
12531TIP3    H159084   0.981   5.049  12.898 -2.0073  0.0688  2.4911
12531TIP3    H259085   0.950   5.196  12.917  1.7738  2.1437 -4.0475
12532TIP3   OH259086   6.292   6.332   0.989 -0.0678  0.3325 -0.3953
12532TIP3    H159087   6.334   6.303   0.908 -0.7097 -0.0990 -0.5841
12532TIP3    H259088   6.232   6.261   1.011 -0.9081  1.0628 -0.2875
12533TIP3   OH259089   5.960   1.287  15.019 -0.4182  0.1655 -0.5924
12533TIP3    H159090   6.032   1.257  15.074 -1.0809  0.0637  0.2386
12533TIP3    H259091   5.963   1.383  15.024 -1.3184  0.1525  0.7791
12534TIP3   OH259092   1.327   5.799  13.046 -0.1227 -0.5026  0.0408
12534TIP3    H159093   1.259   5.735  13.067 -1.2441  0.4116 -0.6626
12534TIP3    H259094   1.279   5.879  13.023  1.1530 -0.0620 -1.2785
12535TIP3   OH259095   3.778   0.961  14.622 -0.3779  0.0826  0.4422
12535TIP3    H159096   3.695   1.007  14.635 -0.6925 -0.6293  1.0193
12535TIP3    H259097   3.755   0.888  14.564  0.0335  0.4027 -0.1303
12536TIP3   OH259098   6.621   4.895   3.696 -0.0210 -0.1372 -0.3242
12536TIP3    H159099   6.662   4.863   3.776 -1.0192  0.5153  0.4689
12536TIP3    H259100   6.557   4.828   3.672  0.8771 -0.7481 -1.0847
12537TIP3   OH259101   5.850   6.674   1.063 -0.3584  0.0491 -0.2650
12537TIP3    H159102   5.797   6.646   0.988 -1.2171 -0.8913  0.6585
12537TIP3    H259103   5.859   6.769   1.051 -2.2603  0.2463 -0.4765
12538TIP3   OH259104   3.553   3.406   4.423 -0.2304 -0.0257  0.1038
12538TIP3    H159105   3.562   3.397   4.328 -0.4704 -1.8374  0.2108
12538TIP3    H259106   3.459   3.417   4.437 -0.2716 -0.4651  0.1741
12539TIP3   OH259107   4.900   3.734  13.073 -0.0340  0.5588  0.0365
12539TIP3    H159108   4.895   3.756  13.166  1.0950 -0.0101  0.2538
12539TIP3    H259109   4.993   3.743  13.052  0.0706 -1.3773 -0.5067
12540TIP3   OH259110   3.289   3.639   2.326  0.4323  0.4108 -0.2720
12540TIP3    H159111   3.291   3.614   2.233 -0.7799  0.2408 -0.2751
12540TIP3    H259112   3.222   3.707   2.330  0.3407  0.2787  0.5086
12541TIP3   OH259113   5.712   0.513  13.933  0.5872  0.0564  0.0594
12541TIP3    H159114   5.640   0.462  13.898  0.0526  1.3633 -0.8430
12541TIP3    H259115   5.743   0.463  14.009  0.3834 -1.7869 -1.0074
12542TIP3   OH259116   1.342   4.947   3.372  0.5475  0.3779  0.2854
12542TIP3    H159117   1.264   4.988   3.337 -0.2791 -2.0846 -0.9867
12542TIP3    H259118   1.411   4.965   3.308  0.7826  1.5715  0.8407
12543TIP3   OH259119   4.187   3.567   1.298 -0.3918  0.4590 -0.3053
12543TIP3    H159120   4.265   3.622   1.307 -0.9182  1.0401  0.8748
12543TIP3    H259121   4.124   3.622   1.252  0.1121 -0.2819 -1.9863
12544TIP3   OH259122   5.115   6.084  11.260  0.0331  0.3616  0.0305
12544TIP3    H159123   5.073   6.098  11.175 -0.6013  0.9543  0.4433
12544TIP3    H259124   5.043   6.066  11.320  0.1487  3.1105  1.1161
12545TIP3   OH259125   5.098   4.985   4.647 -0.2833 -0.1898 -0.0063
12545TIP3    H159126   5.071   5.058   4.590 -1.1952 -1.8654 -1.8189
12545TIP3    H259127   5.132   4.919   4.587  0.4386 -1.3156  1.5950
12546TIP3   OH259128   6.169   6.385   5.376 -0.4941 -0.3668  0.1484
12546TIP3    H159129   6.085   6.342   5.355 -0.7876  0.0589  0.4379
12546TIP3    H259130   6.234   6.316   5.362 -0.6327 -0.1098 -2.2836
12547TIP3   OH259131   2.117   4.410   0.755 -0.2636 -0.1060  0.1716
12547TIP3    H159132   2.049   4.407   0.688  1.2922 -2.0931 -1.4827
12547TIP3    H259133   2.176   4.480   0.727 -0.1346 -0.2885 -0.0222
12548TIP3   OH259134   3.917   2.910   2.256  0.3385  0.4987 -0.5860
12548TIP3    H159135   3.897   2.847   2.187  0.0322 -0.0844  0.0285
12548TIP3    H259136   3.856   2.889   2.327  1.0544  0.6861  0.1069
12549TIP3   OH259137   2.617   6.011  13.531 -0.0523 -0.3094  0.2495
12549TIP3    H159138   2.535   5.989  13.576  0.2066 -2.6738 -0.3404
12549TIP3    H259139   2.685   5.996  13.596 -0.0132  1.9122  0.8245
12550TIP3   OH259140   6.367   1.060  10.567  0.2719  0.3418  0.1152
12550TIP3    H159141   6.416   1.035  10.489 -0.9992  0.2780 -0.6891
12550TIP3    H259142   6.343   1.151  10.552 -2.2939 -0.3889 -0.9032
12551TIP3   OH259143   5.469   6.689   1.260  0.3311  0.2128 -0.6820
12551TIP3    H159144   5.498   6.757   1.320 -1.7824 -0.1415  0.8540
12551TIP3    H259145   5.514   6.610   1.291 -1.2009 -0.0908  0.9004
12552TIP3   OH259146   2.483   6.815   2.675 -0.0050 -0.2388  0.0393
12552TIP3    H159147   2.488   6.807   2.770 -1.7184  2.4242  0.4569
12552TIP3    H259148   2.567   6.854   2.650  0.5095 -1.0875  0.4280
12553TIP3   OH259149   4.128   1.150  16.093  0.3349 -0.3784 -0.3233
12553TIP3    H159150   4.210   1.184  16.058  0.1664  1.5232  1.0173
12553TIP3    H259151   4.089   1.101  16.020  2.2932 -0.7266 -1.1939
12554TIP3   OH259152   4.515   1.284  15.168 -0.1395 -0.4992  0.0102
12554TIP3    H159153   4.446   1.260  15.229  0.5407  0.3413  1.1485
12554TIP3    H259154   4.567   1.204  15.158 -0.1244 -0.5906  0.7385
12555TIP3   OH259155   5.740   4.216  13.515  0.0064 -0.3380 -0.4895
12555TIP3    H159156   5.710   4.248  13.430  1.3197 -1.2524 -1.3210
12555TIP3    H259157   5.733   4.292  13.573 -1.7569  0.0695 -1.1614
12556TIP3   OH259158   1.998   2.183  11.760  0.2326  0.5266  0.6574
12556TIP3    H159159   2.046   2.208  11.839  1.0468 -0.0159  0.3445
12556TIP3    H259160   1.929   2.124  11.792  0.6376  0.2034  0.9425
12557TIP3   OH259161   0.329   4.964  11.700  0.9995 -0.5039 -0.6859
12557TIP3    H159162   0.409   4.978  11.649  0.4125  3.1915 -0.8464
12557TIP3    H259163   0.349   5.001  11.786 -0.3041 -0.2294 -0.4928
12558TIP3   OH259164   4.686   2.507   1.578  0.2581  0.0815  0.3518
12558TIP3    H159165   4.716   2.433   1.524 -0.1958  1.0811 -1.3609
12558TIP3    H259166   4.606   2.537   1.534  0.7394  1.9285  0.6669
12559TIP3   OH259167   1.417   5.657   0.965 -0.4453  0.5359  0.3001
12559TIP3    H159168   1.461   5.724   1.017  0.5871  0.3076 -0.2459
12559TIP3    H259169   1.484   5.626   0.905 -0.4819 -1.9761  1.4571
12560TIP3   OH259170   2.911   5.266   1.092  0.2731  0.3227  0.6571
12560TIP3    H159171   2.980   5.331   1.077  0.0652  0.5998  0.8879
12560TIP3    H259172   2.947   5.207   1.159  0.9344 -0.5176 -0.4034
12561TIP3   OH259173   0.429   0.148   0.898 -0.0784  0.4151  0.6605
12561TIP3    H159174   0.366   0.215   0.926 -0.5135  0.1369  0.3702
12561TIP3    H259175   0.407   0.071   0.951 -0.9603 -0.1414 -0.4695
12562TIP3   OH259176   5.749   2.069   4.562  0.0636  0.1418  0.2622
12562TIP3    H159177   5.664   2.113   4.566 -0.7747 -1.0654 -2.3076
12562TIP3    H259178   5.810   2.137   4.530 -0.6431  0.1899 -1.0384
12563TIP3   OH259179   4.168   2.925  15.837 -0.2206  0.0284 -0.3629
12563TIP3    H159180   4.187   3.007  15.792  1.1524  1.1059  2.0111
12563TIP3    H259181   4.214   2.859  15.785  1.2234  1.1939 -0.6348
12564TIP3   OH259182   1.300   3.965  12.504 -0.1707 -0.7972  0.4094
12564TIP3    H159183   1.352   3.994  12.578  1.1446 -1.3896 -0.2475
12564TIP3    H259184   1.235   3.905  12.541 -0.7624  0.3586  1.3081
12565TIP3   OH259185   3.703   0.990   2.179 -0.4417  0.1696  0.1696
12565TIP3    H159186   3.675   1.081   2.167  0.1596  0.3389 -0.0257
12565TIP3    H259187   3.675   0.945   2.099 -3.1427 -0.4660  1.3843
12566TIP3   OH259188   4.870   0.889   3.277  0.1884  0.1031  0.0641
12566TIP3    H159189   4.843   0.810   3.231 -2.6670  1.4687 -0.8234
12566TIP3    H259190   4.952   0.914   3.234 -0.3433 -0.8481 -1.6143
12567TIP3   OH259191   3.496   5.409   3.051 -0.2303  0.2214 -0.2661
12567TIP3    H159192   3.420   5.460   3.024  0.3348  0.2259 -1.9364
12567TIP3    H259193   3.479   5.321   3.019 -0.0856 -0.0799  0.4578
12568TIP3   OH259194   0.560   3.013   5.360  0.2039 -0.2599  0.4190
12568TIP3    H159195   0.569   2.935   5.304  0.3721  0.1863 -0.1815
12568TIP3    H259196   0.554   3.086   5.299  1.1329  0.3185  0.9877
12569TIP3   OH259197   4.950   4.843  16.306 -0.1659 -0.1624 -0.0342
12569TIP3    H159198   4.863   4.815  16.278 -0.6734  1.1217  0.2071
12569TIP3    H259199   5.005   4.829  16.229 -1.1942  1.7046 -1.1645
12570TIP3   OH259200   3.090   4.228   5.723  0.2653  0.8695  0.1640
12570TIP3    H159201   3.143   4.271   5.790 -1.5855  1.6920  1.1440
12570TIP3    H259202   3.086   4.291   5.651 -0.7462  1.5163  0.7719
12571TIP3   OH259203   0.670   4.569   4.383  0.0848  0.4187  0.2432
12571TIP3    H159204   0.593   4.547   4.330  0.1057 -2.3900  1.2066
12571TIP3    H259205   0.744   4.562   4.324 -0.1397  0.1070 -0.0017
12572TIP3   OH259206   1.142   3.623  10.641 -0.2118  0.4774 -0.4078
12572TIP3    H159207   1.084   3.564  10.690  0.7211 -0.2265 -0.1310
12572TIP3    H259208   1.093   3.706  10.638 -1.2585 -0.1066 -0.2342
12573TIP3   OH259209   2.053   0.014  15.156 -0.3451  0.3857 -0.0543
12573TIP3    H159210   1.976   0.071  15.152  0.5180  1.5696 -0.4227
12573TIP3    H259211   2.019  -0.070  15.188 -1.5633  1.2712  1.1085
12574TIP3   OH259212   0.275   2.017   2.291  0.7640  0.0609 -0.3863
12574TIP3    H159213   0.338   1.957   2.250 -0.2369 -1.3847  0.1189
12574TIP3    H259214   0.190   1.974   2.279  0.2331  0.4908  1.5841
12575TIP3   OH259215   1.987   1.742  13.942 -0.3252 -0.2188 -0.2439
12575TIP3    H159216   1.918   1.808  13.932 -0.3033 -0.0227  0.8374
12575TIP3    H259217   2.026   1.736  13.855  0.1212  1.7005 -0.2210
12576TIP3   OH259218   1.443   1.175   4.766  0.0930  0.2544 -0.6738
12576TIP3    H159219   1.505   1.110   4.799  1.5050  2.3344  1.1065
12576TIP3    H259220   1.362   1.158   4.815 -0.3229 -1.5190 -1.8959
12577TIP3   OH259221   4.025   6.557  12.682  0.1798 -0.0663  0.1225
12577TIP3    H159222   3.965   6.541  12.609 -1.9141 -1.7193  2.0891
12577TIP3    H259223   4.018   6.651  12.698  0.2286  0.2267 -1.3807
12578TIP3   OH259224   0.889   6.250  16.214 -0.3843  0.5783  0.1109
12578TIP3    H159225   0.963   6.299  16.250  1.3142 -0.9035 -1.1917
12578TIP3    H259226   0.852   6.204  16.289  1.3055 -0.2419  0.4861
12579TIP3   OH259227   3.762   5.669  11.683  0.1672  0.5004 -0.3094
12579TIP3    H159228   3.779   5.598  11.621  2.7105 -0.3673  1.2272
12579TIP3    H259229   3.810   5.644  11.761 -1.8672  2.1902  1.6065
12580TIP3   OH259230   2.964   3.769   5.234 -0.2570 -0.7603  0.0048
12580TIP3    H159231   2.873   3.787   5.209 -0.9050 -1.6762  1.5767
12580TIP3    H259232   2.960   3.753   5.328  1.8078  0.8268  0.4329
12581TIP3   OH259233   6.166   6.472   2.277  0.5052 -0.3738 -0.4416
12581TIP3    H159234   6.258   6.474   2.251  0.5065  0.4847 -0.4045
12581TIP3    H259235   6.166   6.443   2.368  0.5710 -2.4643 -1.0497
12582TIP3   OH259236   4.705   1.165  11.613 -0.7497 -0.0431 -0.4115
12582TIP3    H159237   4.669   1.246  11.577 -0.8833  0.1137  0.0637
12582TIP3    H259238   4.759   1.129  11.543 -0.0713  0.8538 -0.3729
12583TIP3   OH259239   6.016   5.260   0.183  0.5618 -0.4172  0.1742
12583TIP3    H159240   5.978   5.178   0.151  1.7671 -1.4667  1.3434
12583TIP3    H259241   6.098   5.269   0.136 -0.0316  0.6934 -0.7062
12584TIP3   OH259242   5.538   2.406   1.116  0.7045  0.4557 -0.0229
12584TIP3    H159243   5.496   2.407   1.202 -1.4122  0.4131 -0.9895
12584TIP3    H259244   5.537   2.497   1.088 -0.5490  0.2047 -0.8569
12585TIP3   OH259245   3.504   2.007   1.461  0.7846  0.1594  0.5532
12585TIP3    H159246   3.423   2.022   1.413  0.5823 -0.0913  0.8099
12585TIP3    H259247   3.481   1.940   1.525  1.4412 -0.6091 -0.0035
12586TIP3   OH259248   3.881   4.392  11.482  0.2394 -0.3820  0.0225
12586TIP3    H159249   3.885   4.386  11.578  0.8120 -1.8252 -0.0556
12586TIP3    H259250   3.973   4.399  11.456  0.2114 -1.6365 -0.4770
12587TIP3   OH259251   0.882   0.638  11.130  0.2367 -0.5181 -0.2869
12587TIP3    H159252   0.916   0.578  11.195  2.0659 -1.1146 -1.7242
12587TIP3    H259253   0.920   0.723  11.153  1.6482 -0.9117 -1.0818
12588TIP3   OH259254   6.497   3.525  13.116  0.3281 -0.1383  0.1912
12588TIP3    H159255   6.413   3.513  13.072 -0.4374  0.0988  1.5390
12588TIP3    H259256   6.491   3.470  13.194  1.5118 -0.2719  0.2012
12589TIP3   OH259257   1.787   6.168  14.028  0.1658  0.6002  0.1751
12589TIP3    H159258   1.736   6.176  14.108  0.0707  1.9911 -0.0011
12589TIP3    H259259   1.781   6.254  13.986 -0.5484 -0.3515 -1.8016
12590TIP3   OH259260   1.701   2.260   0.129 -0.1008 -0.0975  0.0302
12590TIP3    H159261   1.637   2.248   0.199 -1.1149 -0.5894 -0.9488
12590TIP3    H259262   1.764   2.190   0.141  0.9565  1.0736  1.6995
12591TIP3   OH259263   0.356   6.052   0.856 -0.2908 -0.0147  0.0437
12591TIP3    H159264   0.369   6.036   0.763 -2.3189  0.3825 -0.3675
12591TIP3    H259265   0.261   6.042   0.869 -0.5439  2.8980  1.4247
12592TIP3   OH259266   4.892   4.251  16.974 -0.1623  0.0665 -0.0025
12592TIP3    H159267   4.816   4.240  17.032  1.5811  1.6491  2.8075
12592TIP3    H259268   4.962   4.203  17.017  1.1717  1.1161 -0.9204
12593TIP3   OH259269   3.518   0.869  11.398 -0.2441 -0.9984 -0.4588
12593TIP3    H159270   3.444   0.809  11.403 -0.5057 -0.6360  0.1951
12593TIP3    H259271   3.559   0.863  11.484  1.1023 -1.9545 -1.1468
12594TIP3   OH259272   1.018   5.342  12.408  0.0134  0.3518  0.1971
12594TIP3    H159273   0.953   5.385  12.463 -0.0132 -0.0140  0.4534
12594TIP3    H259274   1.097   5.338  12.462  0.3965  1.2122 -0.2752
12595TIP3   OH259275   1.151   4.281  13.146  0.0244  0.1648  0.5835
12595TIP3    H159276   1.103   4.330  13.213 -0.7406  0.8505 -0.4386
12595TIP3    H259277   1.193   4.348  13.093 -1.1235 -0.2228 -0.9078
12596TIP3   OH259278   5.523   5.712  14.066  0.0217 -0.2808 -0.1570
12596TIP3    H159279   5.452   5.711  14.002 -0.1419  1.0716 -0.0292
12596TIP3    H259280   5.513   5.796  14.112  1.3769 -0.3046  0.2221
12597TIP3   OH259281   0.651   2.415  13.713 -0.1369  0.3737 -0.6475
12597TIP3    H159282   0.696   2.382  13.636  0.1698 -0.4515 -0.1182
12597TIP3    H259283   0.681   2.506  13.721  1.2870 -0.0915 -0.4240
12598TIP3   OH259284   5.023   1.349   6.154 -0.0496 -0.0098  0.0520
12598TIP3    H159285   4.986   1.435   6.133  0.3091  0.5750  1.7070
12598TIP3    H259286   4.965   1.312   6.220  2.6181  1.3809  3.5387
12599TIP3   OH259287   1.900   6.588  16.635  0.2638  0.5120  0.4502
12599TIP3    H159288   1.976   6.551  16.591 -0.8587 -2.4603  0.7876
12599TIP3    H259289   1.894   6.539  16.717 -2.1583  0.4359  0.2882
12600TIP3   OH259290   5.258   1.281   5.480  0.2493  0.2610 -0.3339
12600TIP3    H159291   5.341   1.310   5.518  0.5121  1.0134 -1.4354
12600TIP3    H259292   5.265   1.303   5.387 -1.1123  0.1629 -0.4801
12601TIP3   OH259293   1.792   1.853  15.267  0.1462  0.1148  0.8121
12601TIP3    H159294   1.812   1.782  15.328 -0.3825 -1.1416 -0.4208
12601TIP3    H259295   1.697   1.858  15.266  0.1141 -0.3051 -0.3260
12602TIP3   OH259296   5.177   3.166  15.361 -0.2685 -0.2524  0.2097
12602TIP3    H159297   5.143   3.077  15.365  2.4859 -1.4256  0.2191
12602TIP3    H259298   5.184   3.193  15.453 -1.6238  0.2342  0.1892
12603TIP3   OH259299   4.327   4.389   5.344 -1.0526 -0.4107  0.6654
12603TIP3    H159300   4.404   4.353   5.300 -0.2200  0.3397  1.4566
12603TIP3    H259301   4.292   4.315   5.393  0.4130 -0.3086  1.9559
12604TIP3   OH259302   3.784   3.963   5.275  0.6465  0.2762  0.0778
12604TIP3    H159303   3.778   3.995   5.185  1.4965  1.8054  0.5249
12604TIP3    H259304   3.878   3.946   5.288  0.5372  0.1289  0.6907
12605TIP3   OH259305   6.600   3.279   4.029 -0.2448  0.5803  0.0592
12605TIP3    H159306   6.685   3.299   3.990 -0.1569 -0.4646 -0.3166
12605TIP3    H259307   6.544   3.259   3.954 -0.4467 -0.1144  0.3938
12606TIP3   OH259308   3.380   3.174  15.592  0.5227 -0.3235  0.2296
12606TIP3    H159309   3.323   3.119  15.646 -2.1863  0.5612 -1.5077
12606TIP3    H259310   3.381   3.259  15.637  0.8847 -0.4829  0.5221
12607TIP3   OH259311   0.569   3.824  16.619 -0.3610 -0.1779  0.0173
12607TIP3    H159312   0.615   3.899  16.657 -0.4878  0.1262 -0.4258
12607TIP3    H259313   0.635   3.781  16.564 -0.3815 -0.2025  0.0123
12608TIP3   OH259314   1.679   3.742   4.529 -0.2400 -0.5841  0.4313
12608TIP3    H159315   1.715   3.817   4.576 -1.2733  0.9127 -1.0461
12608TIP3    H259316   1.755   3.685   4.513  0.2231 -0.9811  3.4190
12609TIP3   OH259317   1.106   2.814  16.001 -0.2548  0.3533 -0.1337
12609TIP3    H159318   1.155   2.741  15.964  1.5311  0.9696  0.9043
12609TIP3    H259319   1.034   2.772  16.049 -0.0301 -0.6447 -0.6380
12610TIP3   OH259320   3.218   5.442  14.499 -0.2374 -0.1493 -0.1804
12610TIP3    H159321   3.123   5.440  14.485 -0.8315 -0.7986  3.1215
12610TIP3    H259322   3.239   5.355  14.534  1.3189  0.4525  0.4789
12611TIP3   OH259323   5.105   4.076   1.914 -0.1755 -0.3411  0.4125
12611TIP3    H159324   5.088   4.017   1.840  2.2004  1.2336 -1.5824
12611TIP3    H259325   5.188   4.045   1.950 -0.1677  0.2967  0.9541
12612TIP3   OH259326   6.741   5.159  12.373 -0.0000 -0.1588  0.0770
12612TIP3    H159327   6.662   5.127  12.416 -1.0867  1.1876 -0.8333
12612TIP3    H259328   6.777   5.223  12.434 -0.8304  0.7993 -0.3984
12613TIP3   OH259329   3.777   0.545   5.019 -0.1567 -0.0162  0.0720
12613TIP3    H159330   3.835   0.481   4.977  1.4436  0.9391  0.7732
12613TIP3    H259331   3.716   0.571   4.949 -0.1155 -1.4430 -0.5272
12614TIP3   OH259332   1.024   4.078   5.764  0.0498 -0.1558 -0.2103
12614TIP3    H159333   1.043   3.984   5.771  0.8157  0.1068  1.9808
12614TIP3    H259334   0.980   4.099   5.847  1.2138  1.6977 -0.0117
12615TIP3   OH259335   6.689   5.086  11.282  0.5618  0.3249  0.6709
12615TIP3    H159336   6.753   5.025  11.245 -1.1881 -1.3051  0.1635
12615TIP3    H259337   6.705   5.083  11.376  0.7952 -0.5891  0.6134
12616TIP3   OH259338   4.369   3.538  13.326 -0.4954  0.1491  0.0834
12616TIP3    H159339   4.286   3.528  13.279 -2.5446  0.8092  3.2556
12616TIP3    H259340   4.400   3.448  13.338 -1.6801 -0.2543  0.3103
12617TIP3   OH259341   6.179   2.247  15.845  0.2015 -0.1753  0.3412
12617TIP3    H159342   6.121   2.315  15.878  0.0863  0.2477 -0.7335
12617TIP3    H259343   6.251   2.245  15.909 -0.7340 -0.3914  1.4308
12618TIP3   OH259344   1.329   1.319  10.902  0.0075 -0.7790  0.0129
12618TIP3    H159345   1.376   1.401  10.888 -0.3386 -0.4334  0.8375
12618TIP3    H259346   1.385   1.268  10.960 -0.1199 -0.8175  0.1037
12619TIP3   OH259347   1.983   0.940  16.963  0.3040  0.4918 -0.2677
12619TIP3    H159348   2.009   0.975  17.048 -0.6184  0.1869  0.1494
12619TIP3    H259349   2.065   0.934  16.914  1.1037 -0.8920  1.1631
12620TIP3   OH259350   0.408   0.674   5.336  0.1296 -0.0265  0.2288
12620TIP3    H159351   0.344   0.718   5.279 -1.1526 -0.7869  1.0257
12620TIP3    H259352   0.491   0.717   5.317 -0.0437 -0.8341 -2.8940
12621TIP3   OH259353   6.028   5.727   0.961  0.3594  0.7079 -0.7370
12621TIP3    H159354   6.034   5.746   1.055  0.8064  0.7316 -0.7655
12621TIP3    H259355   5.958   5.784   0.929  0.5173  1.0376 -0.5006
12622TIP3   OH259356   4.595   4.250  16.656 -0.4160  0.1557 -0.8466
12622TIP3    H159357   4.689   4.261  16.643 -0.2865  1.4227  0.9316
12622TIP3    H259358   4.555   4.320  16.604 -0.1852  1.5795  0.8207
12623TIP3   OH259359   3.976   6.331   2.614 -0.1801 -0.0811 -0.3477
12623TIP3    H159360   3.881   6.335   2.597 -0.2136  0.4947 -0.0430
12623TIP3    H259361   3.985   6.358   2.705  0.2434 -0.5715 -0.2406
12624TIP3   OH259362   4.121   0.960  10.707  0.2971 -0.4512 -0.5206
12624TIP3    H159363   4.134   1.052  10.684  1.2133 -0.0603  1.3567
12624TIP3    H259364   4.165   0.912  10.637 -0.2251  0.5085 -1.5557
12625TIP3   OH259365   1.754   5.760  15.854 -0.3584  0.1339 -1.0283
12625TIP3    H159366   1.779   5.696  15.787 -1.0682 -0.6954 -0.5150
12625TIP3    H259367   1.659   5.758  15.854 -0.3653 -0.0459  0.1606
12626TIP3   OH259368   2.848   3.729   5.740  0.7062  0.1017  0.1076
12626TIP3    H159369   2.761   3.753   5.771  0.6344 -0.4362  0.3397
12626TIP3    H259370   2.902   3.806   5.757  0.4053  0.2273  0.5022
12627TIP3   OH259371   3.756   5.268   2.498  0.9493 -0.6783  0.2012
12627TIP3    H159372   3.738   5.355   2.462 -0.3539 -1.9739 -2.5542
12627TIP3    H259373   3.836   5.239   2.455  1.3475 -0.9075  1.0624
12628TIP3   OH259374   6.871   2.312   3.956 -0.3161 -0.6921  0.7269
12628TIP3    H159375   6.936   2.277   3.895  0.3067  1.5393  0.0131
12628TIP3    H259376   6.890   2.406   3.960 -1.6067 -0.4576  2.8598
12629TIP3   OH259377   3.017   1.097   0.133 -0.0975 -0.0138 -0.3537
12629TIP3    H159378   3.040   1.009   0.104 -1.0519 -0.2264 -0.5141
12629TIP3    H259379   3.049   1.102   0.223  0.7006 -0.2229 -0.6251
12630TIP3   OH259380   5.656   3.463  14.385 -0.2232 -0.1168 -0.1952
12630TIP3    H159381   5.575   3.444  14.338 -0.2579  0.5074 -0.3927
12630TIP3    H259382   5.627   3.500  14.469 -0.1576 -1.0213  0.2466
12631TIP3   OH259383   3.965   2.228  16.729  0.1334  0.2114 -0.4363
12631TIP3    H159384   4.051   2.263  16.754  1.1149 -3.2486  1.5782
12631TIP3    H259385   3.905   2.303  16.739  2.5097  2.1669  0.2266
12632TIP3   OH259386   2.724   1.312  12.475  0.0054 -0.5434  0.0955
12632TIP3    H159387   2.674   1.393  12.482 -0.0269 -0.4432 -1.1088
12632TIP3    H259388   2.666   1.245  12.510  0.0642 -0.0537  1.1931
12633TIP3   OH259389   5.717   3.739   1.911 -0.6370  0.1238 -0.3670
12633TIP3    H159390   5.784   3.731   1.979 -0.4191  0.2575 -0.5631
12633TIP3    H259391   5.758   3.794   1.844 -1.0144  0.3685 -0.3995
12634TIP3   OH259392   6.006   5.614   2.232 -0.4146 -0.0241  0.1728
12634TIP3    H159393   6.084   5.635   2.180 -0.4354 -0.9254 -0.2253
12634TIP3    H259394   5.940   5.589   2.168 -0.4711 -1.0435  0.6123
12635TIP3   OH259395   4.099   1.907  16.002 -0.1407 -0.4027  0.2391
12635TIP3    H159396   4.021   1.952  16.035 -1.6764 -2.5100 -0.2562
12635TIP3    H259397   4.136   1.966  15.937 -2.8228 -0.2915 -1.3618
12636TIP3   OH259398   0.050   5.084  16.968 -0.9646  0.2291  0.4900
12636TIP3    H159399  -0.008   5.037  16.910 -1.0592  0.1714  0.6319
12636TIP3    H259400   0.103   5.016  17.010  0.6508  0.3808 -1.1587
12637TIP3   OH259401   0.558   3.833   5.625 -0.0758  0.0377  0.0030
12637TIP3    H159402   0.643   3.816   5.584  0.0522 -2.9066  1.2443
12637TIP3    H259403   0.579   3.864   5.713 -0.3176  0.7608 -0.1884
12638TIP3   OH259404   5.552   3.181  16.107  0.5034  0.0456  0.5237
12638TIP3    H159405   5.587   3.204  16.193  0.9107 -1.3697  0.7735
12638TIP3    H259406   5.473   3.131  16.126  0.1383  0.4241  0.0416
12639TIP3   OH259407   0.804   3.681  12.824 -0.5861 -0.0169  0.1043
12639TIP3    H159408   0.894   3.680  12.856 -0.6944  0.8873  0.4630
12639TIP3    H259409   0.795   3.600  12.773  0.5053  0.0273 -0.1642
12640TIP3   OH259410   2.365   6.647   0.700 -0.2355 -0.1798 -0.2727
12640TIP3    H159411   2.293   6.662   0.761 -0.5853 -2.4364 -0.0406
12640TIP3    H259412   2.440   6.626   0.756  0.8911  2.8437 -0.4745
12641TIP3   OH259413   5.519   5.346   4.368 -0.4979 -0.1522  0.4471
12641TIP3    H159414   5.570   5.322   4.291 -0.7650  0.7693 -0.0222
12641TIP3    H259415   5.549   5.285   4.436  1.1953  0.3297  0.1782
12642TIP3   OH259416   4.282   6.468   5.368  0.1936  0.3396 -0.1561
12642TIP3    H159417   4.253   6.411   5.297  1.8576 -0.8313  0.0574
12642TIP3    H259418   4.204   6.480   5.423 -0.9199  0.6386 -1.7341
12643TIP3   OH259419   0.258   0.335  16.868  0.8413 -0.2745 -0.0271
12643TIP3    H159420   0.241   0.311  16.960 -1.6725 -0.6755 -0.5182
12643TIP3    H259421   0.255   0.251  16.821 -0.1412  0.1512 -0.7502
12644TIP3   OH259422   6.731   3.028   3.746  0.0864  0.1101  0.2705
12644TIP3    H159423   6.714   2.992   3.659  0.7417 -1.5970  0.8208
12644TIP3    H259424   6.660   3.092   3.759 -1.0948 -0.9355 -0.7746
12645TIP3   OH259425   3.044   6.586   4.067  0.1751  0.0652 -0.6001
12645TIP3    H159426   2.955   6.612   4.092  0.3402 -1.5013  2.0063
12645TIP3    H259427   3.093   6.668   4.064 -0.6722  0.6747  1.1644
12646TIP3   OH259428   4.102   3.562  16.883 -0.4332  0.5411 -0.2072
12646TIP3    H159429   4.161   3.486  16.878 -0.8017  0.2744 -0.5913
12646TIP3    H259430   4.138   3.625  16.821 -0.4054  0.4837 -0.2487
12647TIP3   OH259431   5.001   6.818   2.430 -0.5170  0.0240  0.3790
12647TIP3    H159432   4.988   6.810   2.336 -0.6497 -1.7851  0.5209
12647TIP3    H259433   5.082   6.869   2.439  0.1995 -0.8786 -0.7245
12648TIP3   OH259434   0.741   0.329  11.636  0.5801 -0.1483 -0.0802
12648TIP3    H159435   0.665   0.287  11.595  0.7873 -0.1328 -0.4909
12648TIP3    H259436   0.771   0.265  11.701 -1.3179  0.8963  1.9575
12649TIP3   OH259437   4.942   1.075   4.720 -0.1090 -0.2674  0.3638
12649TIP3    H159438   4.853   1.096   4.691  0.6660  0.5867 -1.5991
12649TIP3    H259439   4.956   0.986   4.689  0.0300 -0.0629 -0.1749
12650TIP3   OH259440   5.315   2.472  16.409 -0.3877  0.4218 -0.0307
12650TIP3    H159441   5.366   2.406  16.361 -0.5297  1.1426 -1.2063
12650TIP3    H259442   5.348   2.556  16.377 -0.4659  0.9317  1.1858
12651TIP3   OH259443   0.517   4.677  12.270 -0.0230 -0.0823  0.1816
12651TIP3    H159444   0.592   4.721  12.309 -0.9636  0.7602  1.0802
12651TIP3    H259445   0.459   4.658  12.343 -1.1426  0.1838 -0.6160
12652TIP3   OH259446   2.723   4.843   2.748 -0.2418  0.2089  0.1485
12652TIP3    H159447   2.662   4.909   2.715 -1.6655 -1.1152  0.0463
12652TIP3    H259448   2.718   4.772   2.685  2.1837  0.4215 -0.3970
12653TIP3   OH259449   1.970   0.381   3.427 -0.6175 -0.0060 -0.3986
12653TIP3    H159450   1.929   0.378   3.340  0.7504 -0.4155 -1.0637
12653TIP3    H259451   2.015   0.296   3.435  3.8407  1.9366 -1.6850
12654TIP3   OH259452   1.232   0.046  11.461  0.3033  0.1320 -0.0520
12654TIP3    H159453   1.300   0.081  11.403  1.2368 -0.3807  0.7038
12654TIP3    H259454   1.222  -0.045  11.434 -0.1616  0.2392 -0.2358
12655TIP3   OH259455   4.462   6.023   0.310  0.0276  0.2506 -0.1172
12655TIP3    H159456   4.414   5.969   0.373 -0.6666 -0.3910 -1.1550
12655TIP3    H259457   4.554   6.005   0.328 -0.1777 -2.3235 -1.2407
12656TIP3   OH259458   4.191   1.966  16.596  1.0286  0.0765 -0.3567
12656TIP3    H159459   4.232   2.046  16.563  2.7161 -0.5849  0.0591
12656TIP3    H259460   4.160   1.990  16.683 -1.7941  1.2879 -1.5513
12657TIP3   OH259461   6.121   6.679  13.027 -0.4565  0.0975  0.1078
12657TIP3    H159462   6.062   6.661  12.954 -1.5139  1.8672  0.4636
12657TIP3    H259463   6.164   6.595  13.045 -1.8658 -0.9157 -1.0436
12658TIP3   OH259464   3.336   4.923  13.859  0.7343  0.0915  0.3651
12658TIP3    H159465   3.300   4.834  13.869 -2.2649  0.7296 -2.6052
12658TIP3    H259466   3.318   4.966  13.942 -0.5399 -1.2453  0.8330
12659TIP3   OH259467   1.451   1.150  15.197  0.0390 -0.3651  0.1034
12659TIP3    H159468   1.419   1.238  15.175  0.4727 -0.3264 -0.3890
12659TIP3    H259469   1.536   1.143  15.154  0.3315 -0.7726  0.7250
12660TIP3   OH259470   5.967   6.611  12.831  0.6153  0.6754 -0.4247
12660TIP3    H159471   5.899   6.678  12.831  1.1134  1.1901 -0.9308
12660TIP3    H259472   5.920   6.530  12.851  0.0188  1.1766  0.2522
12661TIP3   OH259473   6.843   6.420   3.171  0.2726  0.4781 -0.1504
12661TIP3    H159474   6.881   6.410   3.259 -0.5670  0.3494  0.2078
12661TIP3    H259475   6.761   6.371   3.175  1.0636 -1.0439 -1.5638
12662TIP3   OH259476   1.490   6.194   1.556 -1.1711  0.4360 -0.6396
12662TIP3    H159477   1.503   6.250   1.479 -0.0202  0.8896 -0.1284
12662TIP3    H259478   1.395   6.181   1.559 -1.1624 -0.7417 -2.9421
12663TIP3   OH259479   6.864   3.043   0.958 -0.0748 -0.7718  0.0925
12663TIP3    H159480   6.840   2.955   0.929 -0.1751 -0.1591 -1.8474
12663TIP3    H259481   6.941   3.065   0.905 -0.6286  0.6581 -0.1732
12664TIP3   OH259482   3.667   1.139  11.645  0.3060 -0.5348 -0.1787
12664TIP3    H159483   3.609   1.062  11.649  0.9906 -1.0469  0.0175
12664TIP3    H259484   3.643   1.190  11.723  0.7965 -1.2440  0.4497
12665TIP3   OH259485   1.904   6.258  10.575 -0.2806 -0.1997 -0.9547
12665TIP3    H159486   1.998   6.250  10.564 -0.3794 -0.5924 -1.5289
12665TIP3    H259487   1.889   6.244  10.669  0.3309  0.8991 -0.6821
12666TIP3   OH259488   0.171   5.841   2.824 -0.4509 -0.1733 -0.0177
12666TIP3    H159489   0.079   5.862   2.840 -0.2669  0.5571  0.1363
12666TIP3    H259490   0.176   5.746   2.831 -0.4937 -0.0467  3.8338
12667TIP3   OH259491   5.267   1.910  13.215  0.3334  0.3391  0.3583
12667TIP3    H159492   5.349   1.862  13.221 -0.1159 -0.3950  0.7889
12667TIP3    H259493   5.199   1.843  13.215 -0.2668  0.9281 -0.1623
12668TIP3   OH259494   1.054   1.071   2.057 -0.6093 -0.2001 -0.5885
12668TIP3    H159495   0.959   1.063   2.062 -0.4888 -0.9760  1.0239
12668TIP3    H259496   1.085   0.982   2.042 -0.0985 -0.0816 -0.2661
12669TIP3   OH259497   4.830   1.126   0.115  0.3981 -0.5713 -0.4143
12669TIP3    H159498   4.764   1.059   0.094 -0.9509  0.6949 -0.3263
12669TIP3    H259499   4.876   1.141   0.033  1.3394 -2.2267 -0.2354
12670TIP3   OH259500   5.852   5.219  14.267 -0.1550  0.1706 -0.1727
12670TIP3    H159501   5.821   5.261  14.347  2.3610 -0.5086  1.2562
12670TIP3    H259502   5.805   5.135  14.264  0.8455 -0.4799  1.4623
12671TIP3   OH259503   5.973   0.432  12.968  0.0083 -0.4914  0.2106
12671TIP3    H159504   5.882   0.433  12.939 -0.0129  0.7915  0.2507
12671TIP3    H259505   6.005   0.521  12.950  0.8967 -0.5741  1.2691
12672TIP3   OH259506   5.202   5.989   4.316  0.3809 -0.5014 -0.2594
12672TIP3    H159507   5.196   5.921   4.249  0.9873  1.3387 -2.3078
12672TIP3    H259508   5.279   5.964   4.367  0.6446 -1.3076 -1.0125
12673TIP3   OH259509   4.747   2.961  11.420 -0.3980 -0.6191 -0.0361
12673TIP3    H159510   4.763   3.009  11.339 -0.0026  1.7222  1.3403
12673TIP3    H259511   4.662   2.993  11.450 -0.9362 -2.0907  0.1002
12674TIP3   OH259512   4.733   1.015  13.625 -0.4668 -0.3997  0.3218
12674TIP3    H159513   4.724   0.925  13.593  1.7666  0.5884 -3.7989
12674TIP3    H259514   4.661   1.063  13.584 -1.9734 -0.2126  2.9117
12675TIP3   OH259515   4.050   1.800  13.102  0.0997 -0.2035  0.2765
12675TIP3    H159516   4.054   1.862  13.030 -1.2593 -0.1322  0.2331
12675TIP3    H259517   4.084   1.848  13.178 -0.9691  0.6268  0.2535
12676TIP3   OH259518   2.871   2.340  11.891 -0.4765 -0.3244 -0.0638
12676TIP3    H159519   2.814   2.309  11.962 -0.0646 -0.4598  0.2170
12676TIP3    H259520   2.825   2.415  11.853 -0.8232 -0.4126  0.1780
12677TIP3   OH259521   0.078   6.289   0.915 -0.7041 -0.1515 -0.6437
12677TIP3    H159522   0.090   6.217   0.854  0.4432 -1.0880  0.6232
12677TIP3    H259523  -0.001   6.265   0.965 -1.3224  0.3456 -1.3564
12678TIP3   OH259524   5.273   2.467   3.828  0.4108 -0.1382 -0.4610
12678TIP3    H159525   5.343   2.401   3.828 -0.3622 -1.0187  1.2129
12678TIP3    H259526   5.317   2.548   3.801  1.2793 -1.3671 -3.1693
12679TIP3   OH259527   4.439   0.864   3.377  0.0002 -0.6097 -0.1324
12679TIP3    H159528   4.375   0.803   3.341 -0.5936  0.4021 -0.8446
12679TIP3    H259529   4.397   0.902   3.453 -0.4646  0.4014 -0.8692
12680TIP3   OH259530   1.332   5.485  16.191  0.6764  0.1650 -0.3186
12680TIP3    H159531   1.337   5.563  16.246  2.6980  1.0386 -1.6416
12680TIP3    H259532   1.334   5.519  16.101 -1.1909 -1.2958 -0.9760
12681TIP3   OH259533   4.239   0.004   3.122  0.4734  0.0623 -0.3334
12681TIP3    H159534   4.250   0.071   3.055  0.4948  1.4994  1.0572
12681TIP3    H259535   4.266   0.046   3.203 -0.8779 -1.1778  0.8106
12682TIP3   OH259536   6.629   1.211  14.756 -0.1428 -0.4471 -0.4087
12682TIP3    H159537   6.567   1.141  14.736  0.0810 -0.6887 -0.2489
12682TIP3    H259538   6.631   1.264  14.676  0.8648 -1.4994 -1.1134
12683TIP3   OH259539   0.721   2.631   4.845 -0.3831  0.6398  0.0004
12683TIP3    H159540   0.699   2.643   4.938  0.0884  0.4867  0.1351
12683TIP3    H259541   0.815   2.647   4.841 -0.5819  1.7102 -0.6387
12684TIP3   OH259542   6.102   5.633   0.209  0.0577  0.4215  0.2785
12684TIP3    H159543   6.061   5.559   0.164  1.6532 -1.2755  1.4744
12684TIP3    H259544   6.033   5.668   0.264 -0.9845  0.4311 -0.9812
12685TIP3   OH259545   3.114   5.011   5.470 -0.5841  0.4223  0.4223
12685TIP3    H159546   3.093   5.049   5.385  1.4173 -0.3757 -0.4870
12685TIP3    H259547   3.099   5.081   5.533 -2.7100  0.8322 -0.4806
12686TIP3   OH259548   5.748   3.249  15.919  0.0445 -0.8591  0.1343
12686TIP3    H159549   5.674   3.232  15.977  1.6516  0.1508  2.6336
12686TIP3    H259550   5.812   3.181  15.941  1.2947  0.4594  0.7559
12687TIP3   OH259551   5.722   2.218  14.569 -0.1430 -0.2290  0.5090
12687TIP3    H159552   5.642   2.242  14.523  0.3015  0.1567 -0.0900
12687TIP3    H259553   5.703   2.234  14.661 -0.5937  0.3175  0.3259
12688TIP3   OH259554   0.718   5.326   6.094 -0.1628 -0.2759  0.1085
12688TIP3    H159555   0.743   5.381   6.168  2.3116  0.8069 -1.4490
12688TIP3    H259556   0.764   5.243   6.109 -1.0141 -0.6843  0.5879
12689TIP3   OH259557   4.433   5.564  14.834 -0.0304  0.4649  0.1970
12689TIP3    H159558   4.517   5.523  14.813 -0.5134 -0.1234 -0.6752
12689TIP3    H259559   4.370   5.491  14.832 -0.1111  0.1757  4.3018
12690TIP3   OH259560   1.174   5.890   5.165  0.0141  0.1099  0.2867
12690TIP3    H159561   1.103   5.851   5.217  1.0423 -0.9368  0.9591
12690TIP3    H259562   1.252   5.880   5.220  0.7461  0.9796 -0.5568
12691TIP3   OH259563   2.789   0.445  10.678  0.3944  0.0455 -0.3598
12691TIP3    H159564   2.808   0.535  10.650  0.9082  0.1849  0.4249
12691TIP3    H259565   2.722   0.454  10.745  1.4506 -0.0325  0.7415
12692TIP3   OH259566   1.863   3.502  15.305 -0.2257  0.0639  0.1814
12692TIP3    H159567   1.770   3.479  15.299 -0.9659  2.8128 -0.7202
12692TIP3    H259568   1.902   3.462  15.227 -1.2671  1.1088 -0.9241
12693TIP3   OH259569   6.874   3.062  14.414  0.1471  0.5212  0.3456
12693TIP3    H159570   6.929   3.129  14.373  0.2235  0.8414  0.9512
12693TIP3    H259571   6.851   3.100  14.499 -1.7928  0.7887 -0.2552
12694TIP3   OH259572   5.268   2.966  14.474 -0.4046  0.5982  0.3077
12694TIP3    H159573   5.347   2.960  14.527  0.1976  0.8411 -0.5380
12694TIP3    H259574   5.269   3.055  14.440 -1.3352  0.7790  0.7199
12695TIP3   OH259575   2.125   2.584  13.218  0.0004  0.5200 -0.4230
12695TIP3    H159576   2.132   2.552  13.128 -0.7429 -1.2858  0.1025
12695TIP3    H259577   2.058   2.652  13.215  1.1293  1.6378 -1.4825
12696TIP3   OH259578   0.866   0.339   0.721  0.2677 -0.0028 -0.6418
12696TIP3    H159579   0.785   0.360   0.767  0.3546 -0.3297 -0.3375
12696TIP3    H259580   0.928   0.405   0.749  0.3310 -0.2239 -0.2586
12697TIP3   OH259581   2.897   2.224  14.947  0.1282  0.2111  0.2381
12697TIP3    H159582   2.894   2.158  15.017 -1.9305 -0.4507 -0.4040
12697TIP3    H259583   2.825   2.284  14.968  0.9067  1.2915 -0.1178
12698TIP3   OH259584   5.287   3.438   0.470 -0.1825 -0.1824 -0.1981
12698TIP3    H159585   5.268   3.442   0.376  0.0911  1.3453 -0.2222
12698TIP3    H259586   5.309   3.529   0.493 -0.2282 -0.5450  1.3388
12699TIP3   OH259587   4.320   5.000  10.583 -0.1599  0.0706  0.0055
12699TIP3    H159588   4.291   5.069  10.522 -0.0625  0.8925  0.8679
12699TIP3    H259589   4.415   5.001  10.578 -0.1564  0.0330  0.0581
12700TIP3   OH259590   6.594   5.318  15.394  0.3202  0.1326  0.2530
12700TIP3    H159591   6.662   5.357  15.339  0.4819 -0.1964  0.2157
12700TIP3    H259592   6.543   5.264  15.333  0.1747  0.1856  0.3273
12701TIP3   OH259593   4.786   0.192  13.241 -0.1874  0.2083 -0.2400
12701TIP3    H159594   4.721   0.202  13.309  1.3438  1.1044  1.1670
12701TIP3    H259595   4.870   0.194  13.287  0.9135  0.9501 -2.1290
12702TIP3   OH259596   5.277   0.303  10.373  0.0162 -0.1557 -0.3523
12702TIP3    H159597   5.228   0.246  10.313 -0.8721  1.1310 -0.8962
12702TIP3    H259598   5.356   0.252  10.395 -0.1286 -1.0790 -1.8087
12703TIP3   OH259599   1.032   2.215  14.205 -0.2858  0.1509  0.2160
12703TIP3    H159600   1.068   2.140  14.157 -0.7870  0.6793 -1.0209
12703TIP3    H259601   1.069   2.206  14.293  0.6030 -0.8888 -0.2282
12704TIP3   OH259602   4.211   1.944   4.357 -0.2087 -0.1060  0.0471
12704TIP3    H159603   4.180   2.022   4.403 -0.3623 -0.9707  1.4321
12704TIP3    H259604   4.197   1.872   4.418 -1.0160 -1.3926 -1.5923
12705TIP3   OH259605   4.517   3.556   2.712 -0.0740 -0.1487 -0.0518
12705TIP3    H159606   4.494   3.543   2.620 -2.6592 -1.2250  0.6482
12705TIP3    H259607   4.556   3.643   2.715  0.8940 -0.4361 -2.2697
12706TIP3   OH259608   3.814   6.415  13.144  0.1662  0.2492 -0.0361
12706TIP3    H159609   3.856   6.426  13.059  1.1582 -0.6776  0.3049
12706TIP3    H259610   3.766   6.333  13.137  0.5072  0.0069  0.3776
12707TIP3   OH259611   1.991   5.342  13.407  0.5409 -0.0605  0.1612
12707TIP3    H159612   2.027   5.257  13.385 -0.5427 -0.5184  0.1115
12707TIP3    H259613   2.053   5.405  13.369 -0.0811 -0.8074 -2.2825
12708TIP3   OH259614   1.994   4.355  14.885 -0.1550  0.2571  0.1896
12708TIP3    H159615   1.917   4.408  14.904 -1.5370 -1.4182 -0.5393
12708TIP3    H259616   2.011   4.368  14.792 -2.0292 -2.3111 -0.6543
12709TIP3   OH259617   2.863   2.492   4.311  0.1380 -0.1049 -0.5593
12709TIP3    H159618   2.877   2.407   4.353 -2.6933 -1.9336 -2.8658
12709TIP3    H259619   2.780   2.523   4.349 -0.0307  0.4642 -1.3810
12710TIP3   OH259620   2.295   1.751  16.677 -0.0872  0.1439  0.1593
12710TIP3    H159621   2.329   1.836  16.705 -1.5139  1.1011 -0.8339
12710TIP3    H259622   2.237   1.723  16.748 -0.0266  0.2594  0.2530
12711TIP3   OH259623   4.248   0.225   4.708  0.4718  0.5789 -0.1431
12711TIP3    H159624   4.227   0.277   4.631  0.7938 -0.8275 -1.2155
12711TIP3    H259625   4.163   0.195   4.740  0.3635  0.8687 -0.1554
12712TIP3   OH259626   5.207   0.799  16.935  0.0428 -0.0455 -0.7003
12712TIP3    H159627   5.158   0.728  16.976 -1.2456  0.3613 -1.4774
12712TIP3    H259628   5.215   0.866  17.003  0.3203 -0.4884 -0.2943
12713TIP3   OH259629   4.210   4.256   5.542  0.0377  0.2838  0.0322
12713TIP3    H159630   4.203   4.183   5.603  2.6283 -0.2130 -0.1551
12713TIP3    H259631   4.158   4.326   5.583 -1.9634 -1.3780  0.5354
12714TIP3   OH259632   5.671   2.326  14.885 -0.4709 -0.2821 -0.5997
12714TIP3    H159633   5.687   2.352  14.976 -1.4211  0.4180 -0.6208
12714TIP3    H259634   5.579   2.298  14.884 -0.8625  0.9343 -1.6051
12715TIP3   OH259635   6.308   0.910   4.765  0.0623 -0.1017 -0.2553
12715TIP3    H159636   6.252   0.987   4.777 -1.1173 -0.9920  0.2150
12715TIP3    H259637   6.247   0.836   4.770  1.0601 -1.0318 -1.4477
12716TIP3   OH259638   3.575   1.408  14.086  0.2057  0.0539  0.2415
12716TIP3    H159639   3.633   1.466  14.037 -1.6955  0.5401 -1.5661
12716TIP3    H259640   3.560   1.333  14.028  0.0082 -0.6737  1.2002
12717TIP3   OH259641   5.648   2.025  11.360 -0.1951 -0.5171  0.5531
12717TIP3    H159642   5.638   2.109  11.315  0.8121 -0.0938  1.0608
12717TIP3    H259643   5.581   1.969  11.323  1.6193 -0.7500 -2.7507
12718TIP3   OH259644   6.511   3.094   3.001  0.5630 -0.1008 -0.2189
12718TIP3    H159645   6.486   3.134   2.918  0.7069 -0.0565 -0.2423
12718TIP3    H259646   6.601   3.065   2.986  0.9977  0.9354  0.2929
12719TIP3   OH259647   6.548   1.936   3.465  0.4536 -0.0223  0.2169
12719TIP3    H159648   6.531   2.029   3.479  1.1432  0.3297 -1.1233
12719TIP3    H259649   6.572   1.930   3.373 -0.5251 -1.6842  0.0372
12720TIP3   OH259650   3.227   6.847   4.952 -0.2218 -0.0207  0.4957
12720TIP3    H159651   3.136   6.860   4.980 -1.0870 -2.2883 -0.9244
12720TIP3    H259652   3.240   6.912   4.883 -1.2017 -0.3806 -0.0624
12721TIP3   OH259653   5.754   1.012  12.345  0.8158 -0.2963 -0.3907
12721TIP3    H159654   5.734   1.083  12.406  0.6993  0.1209 -0.9055
12721TIP3    H259655   5.680   0.952  12.352  0.1011  0.4757 -1.1750
12722TIP3   OH259656   5.258   6.009  15.876  0.3883  0.0628  0.4030
12722TIP3    H159657   5.248   5.920  15.907 -0.1667  0.1814  0.5682
12722TIP3    H259658   5.175   6.052  15.896  0.3879  0.4190 -0.3269
12723TIP3   OH259659   3.059   3.385  15.984 -0.7944  0.6521  0.3701
12723TIP3    H159660   2.970   3.411  15.960 -1.2850 -1.7241 -0.7339
12723TIP3    H259661   3.054   3.362  16.077 -0.9769  1.8405  0.6616
12724TIP3   OH259662   6.584   2.323   3.795 -0.8474  0.3001 -0.0477
12724TIP3    H159663   6.573   2.414   3.767  1.2505  0.5821 -0.1153
12724TIP3    H259664   6.603   2.329   3.889  0.2401  0.0428 -0.2337
12725TIP3   OH259665   3.659   0.897   5.918  0.1600  0.3413 -0.2838
12725TIP3    H159666   3.614   0.830   5.970  0.6988 -1.4306 -1.9832
12725TIP3    H259667   3.589   0.937   5.866 -0.0754  0.7023  0.2962
12726TIP3   OH259668   6.799   1.492  13.972 -0.0389 -0.1858  0.0715
12726TIP3    H159669   6.812   1.405  13.935  0.3820 -0.0227 -0.1679
12726TIP3    H259670   6.749   1.539  13.906  1.0678  0.2358 -0.4964
12727TIP3   OH259671   5.927   1.332   3.741  0.2706  0.4817  0.2774
12727TIP3    H159672   5.950   1.277   3.666 -0.3491 -0.2204  0.5873
12727TIP3    H259673   6.008   1.378   3.763  0.8637 -0.4488  0.1211
12728TIP3   OH259674   2.013   3.200  12.968  0.2963  0.4183 -0.1642
12728TIP3    H159675   2.086   3.142  12.990 -1.0814 -1.6788 -0.7898
12728TIP3    H259676   1.935   3.154  13.001 -0.9295  1.6444 -1.2184
12729TIP3   OH259677   4.084   4.338  15.549  0.1236 -0.0803  0.3765
12729TIP3    H159678   3.993   4.358  15.528  0.4881  1.6911  0.3215
12729TIP3    H259679   4.087   4.341  15.645 -0.5178 -3.4009  0.6077
12730TIP3   OH259680   4.556   2.458   3.272  0.0171 -0.1804 -0.2527
12730TIP3    H159681   4.518   2.545   3.263 -1.9712 -0.8512  0.9623
12730TIP3    H259682   4.492   2.400   3.229  0.9752 -1.1216 -0.4581
12731TIP3   OH259683   1.493   1.826  11.778  1.3927  0.4855  0.1650
12731TIP3    H159684   1.571   1.777  11.803  0.8433 -0.3056  0.3813
12731TIP3    H259685   1.420   1.770  11.805  0.7547  1.0621 -0.3217
12732TIP3   OH259686   6.187   2.384   5.209  0.2064 -0.3640 -0.1584
12732TIP3    H159687   6.202   2.397   5.115 -0.1603  2.4580  0.0968
12732TIP3    H259688   6.256   2.434   5.252 -0.8178  0.0462  1.0587
12733TIP3   OH259689   4.384   3.958  11.619 -0.2401 -0.6854  0.1595
12733TIP3    H159690   4.454   3.894  11.637 -0.5493 -0.7931  1.0025
12733TIP3    H259691   4.370   3.950  11.524  1.0383 -0.5025 -0.0730
12734TIP3   OH259692   0.148   1.967  12.825 -0.0512  0.1524 -0.0626
12734TIP3    H159693   0.116   1.881  12.853  1.2277  0.0452  1.2094
12734TIP3    H259694   0.132   1.969  12.730 -1.1045 -1.0256  0.0653
12735TIP3   OH259695   6.494   4.026   2.794  0.9321 -0.6505 -0.0348
12735TIP3    H159696   6.410   3.981   2.783  0.8959 -1.1132  1.7375
12735TIP3    H259697   6.535   3.981   2.868  1.3568  1.5663  1.1471
12736TIP3   OH259698   0.815   4.584   6.680 -0.5585 -0.0316 -0.1407
12736TIP3    H159699   0.738   4.584   6.738 -0.4689 -0.3373 -0.0203
12736TIP3    H259700   0.826   4.676   6.656 -1.3774 -0.0715 -0.7128
12737TIP3   OH259701   1.892   4.502  12.706 -0.0958  0.2230 -0.5329
12737TIP3    H159702   1.897   4.416  12.666  1.1863  0.0478 -0.0413
12737TIP3    H259703   1.978   4.541  12.690  0.3239  0.3116  1.6242
12738TIP3   OH259704   5.269   2.628  12.233 -0.1943 -0.5820  0.5231
12738TIP3    H159705   5.319   2.671  12.303  0.1277  1.6266 -0.9501
12738TIP3    H259706   5.336   2.595  12.173 -0.4635  0.5878 -0.4417
12739TIP3   OH259707   1.123   0.481  16.761  0.1673 -0.7859 -0.1630
12739TIP3    H159708   1.167   0.430  16.692 -1.8641 -1.0675 -1.3346
12739TIP3    H259709   1.047   0.427  16.785 -0.5158  0.4575  0.5403
12740TIP3   OH259710   0.987   0.433   5.068  0.1946 -0.5074 -0.0968
12740TIP3    H159711   1.049   0.430   5.140  0.1513 -0.1565 -0.0404
12740TIP3    H259712   0.979   0.343   5.038  1.9343 -0.3696 -1.1358
12741TIP3   OH259713   2.229   1.262  16.189  0.2584 -0.2436  0.1071
12741TIP3    H159714   2.174   1.315  16.132  1.1908  0.4749 -0.1574
12741TIP3    H259715   2.300   1.231  16.133  0.8039 -0.1094  0.7045
12742TIP3   OH259716   5.826   2.959   1.059 -0.3826 -0.4674 -1.1933
12742TIP3    H159717   5.847   3.053   1.062 -1.6707 -0.1399 -1.7738
12742TIP3    H259718   5.887   2.924   0.993 -0.1945  0.0392 -1.2981
12743TIP3   OH259719   2.628   4.559   2.041  0.2310  0.5069 -0.2620
12743TIP3    H159720   2.721   4.563   2.064  0.0291 -1.9892  1.3392
12743TIP3    H259721   2.627   4.542   1.947  1.3779  0.6422 -0.3099
12744TIP3   OH259722   2.736   1.454  11.997 -0.0770  0.1640  0.0531
12744TIP3    H159723   2.815   1.411  11.962  0.5505  0.7365  0.7340
12744TIP3    H259724   2.736   1.432  12.090 -0.1230  1.0629  0.2765
12745TIP3   OH259725   2.113   1.675  15.649  0.2340  0.0400 -0.2278
12745TIP3    H159726   2.205   1.655  15.631  0.0645 -0.1388 -0.9497
12745TIP3    H259727   2.103   1.663  15.743  1.0337  0.4146 -0.0914
12746TIP3   OH259728   5.753   6.103  13.349 -0.2284  1.1420  0.1963
12746TIP3    H159729   5.674   6.069  13.389  0.4163 -0.5812  0.0839
12746TIP3    H259730   5.731   6.113  13.256 -0.0365 -0.2714 -0.0139
12747TIP3   OH259731   2.739   3.572  15.679  0.0111 -0.2763 -0.2225
12747TIP3    H159732   2.669   3.595  15.617  1.7383  0.9883 -1.7981
12747TIP3    H259733   2.741   3.477  15.678 -1.2962 -0.3316 -0.5790
12748TIP3   OH259734   2.513   0.660   0.321 -0.5274  0.3560 -0.1113
12748TIP3    H159735   2.465   0.596   0.268  0.7239 -0.3126 -0.4716
12748TIP3    H259736   2.598   0.619   0.339 -0.1439  1.4220  0.6760
12749TIP3   OH259737   6.478   4.824   4.001  0.2101 -0.2863  0.3618
12749TIP3    H159738   6.557   4.771   3.999  0.9712  0.8391 -0.3979
12749TIP3    H259739   6.509   4.915   4.004 -1.0498  0.1720  0.4760
12750TIP3   OH259740   2.613   0.054  14.293 -0.3975  0.0801  0.6085
12750TIP3    H159741   2.602   0.045  14.388  0.2046  0.7946  0.7562
12750TIP3    H259742   2.666   0.133  14.283  2.0702 -1.5573 -0.1658
12751TIP3   OH259743   1.532   3.999  14.441 -0.1406  0.2160 -0.5354
12751TIP3    H159744   1.563   3.910  14.424  2.1058  0.5237  1.3093
12751TIP3    H259745   1.438   3.990  14.454  0.0753 -1.9628 -0.0583
12752TIP3   OH259746   5.215   5.586   1.093 -0.5615 -0.3461  0.1959
12752TIP3    H159747   5.159   5.508   1.100 -0.9609 -0.0279  0.5775
12752TIP3    H259748   5.228   5.599   0.999 -0.4251 -0.9187  0.1297
12753TIP3   OH259749   4.832   3.170  13.803 -0.3425 -0.2089 -0.6570
12753TIP3    H159750   4.884   3.244  13.770  0.7363 -0.3106  0.7096
12753TIP3    H259751   4.742   3.200  13.801  0.1851  1.7656  1.2638
12754TIP3   OH259752   1.871   2.067   0.148  0.2398  0.3372 -0.3188
12754TIP3    H159753   1.901   2.067   0.239 -1.6360  0.9618  0.3532
12754TIP3    H259754   1.899   1.982   0.114 -0.9135 -0.8683  1.5499
12755TIP3   OH259755   4.340   2.607  11.851  0.3417  0.3569  0.1749
12755TIP3    H159756   4.368   2.517  11.836 -1.5883 -0.4851  1.1912
12755TIP3    H259757   4.277   2.625  11.781  1.3607  1.2642 -0.5401
12756TIP3   OH259758   1.741   0.884   4.656  0.0363  0.3827 -0.5499
12756TIP3    H159759   1.719   0.793   4.639  0.6404 -0.0416  0.8282
12756TIP3    H259760   1.695   0.905   4.737 -2.2842  2.1540 -2.1698
12757TIP3   OH259761   4.934   0.942  16.036 -0.4918  0.0150 -0.4499
12757TIP3    H159762   4.974   0.879  16.096  0.1293 -0.1443 -1.0117
12757TIP3    H259763   4.998   0.951  15.965 -1.7079 -0.6882 -1.6721
12758TIP3   OH259764   3.353   3.068  14.476  0.0949 -0.1370  0.2541
12758TIP3    H159765   3.374   3.151  14.432  0.1510  0.1356  0.7863
12758TIP3    H259766   3.352   3.090  14.569 -1.0393 -0.4747  0.3429
12759TIP3   OH259767   6.140   3.882  14.974  0.5244 -0.9633  0.5101
12759TIP3    H159768   6.127   3.977  14.962 -1.4886 -1.2578 -0.0730
12759TIP3    H259769   6.117   3.866  15.065  0.4310 -0.9440  0.4904
12760TIP3   OH259770   4.855   2.141   5.049  0.0191 -0.1451 -0.2551
12760TIP3    H159771   4.930   2.130   4.990  0.4345 -0.1383  0.2527
12760TIP3    H259772   4.874   2.082   5.122 -0.6033 -0.3327 -0.2403
12761TIP3   OH259773   5.503   6.783   4.173 -0.1501  0.3075 -0.6082
12761TIP3    H159774   5.510   6.732   4.092 -0.6208  1.4410 -1.3999
12761TIP3    H259775   5.413   6.769   4.202  0.3247 -0.9466  0.3313
12762TIP3   OH259776   6.320   2.914  11.795  0.7853 -0.1753  0.2288
12762TIP3    H159777   6.319   2.913  11.890 -1.0415 -0.3565  0.2411
12762TIP3    H259778   6.403   2.872  11.771  0.9387 -0.7628  1.7200
12763TIP3   OH259779   2.956   4.328  12.028  0.3142  0.6271  0.2880
12763TIP3    H159780   2.896   4.398  12.001 -0.4375  0.5239  1.6287
12763TIP3    H259781   3.012   4.315  11.951 -1.4861  0.5916 -1.0905
12764TIP3   OH259782   2.375   0.481   0.153  0.3248  0.6129 -0.0035
12764TIP3    H159783   2.303   0.512   0.098  1.1871  0.7479 -1.0773
12764TIP3    H259784   2.333   0.454   0.234 -0.9381  0.6813 -0.6170
12765TIP3   OH259785   3.278   2.107   1.333  0.4926  0.4601 -0.1251
12765TIP3    H159786   3.249   2.188   1.376 -0.0663  0.9390 -1.3504
12765TIP3    H259787   3.198   2.070   1.296  0.8364 -0.3733 -0.0570
12766TIP3   OH259788   5.787   5.176  12.786 -0.0126  0.2805  0.1924
12766TIP3    H159789   5.753   5.136  12.706 -0.7051  1.0742  0.0793
12766TIP3    H259790   5.799   5.102  12.846  2.1833 -0.5842 -1.1724
12767TIP3   OH259791   4.509   5.797  11.081 -0.1838  0.2440 -0.4699
12767TIP3    H159792   4.527   5.703  11.083 -1.6272 -0.0316  0.2347
12767TIP3    H259793   4.417   5.803  11.056 -0.9412  1.3389  2.3246
12768TIP3   OH259794   6.600   2.363   0.048  0.1475 -0.0336  0.2826
12768TIP3    H159795   6.681   2.331   0.088 -0.1477  0.8236  1.6611
12768TIP3    H259796   6.542   2.381   0.123 -0.7653  0.7732 -0.5870
12769TIP3   OH259797   4.748   4.931   1.560 -0.0213 -0.0044  0.0949
12769TIP3    H159798   4.746   4.841   1.527 -1.6513 -1.0449  2.7501
12769TIP3    H259799   4.656   4.955   1.572  0.4118  1.7011  0.2807
12770TIP3   OH259800   2.918   3.051  12.026  0.4389  0.2589  0.1617
12770TIP3    H159801   2.952   3.139  12.041  0.4298  0.1678  0.7393
12770TIP3    H259802   2.831   3.051  12.067  0.1721  0.1674 -0.3813
12771TIP3   OH259803   6.265   1.577  16.683 -0.5179  0.0124  0.3265
12771TIP3    H159804   6.185   1.526  16.689  0.6503 -1.9642  0.1305
12771TIP3    H259805   6.242   1.663  16.718 -2.9950 -0.0905 -0.8140
12772TIP3   OH259806   5.850   6.304  10.908 -0.2358 -0.0495  0.0714
12772TIP3    H159807   5.838   6.363  10.834 -0.5473 -0.9449 -0.5995
12772TIP3    H259808   5.763   6.298  10.948  0.0125  0.7440  0.7664
12773TIP3   OH259809   4.127   2.552  14.243  0.7589  0.1080 -0.7504
12773TIP3    H159810   4.066   2.587  14.308  0.7108 -2.0377  0.4832
12773TIP3    H259811   4.076   2.546  14.163  0.7821  2.7089 -1.0490
12774TIP3   OH259812   5.482   5.491   1.546 -0.4292  0.3762 -0.5881
12774TIP3    H159813   5.459   5.423   1.609 -1.3753  0.7176 -0.5488
12774TIP3    H259814   5.450   5.457   1.462 -0.1797  0.4230 -0.7032
12775TIP3   OH259815   0.531   6.366   1.638 -0.0092  0.0289  0.0128
12775TIP3    H159816   0.600   6.391   1.577 -0.4471 -0.7896 -0.8368
12775TIP3    H259817   0.551   6.275   1.660 -0.1421  0.1642  0.7050
12776TIP3   OH259818   6.578   5.445   2.982  0.3351  0.1462  0.3397
12776TIP3    H159819   6.611   5.423   2.894 -0.0212  1.8739 -0.2754
12776TIP3    H259820   6.488   5.474   2.967 -0.3999 -1.3695  1.5680
12777TIP3   OH259821   5.580   1.162  10.608  0.2764  0.7937 -0.9973
12777TIP3    H159822   5.504   1.105  10.615  0.9531 -0.7754 -4.2763
12777TIP3    H259823   5.544   1.250  10.616 -1.6378  0.0693 -0.9431
12778TIP3   OH259824   1.296   3.814  14.861  0.2818 -0.1350  0.4497
12778TIP3    H159825   1.211   3.841  14.828  0.1136 -1.5713 -0.3543
12778TIP3    H259826   1.276   3.746  14.926  0.8491 -2.1408 -1.3822
12779TIP3   OH259827   1.834   2.211   1.453  0.0872 -0.3233  0.1520
12779TIP3    H159828   1.785   2.205   1.535 -1.6911  0.4598 -0.7951
12779TIP3    H259829   1.787   2.154   1.392 -0.4472  1.3780 -1.1228
12780TIP3   OH259830   2.372   2.083  15.388  0.0019  0.3667  0.1400
12780TIP3    H159831   2.436   2.054  15.453  1.6414 -1.7698 -2.2294
12780TIP3    H259832   2.399   2.172  15.366 -0.3226  0.9685  1.9801
12781TIP3   OH259833   5.189   4.748   4.472 -0.1330 -0.1468 -0.3838
12781TIP3    H159834   5.130   4.714   4.405 -0.5414 -0.1322 -0.0370
12781TIP3    H259835   5.275   4.718   4.445 -0.3598 -0.5936 -0.6287
12782TIP3   OH259836   6.299   0.798   5.747 -0.2914  0.1875 -0.0351
12782TIP3    H159837   6.376   0.839   5.710 -2.6503  3.2360 -2.0230
12782TIP3    H259838   6.322   0.705   5.751  3.1133  0.8097 -1.3427
12783TIP3   OH259839   4.890   0.601  13.145 -0.6668  0.0309  0.0369
12783TIP3    H159840   4.890   0.517  13.099  2.5826  0.3942 -0.9362
12783TIP3    H259841   4.918   0.580  13.234  1.3977  0.1241 -0.5428
12784TIP3   OH259842   1.009   6.804  16.942 -0.2527  0.0510 -0.1320
12784TIP3    H159843   0.943   6.866  16.970 -1.6824 -0.5841 -1.8955
12784TIP3    H259844   1.087   6.826  16.993 -1.0141  2.5777  0.0481
12785TIP3   OH259845   5.070   5.487   1.378  0.7156 -0.5587  0.1438
12785TIP3    H159846   4.984   5.462   1.345 -0.1945  0.5720  1.5481
12785TIP3    H259847   5.068   5.583   1.382  1.3408 -0.5747  1.9154
12786TIP3   OH259848   5.472   0.620  13.671  0.4595 -0.5010  0.2756
12786TIP3    H159849   5.419   0.697  13.648  0.2014 -1.2063 -1.6764
12786TIP3    H259850   5.416   0.569  13.729  0.5700  0.6851  1.4591
12787TIP3   OH259851   2.050   2.015  16.556 -0.5082 -0.3604  0.0866
12787TIP3    H159852   1.993   2.082  16.520  0.4988 -0.4602 -1.8091
12787TIP3    H259853   2.065   2.043  16.646  1.0250  2.8237 -1.0141
12788TIP3   OH259854   1.759   4.069  16.300 -0.6818  0.2757  0.1874
12788TIP3    H159855   1.808   4.042  16.222 -0.4844 -1.5156  0.8724
12788TIP3    H259856   1.809   4.143  16.335 -0.4346  0.7133 -1.0234
12789TIP3   OH259857   5.769   0.208   2.168  0.0135  0.4987  0.3970
12789TIP3    H159858   5.715   0.134   2.139 -0.2815  1.6176 -2.1967
12789TIP3    H259859   5.706   0.270   2.205 -0.4443  1.3075 -1.5772
12790TIP3   OH259860   2.881   5.692  14.193 -0.4393  0.4390 -0.1947
12790TIP3    H159861   2.874   5.668  14.101 -1.1753 -2.5697  0.5633
12790TIP3    H259862   2.949   5.635  14.228 -0.6857  1.0307  1.3106
12791TIP3   OH259863   3.707   5.560  16.414  0.4125 -0.0200 -0.0872
12791TIP3    H159864   3.752   5.638  16.381  1.7443 -1.8295 -2.9959
12791TIP3    H259865   3.652   5.532  16.342  0.0216 -1.8146  0.8535
12792TIP3   OH259866   6.626   0.733  15.270 -0.0021 -0.0813  0.3210
12792TIP3    H159867   6.647   0.809  15.324  0.5205 -0.6532  0.9452
12792TIP3    H259868   6.698   0.672  15.286  0.9084  0.2559 -2.0895
12793TIP3   OH259869   4.769   0.675  16.176 -0.3352 -0.0840 -0.1115
12793TIP3    H159870   4.731   0.763  16.170  1.4237  0.7957  0.8739
12793TIP3    H259871   4.790   0.664  16.269  1.1943 -0.7656 -0.5046
12794TIP3   OH259872   2.074   6.640   1.677 -0.0921  0.0570 -0.1567
12794TIP3    H159873   1.993   6.589   1.687  0.6855 -0.9957  1.1193
12794TIP3    H259874   2.143   6.575   1.669  0.5723  0.9490 -2.2636
12795TIP3   OH259875   5.614   2.699   3.396 -0.0825  0.3376  0.8650
12795TIP3    H159876   5.581   2.609   3.394  1.6448 -0.3661  1.7579
12795TIP3    H259877   5.667   2.707   3.317 -0.3538  0.6196  0.7117
12796TIP3   OH259878   1.020   1.611  13.162  0.0249 -0.6539 -0.4235
12796TIP3    H159879   0.980   1.599  13.076 -0.7397  1.0757 -0.3395
12796TIP3    H259880   0.960   1.669  13.209  1.9867  1.0269  0.1544
12797TIP3   OH259881   3.670   2.650   1.733  0.1538  0.1480  0.3886
12797TIP3    H159882   3.628   2.731   1.704  0.8333  0.7284  0.9674
12797TIP3    H259883   3.753   2.679   1.772  0.7942 -0.9039 -0.1487
12798TIP3   OH259884   5.345   5.895  10.300 -0.3593 -0.7726 -0.4601
12798TIP3    H159885   5.314   5.967  10.354  0.6958 -1.1278  0.6720
12798TIP3    H259886   5.311   5.913  10.212  0.0340  1.1840 -0.2433
12799TIP3   OH259887   2.719   6.865  13.825 -0.3232 -0.2420 -0.0221
12799TIP3    H159888   2.731   6.858  13.731  5.0936  0.8517  0.2858
12799TIP3    H259889   2.712   6.774  13.855  0.0619 -0.6989 -1.2822
12800TIP3   OH259890   5.043   2.414   3.130  0.4676  0.8125 -0.1577
12800TIP3    H159891   5.005   2.391   3.215 -0.3322  2.9256  0.1205
12800TIP3    H259892   5.086   2.498   3.145  2.6759 -0.0415 -1.2347
12801TIP3   OH259893   1.816   0.093   5.004  0.0695 -0.8637  0.2465
12801TIP3    H159894   1.735   0.042   4.998 -0.6074  0.0040  1.6116
12801TIP3    H259895   1.789   0.184   4.998  0.7693 -0.5006  1.7996
12802TIP3   OH259896   6.584   1.632   4.300  0.3520 -0.4433 -0.0709
12802TIP3    H159897   6.517   1.646   4.366  0.3807 -1.2631  0.1371
12802TIP3    H259898   6.541   1.582   4.231  0.3102  0.4437 -0.6999
12803TIP3   OH259899   0.037   3.937   3.852 -0.3432  0.3176  0.4692
12803TIP3    H159900  -0.044   3.967   3.894 -0.4151 -0.4329  0.8810
12803TIP3    H259901   0.060   3.856   3.898 -0.3776 -0.4845 -0.8622
12804TIP3   OH259902   3.107   2.306   6.611  0.0323  0.8567  0.8769
12804TIP3    H159903   3.113   2.399   6.587  0.0480  0.7464  0.4320
12804TIP3    H259904   3.013   2.290   6.620 -0.0279  0.7203  0.1181
12805TIP3   OH259905   6.592   5.059  12.595  0.0325  0.5349 -0.0976
12805TIP3    H159906   6.579   4.965  12.607 -0.3492  0.7936  1.7541
12805TIP3    H259907   6.669   5.079  12.649 -2.0319  1.8627  2.5713
12806TIP3   OH259908   4.466   6.864   4.370 -0.5795 -0.2533 -0.1782
12806TIP3    H159909   4.507   6.803   4.432  0.3739  0.0778 -0.4670
12806TIP3    H259910   4.473   6.820   4.286 -0.3839  0.0122 -0.3019
12807TIP3   OH259911   3.830   0.485   2.894 -0.7388 -0.5742 -0.2087
12807TIP3    H159912   3.897   0.550   2.916 -1.5941  0.2250  0.1205
12807TIP3    H259913   3.878   0.412   2.855  0.4370 -0.5075  1.0657
12808TIP3   OH259914   3.506   3.928  14.263  0.1950  0.0476 -0.5600
12808TIP3    H159915   3.439   3.888  14.319 -0.2844  1.9918  0.3749
12808TIP3    H259916   3.460   4.002  14.222  1.5016  0.8311 -0.6554
12809TIP3   OH259917   2.379   1.807  14.039  0.3179  0.0319 -0.0104
12809TIP3    H159918   2.404   1.739  13.977  0.7525  0.4315 -0.2812
12809TIP3    H259919   2.356   1.882  13.983  0.1759  0.2186  0.2971
12810TIP3   OH259920   4.093   1.156  13.886 -0.4278  0.2803  0.7788
12810TIP3    H159921   4.176   1.202  13.896 -1.1366  1.7786  0.1174
12810TIP3    H259922   4.117   1.069  13.853  0.8318  0.9703 -0.2059
12811TIP3   OH259923   6.387   5.085  14.717 -0.0357 -0.3522 -0.4486
12811TIP3    H159924   6.405   5.093  14.811 -0.6710 -1.5840 -0.2037
12811TIP3    H259925   6.471   5.106  14.675  1.5733 -3.9493  0.5917
12812TIP3   OH259926   1.493   3.111  13.073  0.1360  0.0297  0.0927
12812TIP3    H159927   1.475   3.112  13.167 -2.1568 -1.1730 -0.2709
12812TIP3    H259928   1.439   3.181  13.037  1.8939  1.2744 -0.2575
12813TIP3   OH259929   4.864   1.567  17.022  0.5819  0.3840  0.1510
12813TIP3    H159930   4.825   1.529  17.100  1.9224 -2.6954 -0.5176
12813TIP3    H259931   4.795   1.566  16.956 -0.3181  2.2484  1.0081
12814TIP3   OH259932   3.865   2.772  14.319  0.1009 -0.1306  0.2474
12814TIP3    H159933   3.781   2.816  14.329  0.5235  1.2838 -1.8725
12814TIP3    H259934   3.882   2.772  14.225  1.8363 -1.6543  0.4917
12815TIP3   OH259935   2.444   5.540  14.625 -0.0916 -0.1639 -0.1440
12815TIP3    H159936   2.396   5.518  14.704  0.0314 -0.6748 -0.2109
12815TIP3    H259937   2.469   5.456  14.587 -1.7320 -0.0187 -1.7103
12816TIP3   OH259938   0.417   4.209  16.666  0.1480  0.1425  0.4900
12816TIP3    H159939   0.377   4.231  16.750 -0.5646 -2.0769  0.7957
12816TIP3    H259940   0.409   4.114  16.660  4.0871 -0.3106 -0.1040
12817TIP3   OH259941   3.376   1.569  11.507 -0.3615  0.1291 -0.5837
12817TIP3    H159942   3.362   1.649  11.557  0.1588 -0.1465  0.0199
12817TIP3    H259943   3.306   1.568  11.442 -1.3581  0.2268  0.4751
12818TIP3   OH259944   4.554   1.934   5.651 -0.0091  0.8250  0.2526
12818TIP3    H159945   4.634   1.986   5.644 -0.3615  1.1496 -2.5901
12818TIP3    H259946   4.483   1.998   5.645 -0.4744  0.3672  0.7912
12819TIP3   OH259947   0.186   5.319  13.406  0.2168 -0.0701 -0.7463
12819TIP3    H159948   0.200   5.228  13.379  0.7838  0.5242 -2.6310
12819TIP3    H259949   0.183   5.368  13.324 -0.4100  1.5850  0.2148
12820TIP3   OH259950   5.051   3.478  12.814 -0.4838 -0.0399 -0.0882
12820TIP3    H159951   4.962   3.511  12.825 -0.0480  0.5527  2.4052
12820TIP3    H259952   5.076   3.448  12.902  0.9912 -2.3176 -1.1737
12821TIP3   OH259953   0.567   1.349  10.428  0.7555 -0.4104 -0.1140
12821TIP3    H159954   0.603   1.437  10.416 -0.0158  0.0114  0.5891
12821TIP3    H259955   0.636   1.302  10.476 -0.0791  0.7814  2.4206
12822TIP3   OH259956   1.688   3.377   2.788  0.0681  0.6548 -0.9703
12822TIP3    H159957   1.766   3.322   2.794 -0.0352  0.5830 -0.1408
12822TIP3    H259958   1.627   3.326   2.734  0.4193  0.5024 -1.2280
12823TIP3   OH259959   2.920   6.509  16.364  0.4721 -0.2681  0.0464
12823TIP3    H159960   2.868   6.451  16.418 -0.3179 -0.0495 -0.4633
12823TIP3    H259961   2.969   6.563  16.426  0.1612 -0.5356  0.5270
12824TIP3   OH259962   4.710   3.416  12.692  0.6069  0.3634 -0.4645
12824TIP3    H159963   4.755   3.468  12.759  1.7413 -0.4694 -0.5432
12824TIP3    H259964   4.763   3.336  12.685  0.0954  0.1279 -1.8387
12825TIP3   OH259965   1.320   1.088  10.703 -0.1241  0.2333  0.1983
12825TIP3    H159966   1.386   1.139  10.656  1.3049 -0.1647  1.6972
12825TIP3    H259967   1.277   1.153  10.760 -2.3687  0.8690 -2.0726
12826TIP3   OH259968   5.527   6.061   0.783 -0.1770  0.2615  0.2315
12826TIP3    H159969   5.488   5.974   0.788  0.4586 -0.1614 -1.5075
12826TIP3    H259970   5.594   6.061   0.852 -1.4512  0.0871  1.5087
12827TIP3   OH259971   5.039   2.153  15.991 -0.2169  0.4500  0.3300
12827TIP3    H159972   5.126   2.154  15.953  0.1751  1.2077  1.2138
12827TIP3    H259973   5.052   2.171  16.084 -1.4175  2.3657  0.1993
12828TIP3   OH259974   4.789   3.572   3.402 -0.4791 -0.6022 -0.0683
12828TIP3    H159975   4.763   3.653   3.444 -1.0326 -1.2310  0.8303
12828TIP3    H259976   4.880   3.557   3.430 -0.4171 -0.3543 -0.1407
12829TIP3   OH259977   5.240   2.947   4.834  0.0548 -0.2077  0.2865
12829TIP3    H159978   5.256   3.040   4.815 -2.4634  0.4723  1.1165
12829TIP3    H259979   5.236   2.942   4.930  1.0371 -1.3746  0.2938
12830TIP3   OH259980   4.442   1.258   5.592  0.7864  0.3764  0.0453
12830TIP3    H159981   4.503   1.277   5.521 -0.9026  2.6534 -0.9052
12830TIP3    H259982   4.471   1.315   5.664  1.6626 -0.9297  0.7856
12831TIP3   OH259983   6.723   3.968  10.374 -0.7413  0.1359 -0.4766
12831TIP3    H159984   6.667   4.025  10.321 -0.2533 -0.0620 -1.2316
12831TIP3    H259985   6.812   3.998  10.354 -0.4108 -1.4611 -1.6086
12832TIP3   OH259986   6.407   0.267   3.921  1.0122 -0.2752 -0.1133
12832TIP3    H159987   6.336   0.207   3.897  1.4687  0.1778 -2.9578
12832TIP3    H259988   6.472   0.212   3.964 -0.9735 -0.7005  2.6243
12833TIP3   OH259989   1.390   1.330  15.748  0.0909  0.3115 -0.2798
12833TIP3    H159990   1.426   1.361  15.832 -0.2683 -1.0048  0.3824
12833TIP3    H259991   1.356   1.409  15.706  0.7116  1.0693  0.5928
12834TIP3   OH259992   3.895   1.037   1.537 -0.5444 -0.1162 -0.1492
12834TIP3    H159993   3.805   1.008   1.523 -1.1459  1.3876  0.4320
12834TIP3    H259994   3.889   1.131   1.549  0.8472 -0.2106  1.9979
12835TIP3   OH259995   0.761   4.482  13.229 -0.0434  0.2132  0.0013
12835TIP3    H159996   0.707   4.519  13.159  0.6631 -0.5767 -1.0013
12835TIP3    H259997   0.736   4.389  13.231  1.9301 -0.3812 -1.1443
12836TIP3   OH259998   4.257   6.146   2.579 -1.0003  0.3993  0.1088
12836TIP3    H159999   4.310   6.210   2.626 -0.0867  0.6698 -1.2481
12836TIP3    H260000   4.209   6.197   2.513 -0.2022 -0.2841 -1.0408
12837TIP3   OH260001   1.862   5.526   4.760 -0.0294  0.0711 -0.1214
12837TIP3    H160002   1.920   5.582   4.811 -1.5852  0.0392  1.8170
12837TIP3    H260003   1.782   5.578   4.748 -0.2605 -0.4989 -1.2454
12838TIP3   OH260004   3.117   3.738  11.750  0.2255 -0.5331  0.0521
12838TIP3    H160005   3.172   3.750  11.673 -0.3853  0.7469 -0.2255
12838TIP3    H260006   3.028   3.738  11.716 -0.0189 -0.7681  0.6731
12839TIP3   OH260007   0.424   4.568   2.823  0.1405 -0.0494  0.0023
12839TIP3    H160008   0.339   4.592   2.859  0.3109  0.2113  0.2380
12839TIP3    H260009   0.426   4.611   2.737 -1.1231 -2.3964 -1.2723
12840TIP3   OH260010   6.424   1.662  15.967  0.0823 -0.3345 -0.3298
12840TIP3    H160011   6.415   1.651  15.873 -0.0645 -0.2697 -0.3242
12840TIP3    H260012   6.437   1.573  16.001 -4.4072 -1.0564  0.0907
12841TIP3   OH260013   2.844   2.134  15.219 -0.0735  0.8890  0.4944
12841TIP3    H160014   2.762   2.104  15.181 -0.3880 -0.7745  2.3436
12841TIP3    H260015   2.817   2.190  15.292  0.2835 -1.5573  2.6248
12842TIP3   OH260016   4.990   6.282  16.873  0.4075  0.5019  0.2550
12842TIP3    H160017   4.940   6.362  16.888  0.8199  0.6519  0.8878
12842TIP3    H260018   5.074   6.313  16.838 -0.6510  0.1464 -2.9260
12843TIP3   OH260019   5.563   4.580   0.520  0.4897 -0.0557  0.3330
12843TIP3    H160020   5.627   4.647   0.495 -0.1711  0.1229 -0.9521
12843TIP3    H260021   5.542   4.601   0.611  0.5112  1.3217  0.0487
12844TIP3   OH260022   0.401   0.698   2.896 -0.8326  0.2698 -0.1964
12844TIP3    H160023   0.444   0.762   2.953  0.1503 -0.9595  0.4896
12844TIP3    H260024   0.455   0.694   2.817 -0.5227 -0.1754  0.0340
12845TIP3   OH260025   4.124   6.109   2.839  0.1468  0.6085  0.5305
12845TIP3    H160026   4.159   6.168   2.773  0.8915  0.7177  1.0070
12845TIP3    H260027   4.126   6.022   2.799  0.4228  0.7004  0.3514
12846TIP3   OH260028   4.723   2.565   1.857  0.0916  0.4051 -0.3602
12846TIP3    H160029   4.682   2.542   1.774  1.1760 -0.9599 -0.5621
12846TIP3    H260030   4.731   2.482   1.904 -1.3661  1.2570  1.5577
12847TIP3   OH260031   1.064   1.757   4.721  0.6712  0.0757  0.6298
12847TIP3    H160032   1.032   1.747   4.631 -1.2803  1.7203  1.0737
12847TIP3    H260033   1.074   1.667   4.753 -1.2652 -0.5403 -0.3536
12848TIP3   OH260034   1.724   0.974  15.912  0.2177  0.2147 -0.1618
12848TIP3    H160035   1.705   0.985  16.005 -0.1476  0.3871 -0.2590
12848TIP3    H260036   1.747   1.062  15.882 -1.1820  0.4530 -0.5831
12849TIP3   OH260037   2.541   3.699  16.912 -0.5444  0.1260 -0.3580
12849TIP3    H160038   2.606   3.755  16.869  1.6426 -2.6567 -0.9375
12849TIP3    H260039   2.456   3.732  16.881  0.4838  3.8026  0.3103
12850TIP3   OH260040   4.022   0.153   0.586  0.0292 -0.3943 -0.5631
12850TIP3    H160041   4.117   0.149   0.597  0.0260 -0.3307 -0.5108
12850TIP3    H260042   3.994   0.223   0.645 -0.0356 -0.3280 -0.6720
12851TIP3   OH260043   6.459   1.655   1.779  0.0085 -0.8098 -0.2220
12851TIP3    H160044   6.510   1.576   1.795  0.9682  0.2869  2.8324
12851TIP3    H260045   6.465   1.705   1.861 -2.0815  1.5876 -1.3788
12852TIP3   OH260046   0.641   2.848  12.701  0.4045  0.4785 -0.2680
12852TIP3    H160047   0.589   2.918  12.661  1.6722  1.0734 -0.9310
12852TIP3    H260048   0.623   2.855  12.794 -0.3970  0.9127 -0.4403
12853TIP3   OH260049   3.547   0.966   4.688 -0.8084 -0.2610 -0.0973
12853TIP3    H160050   3.494   1.003   4.759 -0.8028 -0.7382  0.1625
12853TIP3    H260051   3.519   0.875   4.682 -0.6833 -0.2718 -0.5948
12854TIP3   OH260052   5.387   2.902   3.336 -0.1081 -0.1122 -0.1205
12854TIP3    H160053   5.446   2.947   3.398  0.4592 -0.9352 -0.0465
12854TIP3    H260054   5.445   2.874   3.265 -0.8025  1.0800 -1.1991
12855TIP3   OH260055   0.087   1.698   2.634 -0.1312 -0.9127 -0.0767
12855TIP3    H160056   0.132   1.776   2.666 -1.4745 -0.7229  1.4735
12855TIP3    H260057   0.079   1.642   2.711 -1.1400 -1.6100 -0.6653
12856TIP3   OH260058   3.406   6.675  15.151 -0.2183 -0.1587 -0.4728
12856TIP3    H160059   3.392   6.755  15.202  1.7164  0.0888 -0.2823
12856TIP3    H260060   3.432   6.705  15.065 -0.5984 -0.5962 -0.7466
12857TIP3   OH260061   1.686   0.401  13.987  0.1788 -0.4089  0.4543
12857TIP3    H160062   1.626   0.390  13.914  0.4727  0.2276  0.1052
12857TIP3    H260063   1.766   0.436  13.947 -0.2290  1.5794  1.2782
12858TIP3   OH260064   2.894   4.100   3.054 -0.0582  0.2973 -0.1306
12858TIP3    H160065   2.967   4.041   3.074  0.4642  0.7313 -0.7563
12858TIP3    H260066   2.916   4.182   3.099  0.1170  0.6108 -0.7838
12859TIP3   OH260067   3.728   5.986  15.782  0.6325 -0.4353 -0.0122
12859TIP3    H160068   3.753   5.965  15.872  1.1106 -1.6380 -0.3992
12859TIP3    H260069   3.633   5.999  15.786  0.7059 -0.0505  0.7291
12860TIP3   OH260070   5.388   2.042  11.508 -0.0388 -0.4595  0.3444
12860TIP3    H160071   5.359   2.081  11.425  0.6195  1.3010  0.8778
12860TIP3    H260072   5.462   2.097  11.534  1.1933 -2.3568  1.0060
12861TIP3   OH260073   3.898   3.422  11.216 -0.0205  0.3756  0.0854
12861TIP3    H160074   3.860   3.494  11.266 -1.6781  0.4249 -1.1783
12861TIP3    H260075   3.941   3.463  11.142  0.9206  0.1785  0.5004
12862TIP3   OH260076   2.951   1.092  15.240 -0.0846 -0.1343  0.2686
12862TIP3    H160077   2.963   1.122  15.150 -0.3780  0.6186  0.4637
12862TIP3    H260078   2.961   0.997  15.236  1.6051  0.0275 -0.2668
12863TIP3   OH260079   4.996   2.681  16.331 -0.1920  0.1395 -0.1595
12863TIP3    H160080   5.077   2.694  16.381  0.1481  0.1490 -0.7005
12863TIP3    H260081   4.939   2.631  16.389 -0.2097  1.0666  0.6411
12864TIP3   OH260082   6.825   4.985   0.439  0.0699 -0.5681  0.3965
12864TIP3    H160083   6.890   5.047   0.406  0.2435 -0.1434  1.5002
12864TIP3    H260084   6.835   4.908   0.383 -0.9436  0.7817 -1.7509
12865TIP3   OH260085   3.923   5.948   3.406 -0.6473  0.3298 -0.6668
12865TIP3    H160086   3.956   5.906   3.327  0.6436 -0.4108  0.2138
12865TIP3    H260087   3.971   6.031   3.412 -0.9998  0.5479 -0.8361
12866TIP3   OH260088   0.261   1.644  12.062 -0.4480  0.0311  0.1866
12866TIP3    H160089   0.205   1.654  11.985 -0.2596 -1.3151 -0.1487
12866TIP3    H260090   0.210   1.681  12.134 -1.6822 -0.9269 -0.1638
12867TIP3   OH260091   4.712   1.834   5.161  0.0698 -0.4743  0.3291
12867TIP3    H160092   4.774   1.844   5.233  1.2678  0.6637 -0.8122
12867TIP3    H260093   4.643   1.898   5.179  0.3716 -0.1827  0.4467
12868TIP3   OH260094   0.776   6.371   0.039  0.0035  0.1449 -0.6355
12868TIP3    H160095   0.796   6.458   0.074  1.5336 -0.4095 -0.0444
12868TIP3    H260096   0.730   6.327   0.110  1.4990 -0.3658  0.0523
12869TIP3   OH260097   1.108   5.738   1.701 -0.3341  0.4928 -0.6400
12869TIP3    H160098   1.143   5.806   1.758  2.9372 -0.1679 -1.6502
12869TIP3    H260099   1.035   5.780   1.656  0.1208  2.5677  0.4214
12870TIP3   OH260100   5.561   0.991   6.512 -0.2268 -0.0901  0.0505
12870TIP3    H160101   5.511   0.911   6.500  1.5873 -1.3969  0.7335
12870TIP3    H260102   5.652   0.962   6.514  0.4568  1.9383  0.8090
12871TIP3   OH260103   3.057   5.049   3.672 -0.8158 -0.4909  0.5751
12871TIP3    H160104   3.078   5.097   3.591 -1.5668 -0.2112  0.5341
12871TIP3    H260105   3.048   4.958   3.644 -1.9091 -0.2785  0.1647
12872TIP3   OH260106   1.950   0.751  13.241  0.2550  0.1627 -0.6425
12872TIP3    H160107   2.038   0.721  13.264  0.9385  1.6959 -1.1188
12872TIP3    H260108   1.950   0.844  13.263 -2.5075 -0.4743  2.8640
12873TIP3   OH260109   6.716   2.261   2.668 -0.5649  0.1918  0.4892
12873TIP3    H160110   6.667   2.185   2.698 -0.5925 -0.1523 -0.4020
12873TIP3    H260111   6.662   2.336   2.693  0.0663  0.0382  2.5428
12874TIP3   OH260112   0.268   2.217  11.808  0.2415  0.0990 -0.4459
12874TIP3    H160113   0.342   2.171  11.770 -1.4989 -0.3938 -3.5957
12874TIP3    H260114   0.275   2.306  11.775  0.5127  0.6300  0.9701
12875TIP3   OH260115   4.032   6.567  11.070 -0.0556 -0.9563  0.1690
12875TIP3    H160116   4.122   6.591  11.048  0.1151 -2.1166 -0.5069
12875TIP3    H260117   3.991   6.551  10.985 -1.0003 -0.1154  0.4589
12876TIP3   OH260118   0.053   3.978   0.770 -0.2744 -0.1894 -0.6238
12876TIP3    H160119   0.081   3.951   0.858 -1.2991 -1.3695 -0.6408
12876TIP3    H260120  -0.042   3.982   0.776 -0.2627  1.8783 -1.1031
12877TIP3   OH260121   6.447   3.321   4.593  0.8361  0.3154  0.1884
12877TIP3    H160122   6.524   3.265   4.606  0.7230  0.5220  1.8957
12877TIP3    H260123   6.400   3.317   4.676 -0.7007  0.6690 -0.6386
12878TIP3   OH260124   3.300   3.877  14.460 -0.3377  0.4079 -0.5841
12878TIP3    H160125   3.341   3.913  14.539  0.1260 -0.2089 -0.5347
12878TIP3    H260126   3.207   3.893  14.472 -0.1267  1.7568 -0.6553
12879TIP3   OH260127   4.314   5.915  12.708 -0.2755 -0.3270  0.7189
12879TIP3    H160128   4.381   5.873  12.761  1.4425  3.4712  1.9010
12879TIP3    H260129   4.362   5.950  12.633 -1.3472  0.4857  0.3865
12880TIP3   OH260130   6.202   3.986  13.535  0.3800  0.0770 -0.2457
12880TIP3    H160131   6.255   3.914  13.569  0.4799  0.0514 -0.4509
12880TIP3    H260132   6.226   4.061  13.589  1.4296  0.3221 -1.0186
12881TIP3   OH260133   1.597   5.265   1.702  0.5736 -0.0178 -0.2268
12881TIP3    H160134   1.623   5.265   1.794  0.3306 -0.9503 -0.1492
12881TIP3    H260135   1.594   5.357   1.678 -0.1175  0.2701  0.9068
12882TIP3   OH260136   6.634   1.034  15.105 -0.4319 -0.2778  0.6760
12882TIP3    H160137   6.638   1.105  15.041 -0.8338 -0.7514  0.1217
12882TIP3    H260138   6.541   1.019  15.119 -0.3911 -1.6594 -0.3102
12883TIP3   OH260139   5.515   0.331  13.910  0.4756  0.0275  0.4426
12883TIP3    H160140   5.501   0.373  13.995  1.2048  0.5140  0.3366
12883TIP3    H260141   5.429   0.332  13.868  0.3904  1.0562  0.6146
12884TIP3   OH260142   2.738   6.494  15.540 -0.1057 -0.2822  0.5993
12884TIP3    H160143   2.807   6.514  15.478 -2.0547  0.2083 -1.5293
12884TIP3    H260144   2.711   6.579  15.575  0.4798 -0.4883  1.5819
12885TIP3   OH260145   6.129   4.651  10.878 -0.2523  0.2038  0.1785
12885TIP3    H160146   6.135   4.714  10.950  0.3294  1.3583 -0.8391
12885TIP3    H260147   6.217   4.617  10.868 -0.8041 -1.7624  1.5260
12886TIP3   OH260148   2.244   0.863  13.775  0.1174 -0.4213  0.2069
12886TIP3    H160149   2.325   0.815  13.760 -0.7272 -1.7099 -0.4920
12886TIP3    H260150   2.241   0.928  13.705  0.3756 -0.6179  0.0123
12887TIP3   OH260151   2.244   0.540   0.683 -0.3815 -0.5794  0.0451
12887TIP3    H160152   2.304   0.497   0.743  0.4555 -0.0212 -0.3714
12887TIP3    H260153   2.255   0.634   0.702 -2.2270 -0.5068  1.0006
12888TIP3   OH260154   6.108   0.871  16.285  0.1629 -0.1669 -0.0937
12888TIP3    H160155   6.177   0.862  16.351 -1.1409  3.2653  1.9524
12888TIP3    H260156   6.152   0.913  16.210  0.5316  1.3204  0.9120
12889TIP3   OH260157   6.247   1.207  15.468  0.0148  0.3875 -0.0567
12889TIP3    H160158   6.198   1.258  15.532 -0.4077  0.9572 -0.8184
12889TIP3    H260159   6.334   1.247  15.467 -0.5972  1.8234 -1.3900
12890TIP3   OH260160   6.756   0.893   3.617  0.1797  0.2054  0.0089
12890TIP3    H160161   6.794   0.820   3.568  0.3602  0.1765  0.1870
12890TIP3    H260162   6.708   0.943   3.552  0.7736  0.4062 -0.2845
12891TIP3   OH260163   6.211   6.838  11.968 -0.0174  0.6829  0.2757
12891TIP3    H160164   6.291   6.837  11.916  0.2603  0.0874  0.7066
12891TIP3    H260165   6.158   6.907  11.928 -0.3381 -0.5684 -1.5773
12892TIP3   OH260166   3.816   6.253  16.165 -0.0675 -0.2501  0.2051
12892TIP3    H160167   3.865   6.294  16.237  0.0573  0.2453 -0.1579
12892TIP3    H260168   3.843   6.161  16.167  1.1722  0.0846 -0.2338
12893TIP3   OH260169   2.072   2.178   3.939  0.6390  0.3389  0.3294
12893TIP3    H160170   2.036   2.203   3.853 -0.9586 -0.3671  0.7570
12893TIP3    H260171   1.998   2.186   3.999  0.8575 -2.2761  1.0629
12894TIP3   OH260172   4.362   5.767  10.726  0.2122  0.3124  0.2302
12894TIP3    H160173   4.268   5.783  10.714  0.5204  1.8187 -0.4736
12894TIP3    H260174   4.393   5.744  10.638  0.6423  0.6467  0.2938
12895TIP3   OH260175   1.748   3.238  16.159 -0.4851 -0.9698 -0.8973
12895TIP3    H160176   1.659   3.210  16.136 -1.3307  1.3524 -0.7638
12895TIP3    H260177   1.752   3.227  16.254 -1.4780  0.9108 -0.5828
12896TIP3   OH260178   6.204   6.703  16.471  0.2658 -0.3889  0.0149
12896TIP3    H160179   6.220   6.679  16.380  0.8978 -1.3981  0.3819
12896TIP3    H260180   6.264   6.775  16.488 -1.2764  1.2150 -0.9406
12897TIP3   OH260181   6.472   5.574  14.305  0.2768  0.6201  0.2633
12897TIP3    H160182   6.502   5.483  14.310  0.6407  0.6529 -1.0273
12897TIP3    H260183   6.386   5.569  14.262  0.2496  0.8813  0.2857
12898TIP3   OH260184   1.178   6.835  14.243 -0.3361 -0.2060 -0.1380
12898TIP3    H160185   1.220   6.764  14.194  1.9902  0.2130  1.1002
12898TIP3    H260186   1.245   6.904  14.247  0.2598 -0.7209  4.6804
12899TIP3   OH260187   0.159   0.356   4.499  0.1811 -0.4729 -0.0653
12899TIP3    H160188   0.248   0.376   4.530 -0.7582  2.8424  0.9655
12899TIP3    H260189   0.115   0.317   4.574  0.3031 -0.4700  0.0081
12900TIP3   OH260190   2.913   2.138  11.645  0.1791 -0.1048 -0.1233
12900TIP3    H160191   2.905   2.163  11.737  2.9827 -0.5472  0.3367
12900TIP3    H260192   2.869   2.053  11.639 -0.0967 -0.0359  0.8028
12901TIP3   OH260193   0.969   2.331  16.755 -0.5061 -0.0272 -0.5896
12901TIP3    H160194   0.936   2.250  16.716 -1.4200  0.7407 -1.4475
12901TIP3    H260195   0.977   2.311  16.848 -0.5970 -1.1410 -0.8064
12902TIP3   OH260196   3.633   0.416  13.811 -0.0222  0.5540  0.5440
12902TIP3    H160197   3.559   0.442  13.866  0.6257  0.9229  1.2657
12902TIP3    H260198   3.648   0.490  13.752  0.4815  0.9682  1.1727
12903TIP3   OH260199   4.939   2.072   3.155  0.7066  0.7772 -0.4063
12903TIP3    H160200   4.901   2.153   3.188  1.5509  1.3750 -0.8549
12903TIP3    H260201   4.923   2.075   3.060 -0.4449 -0.2408 -0.2804
12904TIP3   OH260202   4.412   5.939  16.808  0.3695 -0.0010 -0.5002
12904TIP3    H160203   4.489   5.995  16.813  0.4995 -0.0070 -2.0493
12904TIP3    H260204   4.437   5.868  16.750 -0.5643 -0.4096 -0.4184
12905TIP3   OH260205   4.266   2.032   5.686 -0.3535  0.5174 -0.4007
12905TIP3    H160206   4.254   1.940   5.709  0.6268  0.5014  0.1150
12905TIP3    H260207   4.245   2.037   5.593  2.0903 -0.7692 -1.1235
12906TIP3   OH260208   5.120   4.972  12.203  0.0004  0.3125  0.2493
12906TIP3    H160209   5.084   5.040  12.147  1.5397  0.1288 -1.0314
12906TIP3    H260210   5.199   5.010  12.241  0.1572 -0.3179  0.5740
12907TIP3   OH260211   5.288   3.450  10.632  0.0519  1.1217 -0.8939
12907TIP3    H160212   5.228   3.439  10.705  1.1046 -0.2660 -0.1995
12907TIP3    H260213   5.235   3.489  10.563 -1.6581 -0.1279 -0.3370
12908TIP3   OH260214   5.084   5.461   5.281 -0.8341  0.0478  0.3204
12908TIP3    H160215   5.154   5.483   5.342 -0.8413 -0.2580  0.4380
12908TIP3    H260216   5.006   5.504   5.317 -0.6180  0.7891 -0.0633
12909TIP3   OH260217   1.566   5.728  11.429  0.1367  0.2589  0.4392
12909TIP3    H160218   1.563   5.762  11.339  1.3553 -0.0400  0.2816
12909TIP3    H260219   1.533   5.801  11.482  0.8183  0.9813 -0.0996
12910TIP3   OH260220   1.278   1.922  10.253 -0.0862 -0.2865 -0.3651
12910TIP3    H160221   1.373   1.907  10.259  0.1625  1.4714  1.2873
12910TIP3    H260222   1.242   1.873  10.327 -0.0510  1.4188  0.8520
12911TIP3   OH260223   2.448   2.011   0.595  0.3554 -0.2284  0.4803
12911TIP3    H160224   2.495   2.095   0.599 -1.6000  0.9239  0.7314
12911TIP3    H260225   2.400   2.016   0.512  0.4759 -1.2540  0.3465
12912TIP3   OH260226   0.704   4.184   1.228  0.1628  0.2644 -0.1515
12912TIP3    H160227   0.737   4.099   1.198 -2.6558 -0.7213 -0.7925
12912TIP3    H260228   0.762   4.248   1.186  1.6771 -1.2896 -0.5766
12913TIP3   OH260229   0.027   2.916  14.180  0.3322 -0.0669 -0.5109
12913TIP3    H160230  -0.041   2.853  14.205  1.7676 -1.4981 -0.0186
12913TIP3    H260231   0.035   2.973  14.256 -0.6374  0.4300 -0.7629
12914TIP3   OH260232   2.410   2.694  10.950  0.6057  0.3354 -0.3323
12914TIP3    H160233   2.353   2.708  10.874 -0.2379 -0.2934  0.1590
12914TIP3    H260234   2.370   2.746  11.020  1.1908  0.6538 -0.2292
12915TIP3   OH260235   6.348   1.369   4.590 -0.2258 -0.4762 -0.0003
12915TIP3    H160236   6.410   1.298   4.608 -3.0332 -3.1413 -0.0006
12915TIP3    H260237   6.315   1.394   4.676  1.2299  1.4380  0.0671
12916TIP3   OH260238   3.521   6.544   4.835  0.2923  0.2605 -0.0866
12916TIP3    H160239   3.543   6.545   4.928 -0.3633  1.4137  0.0811
12916TIP3    H260240   3.578   6.611   4.797 -0.4335  0.7817 -0.2636
12917TIP3   OH260241   3.935   0.430   4.464  0.3052 -0.6844 -0.1574
12917TIP3    H160242   3.990   0.448   4.540 -1.6536 -0.4099  1.2770
12917TIP3    H260243   3.990   0.378   4.405  1.8567 -0.9584  1.4830
12918TIP3   OH260244   2.989   0.520  16.974 -0.0066  0.0714 -0.0301
12918TIP3    H160245   3.023   0.600  16.935  0.4196  0.5601  1.3003
12918TIP3    H260246   3.063   0.458  16.970  0.0139  0.0983 -0.0668
12919TIP3   OH260247   1.105   3.641  14.500 -0.8044  0.1492 -0.2863
12919TIP3    H160248   1.147   3.726  14.489 -0.5797  0.2773  1.3484
12919TIP3    H260249   1.140   3.607  14.582 -2.3792 -0.6513  0.0904
12920TIP3   OH260250   6.820   5.711   2.595  0.4111 -0.5927 -0.1985
12920TIP3    H160251   6.897   5.663   2.625  1.4216  1.0430 -0.0624
12920TIP3    H260252   6.753   5.643   2.582  1.6340 -1.9656  0.3807
12921TIP3   OH260253   6.522   0.538  10.615 -0.6576 -0.4062  0.6024
12921TIP3    H160254   6.617   0.525  10.608 -0.4924  1.1333 -0.5825
12921TIP3    H260255   6.513   0.627  10.651 -1.5754  0.7047 -2.1240
12922TIP3   OH260256   0.033   2.493   1.507  0.2213 -0.4871  0.0526
12922TIP3    H160257   0.106   2.481   1.446  0.5449  1.3356  0.0276
12922TIP3    H260258   0.065   2.459   1.591 -0.0696 -2.5953 -0.6508
12923TIP3   OH260259   5.474   2.188   3.284 -0.2505 -0.2980 -0.0996
12923TIP3    H160260   5.463   2.127   3.211  0.8214 -1.6260  0.7969
12923TIP3    H260261   5.524   2.261   3.247 -3.7894  1.4968 -1.8898
12924TIP3   OH260262   0.166   4.523  14.751  0.3993 -0.1274 -0.2035
12924TIP3    H160263   0.219   4.444  14.758 -0.2264 -0.5154  0.2511
12924TIP3    H260264   0.092   4.497  14.696 -1.5259 -0.8471  2.5132
12925TIP3   OH260265   6.609   4.093  12.164  0.0790 -0.2315  0.4674
12925TIP3    H160266   6.519   4.065  12.149 -0.0181  0.3084  0.0165
12925TIP3    H260267   6.616   4.177  12.118  1.1537 -0.8274 -0.4945
12926TIP3   OH260268   2.603   6.089   4.185 -0.2118 -0.3004  0.1591
12926TIP3    H160269   2.667   6.130   4.243  0.6821  1.6861 -2.0398
12926TIP3    H260270   2.620   5.995   4.192  1.6144  0.0557  1.1081
12927TIP3   OH260271   3.824   5.899  12.052 -0.0353 -0.6148 -0.4892
12927TIP3    H160272   3.918   5.912  12.046 -0.0217 -0.2466  0.4203
12927TIP3    H260273   3.794   5.899  11.961  0.8135 -0.5513 -0.7762
12928TIP3   OH260274   4.336   6.474   1.271  0.5304 -0.1028 -0.0215
12928TIP3    H160275   4.318   6.547   1.330 -2.4471  0.9559 -2.0187
12928TIP3    H260276   4.389   6.512   1.201 -1.0738  0.2343 -1.0945
12929TIP3   OH260277   1.402   0.975  16.170 -0.4702 -0.7498  0.0305
12929TIP3    H160278   1.493   1.006  16.165 -1.5467  3.5124  2.2534
12929TIP3    H260279   1.409   0.890  16.214  2.3894  0.3556  2.0436
12930TIP3   OH260280   3.678   1.135   6.111  0.6250 -0.1697 -0.5320
12930TIP3    H160281   3.665   1.183   6.193  1.3991 -0.4184 -0.2562
12930TIP3    H260282   3.651   1.046   6.130  0.7820 -0.2225 -0.5593
12931TIP3   OH260283   4.830   2.130   5.698  0.0135 -0.0442  0.5883
12931TIP3    H160284   4.911   2.173   5.723  0.0086 -0.4105  1.2615
12931TIP3    H260285   4.836   2.043   5.738 -0.2319 -0.4609 -0.2533
12932TIP3   OH260286   3.733   4.236  12.043 -0.0897  0.0243 -0.0243
12932TIP3    H160287   3.732   4.196  12.130 -1.2313  1.1798  0.5192
12932TIP3    H260288   3.826   4.251  12.024  0.2110 -0.8302  0.7026
12933TIP3   OH260289   4.517   0.328   3.970  0.2155 -0.6379  0.4531
12933TIP3    H160290   4.531   0.249   4.023  2.2967 -0.3213  0.4559
12933TIP3    H260291   4.537   0.301   3.881 -0.4348 -0.4296  0.2341
12934TIP3   OH260292   6.829   6.185  15.991 -0.4464 -0.0433 -0.2482
12934TIP3    H160293   6.908   6.140  16.020 -0.5798 -0.5747 -0.6928
12934TIP3    H260294   6.781   6.204  16.072  0.3195  0.6509  0.0560
12935TIP3   OH260295   0.509   4.778   5.719 -0.2531 -0.6793 -0.3259
12935TIP3    H160296   0.562   4.810   5.792  2.0878  2.5838 -3.0779
12935TIP3    H260297   0.433   4.836   5.716  0.4245  0.1998 -1.2597
12936TIP3   OH260298   0.545   0.724   5.626  0.5061  0.6305 -0.3712
12936TIP3    H160299   0.477   0.656   5.632  1.7995 -0.6009  1.9720
12936TIP3    H260300   0.610   0.689   5.566  0.6475  0.2630 -0.0099
12937TIP3   OH260301   3.864   3.186  15.070 -0.2125 -0.3687  0.1121
12937TIP3    H160302   3.783   3.235  15.085  0.8578  1.1452  1.1308
12937TIP3    H260303   3.932   3.252  15.065  1.0726 -1.6611 -0.1582
12938TIP3   OH260304   3.773   5.167  11.696 -1.0719 -0.2165 -0.3069
12938TIP3    H160305   3.775   5.071  11.697  0.6692 -0.2333  1.4239
12938TIP3    H260306   3.684   5.189  11.669 -1.2849 -2.2915 -1.5644
12939TIP3   OH260307   1.874   0.429  16.180 -0.2370 -0.4574 -0.3192
12939TIP3    H160308   1.838   0.498  16.125  0.9353  0.3300 -0.1460
12939TIP3    H260309   1.914   0.367  16.119  0.3717  0.0053 -0.3895
12940TIP3   OH260310   2.391   5.742  13.839 -0.7459  0.5688  0.2222
12940TIP3    H160311   2.378   5.677  13.909 -0.5107  0.0871 -0.1771
12940TIP3    H260312   2.424   5.691  13.765 -0.1936  1.2049  0.0252
12941TIP3   OH260313   1.630   5.210  12.268 -0.4517 -0.3741 -0.6122
12941TIP3    H160314   1.606   5.286  12.216 -0.2170  0.4809  0.4712
12941TIP3    H260315   1.705   5.172  12.222 -2.4922 -1.8817 -2.9128
12942TIP3   OH260316   2.322   1.851  11.857 -0.1974 -0.2811 -0.2414
12942TIP3    H160317   2.297   1.910  11.929 -1.0330 -0.3448 -0.4621
12942TIP3    H260318   2.239   1.832  11.813  0.4370  0.8410 -2.0511
12943TIP3   OH260319   0.401   1.767   2.514 -0.3857  0.0851 -0.4791
12943TIP3    H160320   0.395   1.820   2.435 -0.5025 -0.4183 -0.8123
12943TIP3    H260321   0.444   1.824   2.578  1.4161 -0.1121 -1.4561
12944TIP3   OH260322   0.616   5.362   0.697  0.3488  0.1207  0.4927
12944TIP3    H160323   0.622   5.267   0.688 -0.1577  0.1704 -0.5061
12944TIP3    H260324   0.645   5.380   0.786  0.3474 -0.9806  0.7223
12945TIP3   OH260325   2.654   3.737   3.276  0.2128 -0.1437  1.0618
12945TIP3    H160326   2.658   3.655   3.227 -1.8419 -1.0896  2.3195
12945TIP3    H260327   2.563   3.766   3.265  0.3839  0.9139  2.2454
12946TIP3   OH260328   6.259   3.083  13.856  0.2926  0.0696 -0.2967
12946TIP3    H160329   6.259   3.002  13.804  0.7065  0.4835 -0.9507
12946TIP3    H260330   6.290   3.055  13.943 -2.4720 -1.0386  0.4307
12947TIP3   OH260331   6.783   3.335  13.638 -0.1323 -0.1005  0.0532
12947TIP3    H160332   6.817   3.249  13.663  1.8299  0.3700 -0.7705
12947TIP3    H260333   6.772   3.329  13.543 -0.0364  0.5160 -0.0020
12948TIP3   OH260334   6.536   4.438   2.339 -0.0332 -0.2334 -0.2486
12948TIP3    H160335   6.587   4.499   2.286  0.7977 -1.5155 -0.9673
12948TIP3    H260336   6.462   4.413   2.283 -1.5745  1.6623  0.8077
12949TIP3   OH260337   0.643   0.317  15.770 -0.1091 -0.2810 -0.3198
12949TIP3    H160338   0.637   0.222  15.774  0.1125 -0.2682  1.3766
12949TIP3    H260339   0.623   0.346  15.859  1.4632  1.1487 -0.3690
12950TIP3   OH260340   0.578   1.929   3.582  0.1208  0.7135  0.1694
12950TIP3    H160341   0.601   1.875   3.507 -0.9529 -0.3412  0.5584
12950TIP3    H260342   0.579   2.019   3.549  2.8469  0.5975 -0.2548
12951TIP3   OH260343   2.864   0.814   2.269 -0.4039 -0.6188  0.0341
12951TIP3    H160344   2.776   0.777   2.263 -0.0789 -1.2642 -1.0765
12951TIP3    H260345   2.909   0.781   2.191  1.0072 -0.8078  0.8921
12952TIP3   OH260346   3.200   4.103  15.099  0.1956 -0.5742  0.6220
12952TIP3    H160347   3.225   4.188  15.137 -1.8160  0.3568  0.0073
12952TIP3    H260348   3.245   4.039  15.153  1.7550  0.8690  1.1415
12953TIP3   OH260349   6.015   2.040   5.516 -0.2590 -0.3522  0.1127
12953TIP3    H160350   6.064   2.119   5.495 -2.1499  0.6719 -0.6602
12953TIP3    H260351   6.046   1.975   5.453  0.3033  0.1799 -0.1664
12954TIP3   OH260352   1.004   6.631  16.735  0.2601 -0.3639  1.0941
12954TIP3    H160353   1.039   6.688  16.804  2.9892 -2.9138  1.9952
12954TIP3    H260354   0.952   6.566  16.782  1.1848 -1.4332  0.6734
12955TIP3   OH260355   2.235   0.036   2.556 -0.7402 -0.1234 -0.1452
12955TIP3    H160356   2.265   0.024   2.466 -0.1806 -1.3398  0.1849
12955TIP3    H260357   2.301  -0.009   2.609 -1.6312 -0.3423  0.8013
12956TIP3   OH260358   4.611   6.121  16.846 -0.8068  0.8595  0.1227
12956TIP3    H160359   4.599   6.141  16.939  0.8771  0.7550  0.4048
12956TIP3    H260360   4.701   6.088  16.840 -1.1684  0.0280 -1.4191
12957TIP3   OH260361   4.294   3.121   3.398  0.2063 -0.6017 -0.4026
12957TIP3    H160362   4.249   3.053   3.348 -2.5273  1.3340 -0.8167
12957TIP3    H260363   4.224   3.165   3.448  2.0881  0.8252  1.1529
12958TIP3   OH260364   6.326   6.260   2.552  0.3997  0.0505 -0.1710
12958TIP3    H160365   6.373   6.258   2.469  1.5542 -3.8154  0.4005
12958TIP3    H260366   6.381   6.211   2.612 -1.4143  0.9038  2.3441
12959TIP3   OH260367   1.529   0.360   6.071 -0.0116 -0.0863  0.1992
12959TIP3    H160368   1.526   0.444   6.026 -2.1122  0.2851  0.9554
12959TIP3    H260369   1.538   0.295   6.001 -0.7470  0.6293 -0.5751
12960TIP3   OH260370   1.112   2.203   3.822 -0.0919  0.3077  0.2658
12960TIP3    H160371   1.186   2.162   3.866 -0.8160  0.3687  1.5743
12960TIP3    H260372   1.131   2.297   3.825 -1.0087  0.4701  2.1563
12961TIP3   OH260373   4.001   3.855   4.945  0.3491 -0.2506 -0.1368
12961TIP3    H160374   3.947   3.933   4.929 -0.0327 -0.3968  0.4051
12961TIP3    H260375   3.956   3.786   4.896  1.1621  0.0286 -1.3287
12962TIP3   OH260376   4.053   4.366   1.698 -0.1152 -0.0745 -0.2005
12962TIP3    H160377   4.102   4.324   1.769 -0.3855  1.4113  0.8823
12962TIP3    H260378   4.118   4.419   1.653 -0.5276  1.2643  0.7422
12963TIP3   OH260379   1.332   5.443   3.337 -0.0435 -0.2489  0.0588
12963TIP3    H160380   1.276   5.386   3.390 -1.0783 -0.2343 -0.9722
12963TIP3    H260381   1.387   5.489   3.400 -0.4277 -1.0881  1.0269
12964TIP3   OH260382   2.412   6.259  13.755  0.6531 -0.1517  0.2055
12964TIP3    H160383   2.386   6.167  13.761 -0.6313  0.2093  0.4368
12964TIP3    H260384   2.380   6.288  13.670  0.1579  0.3413  0.5544
12965TIP3   OH260385   3.032   0.664  11.103  0.4859 -0.7836 -0.5241
12965TIP3    H160386   2.941   0.634  11.094  0.2152  0.1057 -0.8551
12965TIP3    H260387   3.078   0.589  11.139 -0.6926 -0.7782  1.1714
12966TIP3   OH260388   5.413   2.683   5.634 -0.0176  0.3092 -0.5458
12966TIP3    H160389   5.378   2.626   5.702 -0.3990  0.7193 -0.3952
12966TIP3    H260390   5.434   2.765   5.680 -0.9441  0.8409 -1.0440
12967TIP3   OH260391   0.460   2.192   4.867 -0.6503 -0.1248 -0.2760
12967TIP3    H160392   0.542   2.219   4.826 -1.2505  1.7652 -0.3575
12967TIP3    H260393   0.451   2.099   4.845  1.7908 -0.5732  0.3476
12968TIP3   OH260394   4.499   6.639  12.473 -0.3762 -0.1888  0.0271
12968TIP3    H160395   4.447   6.668  12.548 -0.7797 -1.0454  0.0885
12968TIP3    H260396   4.444   6.661  12.397  0.1093  0.8384 -0.0355
12969TIP3   OH260397   2.095   4.274  11.512 -0.0275 -0.4615  0.0100
12969TIP3    H160398   2.032   4.333  11.472 -0.5668 -0.8405  0.2754
12969TIP3    H260399   2.048   4.237  11.587  1.8038  2.3120  2.7788
12970TIP3   OH260400   6.577   2.635  16.002 -0.5006  0.0728 -0.0816
12970TIP3    H160401   6.539   2.645  16.090 -1.4359  1.2528 -0.6005
12970TIP3    H260402   6.644   2.704  15.997  0.2540 -0.6263  0.0377
12971TIP3   OH260403   6.023   4.433   5.408 -0.2561 -0.2526  0.8650
12971TIP3    H160404   6.099   4.469   5.361 -0.2108 -3.1051 -1.5481
12971TIP3    H260405   5.950   4.488   5.379  0.2764  0.0019 -0.0631
12972TIP3   OH260406   0.014   0.785  15.444 -0.6978  0.4846 -0.0580
12972TIP3    H160407  -0.001   0.712  15.384  1.3565  0.2648 -0.3792
12972TIP3    H260408  -0.014   0.753  15.529 -0.1305 -0.5881 -0.2538
12973TIP3   OH260409   3.125   1.434  14.745  0.2326  0.0658  0.0431
12973TIP3    H160410   3.045   1.433  14.691 -0.3167 -0.7530  0.8483
12973TIP3    H260411   3.172   1.355  14.718  0.4634  0.2150  0.0138
12974TIP3   OH260412   2.838   5.025  14.303  0.0418  0.2557  0.1358
12974TIP3    H160413   2.886   5.035  14.385  0.4050 -0.9871  0.1029
12974TIP3    H260414   2.905   4.994  14.241 -0.9391 -2.5058  0.3336
12975TIP3   OH260415   6.336   0.852   3.314 -0.1542 -0.2472 -0.3327
12975TIP3    H160416   6.400   0.782   3.328  0.0777  0.4683  2.7454
12975TIP3    H260417   6.262   0.829   3.369 -0.0298  1.9292  0.8451
12976TIP3   OH260418   3.049   0.296  14.360  0.1318 -0.5190  0.1156
12976TIP3    H160419   3.009   0.366  14.309  2.5809  1.3783  0.6374
12976TIP3    H260420   2.975   0.241  14.387 -1.8884  1.8234 -0.3559
12977TIP3   OH260421   1.201   1.825  16.447 -0.0358 -0.0828  0.2982
12977TIP3    H160422   1.107   1.841  16.442 -0.1240 -0.4061  0.8059
12977TIP3    H260423   1.213   1.740  16.404 -0.0596 -0.3129  0.7385
12978TIP3   OH260424   6.456   4.651  12.026 -0.4089  0.3244 -0.4317
12978TIP3    H160425   6.399   4.595  12.079  1.3431 -0.6461  0.5161
12978TIP3    H260426   6.486   4.595  11.955 -0.7061  0.8495 -0.9752
12979TIP3   OH260427   6.294   5.007   5.883  0.4136  0.2144 -0.6250
12979TIP3    H160428   6.360   5.054   5.935 -1.6582  2.5889  0.0487
12979TIP3    H260429   6.285   4.922   5.927  2.4997  0.0711 -0.3696
12980TIP3   OH260430   0.362   4.262   3.683  0.2372  0.2970 -0.4416
12980TIP3    H160431   0.305   4.185   3.678  1.0706 -0.3382 -0.4105
12980TIP3    H260432   0.313   4.331   3.638 -0.3477 -0.3630 -0.8449
12981TIP3   OH260433   3.725   6.727   4.793  0.0261 -0.0361  0.2523
12981TIP3    H160434   3.806   6.726   4.742 -0.0703 -0.7760  0.1086
12981TIP3    H260435   3.691   6.817   4.782 -0.2132 -0.2828 -1.3359
12982TIP3   OH260436   1.899   4.371   3.072 -0.3331  0.0212  0.7580
12982TIP3    H160437   1.815   4.324   3.074  0.6159 -1.9031 -1.2652
12982TIP3    H260438   1.961   4.311   3.114  0.1947  1.2018  1.7422
12983TIP3   OH260439   3.526   6.023   0.895 -0.0470  0.9325  0.3243
12983TIP3    H160440   3.503   5.980   0.978  2.0596 -0.2393  0.3494
12983TIP3    H260441   3.604   6.074   0.915  0.3564  0.8162 -0.8945
12984TIP3   OH260442   5.482   6.642   0.984 -0.3377 -0.0208  0.2925
12984TIP3    H160443   5.560   6.630   1.038  0.9727 -0.5136 -1.6199
12984TIP3    H260444   5.469   6.558   0.941  0.4051  1.0888 -2.3041
12985TIP3   OH260445   3.297   0.754   1.891  0.0421 -0.1532  0.5611
12985TIP3    H160446   3.216   0.729   1.934 -2.4261  1.0681 -2.9255
12985TIP3    H260447   3.297   0.850   1.892  0.3956 -0.1005 -1.1439
12986TIP3   OH260448   2.330   6.374  13.512 -0.5159 -0.5637 -0.5187
12986TIP3    H160449   2.329   6.450  13.454 -1.8831 -0.6718 -0.6692
12986TIP3    H260450   2.321   6.299  13.453  0.2089 -0.8122 -0.3231
12987TIP3   OH260451   0.894   5.426  15.141 -0.2029  0.2493 -0.2375
12987TIP3    H160452   0.910   5.490  15.072 -1.1314 -0.2560 -0.9331
12987TIP3    H260453   0.814   5.457  15.184 -1.4386 -1.1542 -1.4504
12988TIP3   OH260454   0.006   0.512  11.473  0.2302 -0.1330  0.4945
12988TIP3    H160455  -0.063   0.467  11.424  0.0900  1.0945 -0.5133
12988TIP3    H260456   0.066   0.545  11.406 -0.0896  1.8112  1.0833
12989TIP3   OH260457   3.962   0.031   2.373  0.0168  0.7378 -0.2594
12989TIP3    H160458   3.935   0.110   2.326 -1.8349  1.2092  1.4275
12989TIP3    H260459   4.034   0.060   2.429  1.3179  0.4856 -1.7295
12990TIP3   OH260460   3.602   4.788  12.436  0.0689 -0.4379 -0.2017
12990TIP3    H160461   3.589   4.745  12.521  0.0886 -0.5050 -0.2332
12990TIP3    H260462   3.679   4.745  12.399  1.4597  1.1263  0.7330
12991TIP3   OH260463   5.794   6.427  16.385 -0.0212 -0.5086  0.2672
12991TIP3    H160464   5.747   6.356  16.431 -0.1681 -1.7572 -1.6980
12991TIP3    H260465   5.823   6.485  16.455 -1.0358 -1.8210  1.8655
12992TIP3   OH260466   5.499   4.701   0.033  0.0930 -0.6525 -0.3094
12992TIP3    H160467   5.521   4.689   0.126  0.2911 -1.3292 -0.4379
12992TIP3    H260468   5.439   4.629   0.014 -0.6858  0.0316 -0.4726
12993TIP3   OH260469   3.689   4.262  14.462  0.1141 -0.4661  0.0132
12993TIP3    H160470   3.675   4.222  14.548 -1.0534  0.7217  0.4035
12993TIP3    H260471   3.613   4.235  14.410 -0.7335  1.2116  0.3045
12994TIP3   OH260472   6.275   1.713  14.300  0.6546  0.1597  0.2181
12994TIP3    H160473   6.277   1.787  14.239 -0.6366 -0.1667 -0.2566
12994TIP3    H260474   6.365   1.703  14.329  0.7997  2.2099  0.6258
12995TIP3   OH260475   5.634   6.779  11.218  0.1102 -0.1704  0.6370
12995TIP3    H160476   5.675   6.693  11.215 -0.1338 -0.4861  3.5989
12995TIP3    H260477   5.708   6.840  11.217  0.3167 -0.4168 -0.5695
12996TIP3   OH260478   4.668   6.645   5.256 -0.2574 -0.1532  0.2704
12996TIP3    H160479   4.760   6.671   5.256 -0.4735  1.2198 -3.2531
12996TIP3    H260480   4.668   6.554   5.227 -0.0085  0.0300 -0.3158
12997TIP3   OH260481   5.390   1.766  11.432  0.6625  0.0930  0.2668
12997TIP3    H160482   5.391   1.860  11.453 -1.4461  0.5110 -1.1779
12997TIP3    H260483   5.362   1.724  11.513  0.3193  0.8506  0.5509
12998TIP3   OH260484   2.752   1.878  16.170  0.2215  0.7629 -0.3843
12998TIP3    H160485   2.668   1.902  16.129 -0.2975  2.1151  1.3435
12998TIP3    H260486   2.794   1.962  16.189  1.3828  0.1262 -0.0325
12999TIP3   OH260487   0.257   2.030  15.807  0.4026  0.2712  0.0808
12999TIP3    H160488   0.180   2.085  15.801 -0.1318 -0.6136 -1.7498
12999TIP3    H260489   0.234   1.950  15.759  1.9467 -0.6225  0.7286
13000TIP3   OH260490   6.465   4.229  13.554  0.1231 -0.3956 -0.2086
13000TIP3    H160491   6.536   4.293  13.550  0.5826 -0.7122  1.9172
13000TIP3    H260492   6.508   4.144  13.549 -0.3491 -0.5886 -1.3482
13001TIP3   OH260493   4.310   3.240   0.901 -0.2335  0.0789 -0.2931
13001TIP3    H160494   4.401   3.271   0.896  0.0488 -0.5080  0.9727
13001TIP3    H260495   4.311   3.158   0.852  0.0531 -0.2127  0.1944
13002TIP3   OH260496   1.972   1.306  11.148 -0.2230  0.4461  0.1514
13002TIP3    H160497   2.024   1.331  11.072 -0.0732  2.2102  0.7929
13002TIP3    H260498   1.882   1.327  11.124 -0.0692  1.9609  0.7849
13003TIP3   OH260499   4.805   0.588  15.905  0.4892 -0.5810 -0.2047
13003TIP3    H160500   4.900   0.599  15.895  0.3845 -0.2096 -0.7761
13003TIP3    H260501   4.792   0.586  16.000  1.2977 -2.6730 -0.0711
13004TIP3   OH260502   6.804   1.760   4.419 -0.2751 -0.0201 -0.7088
13004TIP3    H160503   6.878   1.707   4.389 -0.8854 -0.3193 -1.7388
13004TIP3    H260504   6.734   1.741   4.357 -1.5728 -0.5591  0.8297
13005TIP3   OH260505   6.284   4.621   2.131  0.3587  0.0111 -0.2360
13005TIP3    H160506   6.321   4.534   2.138  1.5328  0.4905 -0.2431
13005TIP3    H260507   6.194   4.607   2.101  0.4471 -1.1973  0.0366
13006TIP3   OH260508   1.108   6.399  12.579  0.2440 -0.2800  0.7366
13006TIP3    H160509   1.180   6.448  12.618  0.3929 -0.5044  0.7446
13006TIP3    H260510   1.125   6.403  12.485 -0.1462  0.3102  0.6853
13007TIP3   OH260511   4.388   5.681   5.040  0.2690 -0.4071  0.5668
13007TIP3    H160512   4.434   5.599   5.027  1.2887 -0.2282  2.5424
13007TIP3    H260513   4.427   5.741   4.977 -0.6280 -1.4557 -1.0277
13008TIP3   OH260514   6.732   1.361   6.519 -0.3403  0.4188  0.1755
13008TIP3    H160515   6.820   1.340   6.489 -0.4552  0.5535 -0.2680
13008TIP3    H260516   6.713   1.446   6.480 -0.7199  0.3234  0.1499
13009TIP3   OH260517   5.669   0.373   0.139 -0.0681  0.3030 -0.0033
13009TIP3    H160518   5.618   0.389   0.218  1.6654  0.3403  1.1638
13009TIP3    H260519   5.759   0.397   0.163  0.7285 -0.8910 -1.5784
13010TIP3   OH260520   2.405   5.606  14.304  0.0712 -0.1843  0.1911
13010TIP3    H160521   2.462   5.674  14.340  0.5832 -1.6234  2.2896
13010TIP3    H260522   2.441   5.524  14.338 -1.4546 -1.3872 -0.9575
13011TIP3   OH260523   3.197   3.725   1.005  0.4517  0.5737 -0.3778
13011TIP3    H160524   3.277   3.775   1.020  1.7372 -1.0310 -1.4713
13011TIP3    H260525   3.224   3.634   1.015 -1.1631 -0.0339 -1.1823
13012TIP3   OH260526   4.771   6.345   2.495  0.5045 -0.0030  0.1181
13012TIP3    H160527   4.707   6.381   2.433  1.6296 -1.3545 -1.9419
13012TIP3    H260528   4.793   6.259   2.460  1.1302 -0.9000  2.5064
13013TIP3   OH260529   3.902   2.390  16.325 -0.4997 -0.0420 -0.3296
13013TIP3    H160530   3.946   2.413  16.243 -0.9397 -0.8405 -0.8089
13013TIP3    H260531   3.809   2.397  16.304 -0.6213 -1.0003 -0.1307
13014TIP3   OH260532   6.659   1.042   5.924 -0.0729  0.4806 -0.1382
13014TIP3    H160533   6.579   1.004   5.959 -0.4141  0.2666 -1.1259
13014TIP3    H260534   6.644   1.136   5.925 -0.7820  0.4039 -1.3014
13015TIP3   OH260535   5.033   5.774   2.665  0.0619 -0.0206  0.3558
13015TIP3    H160536   4.990   5.689   2.654  0.8636 -0.8958  3.1320
13015TIP3    H260537   5.105   5.772   2.602 -0.4968 -0.9958 -0.2789
13016TIP3   OH260538   6.305   0.577  13.598 -0.7403 -0.4417 -0.3577
13016TIP3    H160539   6.343   0.663  13.618 -1.3672  0.0296 -1.1450
13016TIP3    H260540   6.342   0.553  13.514 -1.3288 -0.4824 -0.6100
13017TIP3   OH260541   4.287   3.564   3.403  0.0252  0.4492 -0.3887
13017TIP3    H160542   4.342   3.486   3.401 -0.8021 -0.2800  1.9686
13017TIP3    H260543   4.243   3.565   3.318 -1.5484 -2.9020  0.2492
13018TIP3   OH260544   4.257   0.723  12.273  0.6064  0.1957  0.1355
13018TIP3    H160545   4.326   0.656  12.273 -0.2820 -0.7825  1.5832
13018TIP3    H260546   4.176   0.674  12.286 -0.3484  1.3716 -1.1075
13019TIP3   OH260547   3.476   1.758   3.768  0.4762 -0.0957 -0.7125
13019TIP3    H160548   3.428   1.677   3.749  0.6727 -0.5655  0.6852
13019TIP3    H260549   3.560   1.747   3.723  0.4602 -0.6237 -0.6191
13020TIP3   OH260550   3.958   6.213  10.411  0.0003 -0.0163 -0.1434
13020TIP3    H160551   3.891   6.186  10.475  0.4041 -0.7287 -0.0129
13020TIP3    H260552   4.022   6.142  10.412  1.1161  0.9764  0.2295
13021TIP3   OH260553   6.067   3.856   1.677 -0.2759 -0.0824 -0.3655
13021TIP3    H160554   6.119   3.915   1.622 -0.3195 -1.7169 -2.2757
13021TIP3    H260555   6.028   3.794   1.615 -1.6361 -1.0572  1.3805
13022TIP3   OH260556   3.265   0.741   0.278 -0.5288  0.4848  0.1760
13022TIP3    H160557   3.260   0.772   0.368  2.7819  0.9710  0.2907
13022TIP3    H260558   3.269   0.646   0.285 -0.0658  0.5332  0.5575
13023TIP3   OH260559   5.638   6.134  14.904  0.2329 -0.3787 -0.1464
13023TIP3    H160560   5.687   6.205  14.863  0.6345 -0.5572  0.0118
13023TIP3    H260561   5.671   6.132  14.994 -2.3736  1.6217  0.9698
13024TIP3   OH260562   5.847   3.591   5.722  0.2456  0.2072  0.4371
13024TIP3    H160563   5.866   3.643   5.644  0.1329  0.2946  0.4675
13024TIP3    H260564   5.812   3.654   5.784 -0.6350 -0.0338  0.2021
13025TIP3   OH260565   4.316   2.086   4.097  0.0694  0.9881 -0.2187
13025TIP3    H160566   4.296   2.077   4.004  1.0085  1.5374 -0.4818
13025TIP3    H260567   4.367   2.008   4.118 -0.6085  0.5867 -0.0201
13026TIP3   OH260568   6.622   5.964   3.581 -0.4190 -0.1293  0.2920
13026TIP3    H160569   6.539   5.979   3.625 -0.4250 -1.6238  0.8677
13026TIP3    H260570   6.688   5.967   3.651 -0.2867 -1.2731  0.2501
13027TIP3   OH260571   3.123   4.608  11.347 -0.0158 -0.2876 -0.0966
13027TIP3    H160572   3.211   4.641  11.330 -0.0858  0.5776  1.1217
13027TIP3    H260573   3.108   4.544  11.277  1.5759 -0.4608 -0.3160
13028TIP3   OH260574   0.842   0.062   4.338  0.2846 -0.3359  0.2000
13028TIP3    H160575   0.802   0.056   4.251 -0.4343  0.4414  0.4678
13028TIP3    H260576   0.908  -0.007   4.338  0.9744  0.2596 -1.3158
13029TIP3   OH260577   5.609   3.292   1.521 -0.6403  0.1111 -0.1660
13029TIP3    H160578   5.649   3.296   1.608 -1.3327 -1.8126  0.2860
13029TIP3    H260579   5.519   3.320   1.535 -1.0810 -1.3135 -0.0025
13030TIP3   OH260580   0.827   2.141  16.200 -0.1088  0.0431 -0.1613
13030TIP3    H160581   0.747   2.181  16.235  0.0170  1.0734 -1.0006
13030TIP3    H260582   0.798   2.059  16.161 -0.5883 -0.0805  0.4364
13031TIP3   OH260583   1.964   5.837   4.961 -0.0144 -0.3482  0.1284
13031TIP3    H160584   1.893   5.892   4.927  0.8791  0.4668 -0.4555
13031TIP3    H260585   1.920   5.778   5.023 -1.3262 -0.4006 -0.8013
13032TIP3   OH260586   3.999   3.615   0.432  0.2121  0.3101  0.2781
13032TIP3    H160587   3.940   3.547   0.399  0.7430  0.5208 -1.1861
13032TIP3    H260588   4.041   3.576   0.508 -3.3437  0.8723  2.7994
13033TIP3   OH260589   3.021   0.011  12.811  0.4865 -0.2031 -0.6290
13033TIP3    H160590   3.038  -0.037  12.892  0.2566 -0.1922 -0.5748
13033TIP3    H260591   3.108   0.038  12.781  0.5803 -0.2843 -0.4348
13034TIP3   OH260592   4.580   2.265   0.913 -0.4015  0.7472 -0.2000
13034TIP3    H160593   4.666   2.305   0.923 -1.0038  2.0936 -0.2880
13034TIP3    H260594   4.544   2.304   0.834 -0.8855 -0.2406 -0.4915
13035TIP3   OH260595   2.829   6.064   4.841 -0.1105 -0.4859 -0.5961
13035TIP3    H160596   2.855   5.995   4.780 -0.3961 -0.1222 -1.1307
13035TIP3    H260597   2.760   6.024   4.894 -1.8852  0.0541 -2.3663
13036TIP3   OH260598   5.044   3.601   0.042 -0.7196  0.1085 -0.1809
13036TIP3    H160599   5.057   3.691   0.010  3.2755 -0.0263  0.5161
13036TIP3    H260600   5.032   3.549  -0.037 -0.2285  0.9091 -0.8033
13037TIP3   OH260601   6.274   5.543   4.977 -0.5461 -0.4429  0.1796
13037TIP3    H160602   6.350   5.511   5.026 -0.8639 -1.3612  0.0856
13037TIP3    H260603   6.258   5.630   5.013  3.0416  1.6309 -2.5418
13038TIP3   OH260604   0.307   3.017  13.837 -0.2889 -0.3450  0.1056
13038TIP3    H160605   0.250   3.010  13.761 -0.0349 -2.0650  0.0407
13038TIP3    H260606   0.392   3.044  13.801 -0.7913  1.4046  0.1145
13039TIP3   OH260607   1.048   0.545   0.833  0.0285  0.0994 -0.7339
13039TIP3    H160608   1.052   0.640   0.840 -1.5736  0.0870  2.9387
13039TIP3    H260609   1.113   0.522   0.767  2.4977  3.5461  0.2346
13040TIP3   OH260610   2.856   1.108  14.618 -0.1581  0.1184 -0.0069
13040TIP3    H160611   2.880   1.102  14.525  0.6936 -0.0527  0.2152
13040TIP3    H260612   2.900   1.033  14.658  1.8270  1.7450  1.0224
13041TIP3   OH260613   2.301   0.302   4.917  0.3103 -0.0302  0.6023
13041TIP3    H160614   2.363   0.256   4.973  0.6040  0.8431  1.0259
13041TIP3    H260615   2.336   0.391   4.911  0.0280  0.0182 -0.5960
13042TIP3   OH260616   1.149   4.529  16.238  0.1543 -0.1764  0.0308
13042TIP3    H160617   1.130   4.623  16.235 -0.9453 -0.3373  1.1361
13042TIP3    H260618   1.168   4.511  16.330  2.9456 -0.5987 -0.5396
13043TIP3   OH260619   0.599   6.116   1.774  0.1733 -0.0308 -0.6408
13043TIP3    H160620   0.614   6.022   1.783  0.6617  0.1359  0.5248
13043TIP3    H260621   0.679   6.156   1.809 -0.0515  0.8235 -1.0754
13044TIP3   OH260622   3.483   3.916   2.349  0.5492  0.5157  0.1649
13044TIP3    H160623   3.415   3.854   2.321  0.7864  1.0861 -1.8020
13044TIP3    H260624   3.456   4.000   2.312  0.6575  1.4692  2.1167
13045TIP3   OH260625   2.845   4.870   0.750  0.0121  0.2447 -0.4999
13045TIP3    H160626   2.771   4.912   0.708 -0.8578 -0.7461 -0.0069
13045TIP3    H260627   2.825   4.776   0.745  1.2735 -0.0447 -0.4386
13046TIP3   OH260628   2.993   1.150  14.378 -0.5353  0.3662  0.1309
13046TIP3    H160629   3.025   1.062  14.358  0.2630  0.7730 -0.4341
13046TIP3    H260630   2.922   1.164  14.316  0.1839  0.6067 -0.6465
13047TIP3   OH260631   1.660   3.018   2.111 -0.3606  0.0147  0.3990
13047TIP3    H160632   1.719   2.947   2.135 -1.1524 -0.8748 -0.1787
13047TIP3    H260633   1.683   3.039   2.020 -0.8499 -0.2526  0.2124
13048TIP3   OH260634   3.734   2.466   0.207  0.2508  0.3755  0.2507
13048TIP3    H160635   3.654   2.422   0.177  1.3629 -0.5545 -1.4537
13048TIP3    H260636   3.743   2.541   0.149  0.6597  0.4366  0.3943
13049TIP3   OH260637   3.842   3.508  13.112 -0.3872 -0.7220 -0.0596
13049TIP3    H160638   3.786   3.523  13.188 -1.3303  1.5176 -1.1020
13049TIP3    H260639   3.792   3.449  13.055 -1.9117  1.4383 -1.0864
13050TIP3   OH260640   5.262   1.444  12.078 -0.0545  0.4017 -0.1806
13050TIP3    H160641   5.245   1.354  12.105 -1.3130  0.7149  0.1217
13050TIP3    H260642   5.353   1.459  12.103 -0.1779 -0.4058  0.8622
13051TIP3   OH260643   3.228   1.730  12.114  0.2703 -0.1884 -0.3014
13051TIP3    H160644   3.212   1.647  12.160  1.9388  1.2416  3.2660
13051TIP3    H260645   3.143   1.754  12.077 -2.0427 -0.4503  4.1478
13052TIP3   OH260646   5.258   0.669   1.686  0.3355 -0.0936  0.3102
13052TIP3    H160647   5.200   0.615   1.740 -2.0134 -0.4545 -2.3565
13052TIP3    H260648   5.330   0.611   1.662  0.6515 -0.3523  1.8132
13053TIP3   OH260649   5.131   2.814   3.344 -0.1549 -0.1406 -0.0600
13053TIP3    H160650   5.218   2.851   3.358  1.6540 -2.0772 -4.5238
13053TIP3    H260651   5.115   2.760   3.422  2.7345  0.1308  0.8215
13054TIP3   OH260652   4.392   2.066  12.557 -0.0458 -0.1430 -0.4134
13054TIP3    H160653   4.384   2.159  12.579  0.5133 -0.1606 -0.1071
13054TIP3    H260654   4.309   2.028  12.583  0.4833 -0.1069  1.4415
13055TIP3   OH260655   1.855   5.156  12.474  0.0499  0.2199  0.0490
13055TIP3    H160656   1.922   5.112  12.422  0.5193 -0.6354  1.3359
13055TIP3    H260657   1.888   5.244  12.487  0.6077 -0.0006  0.1245
13056TIP3   OH260658   2.405   5.345  15.649  0.0779 -0.4292 -0.4867
13056TIP3    H160659   2.404   5.367  15.556 -0.8546 -1.1137 -0.6607
13056TIP3    H260660   2.421   5.250  15.651  2.4654 -0.0816  0.1677
13057TIP3   OH260661   2.966   1.240   4.736  0.3475 -0.1475 -0.7128
13057TIP3    H160662   2.921   1.268   4.815 -0.0975  0.1661 -1.0723
13057TIP3    H260663   3.045   1.294   4.732 -0.1885  0.6159 -1.0662
13058TIP3   OH260664   3.522   0.983  16.064 -0.0085  0.0375  0.0299
13058TIP3    H160665   3.484   1.066  16.037  2.5656  0.4783 -2.8024
13058TIP3    H260666   3.464   0.916  16.027  0.5265  0.6699 -2.0984
13059TIP3   OH260667   5.586   5.551   5.096  0.3921  0.5005  0.2182
13059TIP3    H160668   5.517   5.515   5.041 -1.5847  1.3608  2.0019
13059TIP3    H260669   5.628   5.617   5.042 -1.4035  1.2511 -0.3336
13060TIP3   OH260670   0.432   1.601   1.587 -0.5758  0.2408 -0.1764
13060TIP3    H160671   0.388   1.517   1.582 -1.1705  0.4614  1.1604
13060TIP3    H260672   0.520   1.584   1.553 -0.9285 -0.7364 -0.6242
13061TIP3   OH260673   0.411   4.223   1.712 -0.1231 -0.2448 -0.0194
13061TIP3    H160674   0.340   4.225   1.776 -1.3851  0.4574 -1.3666
13061TIP3    H260675   0.378   4.165   1.643  0.6333  0.0540 -0.6399
13062TIP3   OH260676   4.688   5.185  14.289  0.6584 -0.2674  0.2517
13062TIP3    H160677   4.601   5.222  14.273  1.4751  1.8371  0.4129
13062TIP3    H260678   4.731   5.186  14.204  0.4078 -1.7334  0.0829
13063TIP3   OH260679   3.203   3.641   3.743  0.6047 -0.5597 -0.0973
13063TIP3    H160680   3.179   3.607   3.830 -1.6278  0.2268 -0.3384
13063TIP3    H260681   3.136   3.606   3.685 -0.6370  2.5108 -0.7030
13064TIP3   OH260682   3.662   0.930  11.174  0.2130 -0.2849  0.0325
13064TIP3    H160683   3.633   1.021  11.165  1.5378  0.2444  0.9182
13064TIP3    H260684   3.605   0.894  11.243 -0.1946 -0.0863 -0.1955
13065TIP3   OH260685   0.103   0.249   6.086 -0.3199  0.4494  0.2080
13065TIP3    H160686   0.153   0.206   6.018  0.5664  0.2901  0.9469
13065TIP3    H260687   0.109   0.191   6.162 -1.5234  0.4848  0.3603
13066TIP3   OH260688   5.330   5.396   1.333  0.2241  0.0633 -0.4034
13066TIP3    H160689   5.312   5.326   1.271  0.6817  1.1569 -1.8107
13066TIP3    H260690   5.244   5.437   1.350 -0.2936 -1.6352  1.5114
13067TIP3   OH260691   4.895   0.357  13.042  0.2695 -0.4489 -0.1123
13067TIP3    H160692   4.933   0.274  13.012 -1.6054 -0.9086 -1.3813
13067TIP3    H260693   4.840   0.332  13.117  1.4760  0.0431  0.9869
13068TIP3   OH260694   1.802   4.973   4.563  0.4120 -0.0635 -0.0830
13068TIP3    H160695   1.867   5.005   4.626 -0.6392  0.6363  0.6785
13068TIP3    H260696   1.736   5.042   4.560 -0.8010 -1.1978 -0.0786
13069TIP3   OH260697   1.509   1.145   0.763  0.5372 -0.1506  0.6545
13069TIP3    H160698   1.466   1.189   0.689  0.9339  0.3614  0.7266
13069TIP3    H260699   1.472   1.057   0.762 -1.9170  0.7794  1.8297
13070TIP3   OH260700   2.766   4.728  15.294  0.0214  0.4906 -0.3084
13070TIP3    H160701   2.860   4.725  15.276  0.0306  2.6719 -0.9487
13070TIP3    H260702   2.760   4.757  15.385 -0.0537 -0.5193  0.0206
13071TIP3   OH260703   0.848   1.486   1.816  0.2523  0.1542 -0.1183
13071TIP3    H160704   0.898   1.522   1.889 -1.7898  0.3811  1.2705
13071TIP3    H260705   0.830   1.561   1.760 -0.1804  0.4482  0.4082
13072TIP3   OH260706   0.584   2.517  16.114 -0.5000  0.1277  0.2779
13072TIP3    H160707   0.583   2.445  16.176  0.4138 -0.5056 -0.4119
13072TIP3    H260708   0.545   2.591  16.162  2.0292  0.2597  2.3256
13073TIP3   OH260709   5.917   2.681   0.412 -0.1641  0.3026 -0.2759
13073TIP3    H160710   5.978   2.726   0.470  0.4756  1.2604 -1.6227
13073TIP3    H260711   5.832   2.719   0.433  0.1348  1.0106 -0.3039
13074TIP3   OH260712   4.094   0.507  14.502  0.0101 -0.2831 -0.3271
13074TIP3    H160713   4.050   0.524  14.418 -1.0823  1.5753  0.5571
13074TIP3    H260714   4.148   0.584  14.517 -2.3890  1.0779  2.2041
13075TIP3   OH260715   2.829   1.467   4.534 -0.0188  0.6127 -0.1359
13075TIP3    H160716   2.865   1.401   4.593 -0.9168  1.1304  1.0267
13075TIP3    H260717   2.736   1.446   4.529  0.2754 -0.4176 -2.7221
13076TIP3   OH260718   2.125   5.848   3.947 -0.4780 -0.0854 -0.0316
13076TIP3    H160719   2.144   5.937   3.974  1.7032 -0.5235  0.0716
13076TIP3    H260720   2.158   5.794   4.019 -1.4937 -0.9920 -0.2215
13077TIP3   OH260721   6.347   0.543   3.131 -0.0701  0.2673  0.0795
13077TIP3    H160722   6.337   0.626   3.084 -0.3239 -0.5994 -1.4564
13077TIP3    H260723   6.397   0.566   3.209 -2.1890  2.3162  0.9825
13078TIP3   OH260724   0.598   3.178   0.798  0.1550 -0.6655 -0.1458
13078TIP3    H160725   0.568   3.090   0.777  1.5023 -1.1020 -0.3624
13078TIP3    H260726   0.563   3.233   0.729  0.5851 -1.3090 -0.8920
13079TIP3   OH260727   0.010   3.501   0.698  0.2057  0.0723 -0.0565
13079TIP3    H160728  -0.068   3.504   0.754 -0.3515 -1.8178 -0.6284
13079TIP3    H260729  -0.025   3.497   0.609  0.9751 -0.1923 -0.3544
13080TIP3   OH260730   5.427   5.192   3.372 -0.5453  0.3947  0.6230
13080TIP3    H160731   5.413   5.278   3.331 -2.3730  0.1349  0.6229
13080TIP3    H260732   5.434   5.132   3.299  0.2753  0.4694  0.6332
13081TIP3   OH260733   5.102   2.835  16.111 -0.0645 -0.1262  0.2543
13081TIP3    H160734   5.117   2.743  16.089 -1.1767  0.0339 -1.3751
13081TIP3    H260735   5.073   2.834  16.202 -1.5587 -1.5631 -0.1882
13082TIP3   OH260736   3.589   0.496   5.647  0.5899  0.6178 -0.1820
13082TIP3    H160737   3.534   0.440   5.593 -0.2046  0.8817  0.3445
13082TIP3    H260738   3.549   0.493   5.734  0.9618  1.4180  0.0275
13083TIP3   OH260739   4.039   5.971  11.363  0.5520 -0.1946 -0.1757
13083TIP3    H160740   3.995   5.982  11.447  0.0386 -2.0179 -0.1519
13083TIP3    H260741   3.969   5.979  11.298  0.4345 -1.4885 -0.2359
13084TIP3   OH260742   0.007   4.020  16.014  0.3926 -0.9986 -0.2643
13084TIP3    H160743   0.099   3.996  16.017  1.0420  1.3085  0.8835
13084TIP3    H260744  -0.027   3.993  16.100  1.1241  1.7746  1.0289
13085TIP3   OH260745   5.505   3.264   5.590 -0.3924 -0.2273  0.7054
13085TIP3    H160746   5.424   3.221   5.618  0.1135 -1.0298  0.9542
13085TIP3    H260747   5.557   3.270   5.670 -0.5580  1.1004  0.7357
13086TIP3   OH260748   0.158   0.421  13.407 -0.4519  0.5566  0.1845
13086TIP3    H160749   0.098   0.352  13.435  0.4272 -0.2089  0.2516
13086TIP3    H260750   0.214   0.378  13.342 -0.4255  1.4460 -0.3968
13087TIP3   OH260751   3.085   0.913  14.287  0.5722 -0.3224  0.2500
13087TIP3    H160752   3.163   0.936  14.236  0.9022  1.3151  1.3737
13087TIP3    H260753   3.101   0.824  14.317  3.6945  0.9462  3.1413
13088TIP3   OH260754   6.449   1.078  14.293  0.5865 -0.2193  0.0398
13088TIP3    H160755   6.357   1.065  14.315  0.3198 -0.7566 -1.3168
13088TIP3    H260756   6.451   1.164  14.250  0.6672 -0.3601 -0.2356
13089TIP3   OH260757   2.251   4.960  11.862  0.1598  0.2846 -0.3973
13089TIP3    H160758   2.340   4.932  11.885 -0.3573 -1.7730 -0.7118
13089TIP3    H260759   2.263   5.045  11.820  2.0548 -0.1980 -0.9386
13090TIP3   OH260760   6.384   5.509  12.250  0.1187 -0.1556 -0.1379
13090TIP3    H160761   6.316   5.461  12.203 -0.0869  1.2437 -1.3588
13090TIP3    H260762   6.457   5.514  12.189  0.8169 -0.4919  0.6604
13091TIP3   OH260763   1.863   3.502  14.599 -0.0776 -0.3192 -0.9334
13091TIP3    H160764   1.828   3.590  14.616  0.5255 -0.1587 -0.4809
13091TIP3    H260765   1.787   3.450  14.573 -0.3503  0.4968 -1.8410
13092TIP3   OH260766   6.451   1.342  11.783  0.3616  0.5299 -0.2812
13092TIP3    H160767   6.501   1.389  11.850  1.0306 -1.9787  1.0746
13092TIP3    H260768   6.477   1.384  11.701  0.5707  2.7726  0.8358
13093TIP3   OH260769   6.276   2.558   2.024  0.1010 -0.3290 -0.5957
13093TIP3    H160770   6.331   2.633   2.001  0.4254 -0.8236 -1.5097
13093TIP3    H260771   6.274   2.558   2.119 -0.4925  1.2492 -0.5767
13094TIP3   OH260772   0.395   0.748  12.538 -0.5581 -0.4319  0.2441
13094TIP3    H160773   0.422   0.711  12.454  1.2149  0.5118  0.3571
13094TIP3    H260774   0.299   0.747  12.535 -0.5580  0.3363 -2.1243
13095TIP3   OH260775   2.892   0.185  13.188  0.7465 -0.5802  0.2057
13095TIP3    H160776   2.978   0.181  13.145  0.2393 -0.3286 -0.8763
13095TIP3    H260777   2.897   0.121  13.259  1.2361 -1.8788 -0.9596
13096TIP3   OH260778   0.724   0.436  14.632 -0.1200 -0.3507 -0.3566
13096TIP3    H160779   0.779   0.488  14.574 -0.2883  0.6891  0.4043
13096TIP3    H260780   0.651   0.494  14.654  1.0345  0.1164  2.6568
13097TIP3   OH260781   1.491   2.930  15.927  0.5420  0.0026 -0.4623
13097TIP3    H160782   1.536   2.917  16.010  0.2847 -0.3462 -0.3752
13097TIP3    H260783   1.480   2.842  15.892 -0.0455  0.0848 -0.4947
13098TIP3   OH260784   2.608   3.629  10.956 -0.1355 -0.0553 -0.5092
13098TIP3    H160785   2.694   3.670  10.960  0.0375 -0.1978 -2.0980
13098TIP3    H260786   2.560   3.680  10.891 -1.0908 -0.2830  0.0008
13099TIP3   OH260787   4.137   3.050  14.120 -0.0459  0.7085 -0.0464
13099TIP3    H160788   4.115   3.063  14.213  0.0042  0.2999  0.0242
13099TIP3    H260789   4.094   3.123  14.075 -3.0854 -0.9638 -0.1509
13100TIP3   OH260790   5.916   3.863  14.737 -0.3853  0.1875 -0.5761
13100TIP3    H160791   5.853   3.933  14.750 -0.1725  0.5813 -1.5280
13100TIP3    H260792   6.000   3.908  14.726 -0.2761 -0.1860 -1.3868
13101TIP3   OH260793   1.085   3.974   2.590 -0.3654 -0.3262 -0.4311
13101TIP3    H160794   1.029   3.923   2.647 -1.5577  1.2670 -0.1007
13101TIP3    H260795   1.158   3.916   2.570 -2.4694 -2.8180 -1.5385
13102TIP3   OH260796   5.320   5.146   1.507 -0.5277  0.0430  0.4407
13102TIP3    H160797   5.239   5.094   1.503 -1.3769  1.3645 -0.4237
13102TIP3    H260798   5.291   5.235   1.527  0.9964  0.0554  3.0803
13103TIP3   OH260799   2.117   3.831  17.014 -0.1046  0.6210 -0.3608
13103TIP3    H160800   2.061   3.817  17.090 -0.4399 -1.1136 -0.8956
13103TIP3    H260801   2.094   3.761  16.953  0.6201  1.5743 -1.8068
13104TIP3   OH260802   6.597   1.579  16.959 -0.1210  0.2257  0.0714
13104TIP3    H160803   6.522   1.638  16.965  0.5478  1.1487 -0.4215
13104TIP3    H260804   6.565   1.496  16.994 -0.7639  1.1857  1.9206
13105TIP3   OH260805   1.204   6.767   0.830 -0.4508  0.0644  0.0256
13105TIP3    H160806   1.115   6.754   0.799 -0.2415  0.6615 -0.8860
13105TIP3    H260807   1.243   6.828   0.766  0.5163  0.0312  0.5588
13106TIP3   OH260808   4.586   3.451  16.438 -0.0923  0.2021  0.0103
13106TIP3    H160809   4.558   3.476  16.526  0.7708  0.7693  0.1371
13106TIP3    H260810   4.557   3.522  16.382 -0.8840 -0.2888 -0.2230
13107TIP3   OH260811   6.371   4.546   3.391  0.2486 -0.7962 -0.2043
13107TIP3    H160812   6.459   4.568   3.422  0.6665 -1.5966 -0.7800
13107TIP3    H260813   6.355   4.458   3.425 -0.2723 -0.7160 -0.2326
13108TIP3   OH260814   1.404   0.799   0.583  0.4901  0.0951 -0.4685
13108TIP3    H160815   1.468   0.738   0.546 -0.3786 -0.8244 -0.5155
13108TIP3    H260816   1.420   0.797   0.678 -0.9213 -1.9623 -0.1896
13109TIP3   OH260817   0.885   6.749   0.674  0.0396 -0.3147 -0.3886
13109TIP3    H160818   0.829   6.694   0.729  1.4610 -0.9784  0.4587
13109TIP3    H260819   0.928   6.687   0.615 -0.7068  0.2806 -1.5960
13110TIP3   OH260820   2.827   2.219   2.827  0.5786  0.1665 -0.1723
13110TIP3    H160821   2.877   2.148   2.867  1.2641  1.6880  1.8207
13110TIP3    H260822   2.893   2.278   2.791 -0.0031 -0.5504 -2.5871
13111TIP3   OH260823   4.318   0.364  12.447  0.1731  0.7491 -0.6176
13111TIP3    H160824   4.360   0.407  12.373  0.0799  0.5879 -0.7644
13111TIP3    H260825   4.314   0.431  12.515 -0.4242  1.1150 -1.0118
13112TIP3   OH260826   3.824   5.800   1.380 -0.4182  0.2366 -0.1711
13112TIP3    H160827   3.869   5.816   1.463  0.9302  2.4366 -1.2445
13112TIP3    H260828   3.883   5.743   1.331 -0.7599 -0.2571 -0.0193
13113TIP3   OH260829   6.586   6.490   5.144  0.1456  0.2428  0.0754
13113TIP3    H160830   6.631   6.569   5.176  0.9670 -0.1894  0.0362
13113TIP3    H260831   6.497   6.519   5.124  0.8935  1.5679 -1.5867
13114TIP3   OH260832   3.806   3.645   4.276 -0.1540 -0.1412 -0.3125
13114TIP3    H160833   3.814   3.733   4.240  0.5087  0.3600  1.0042
13114TIP3    H260834   3.766   3.594   4.205 -1.0084  1.3088 -0.9197
13115TIP3   OH260835   3.212   3.088   1.567 -0.0495 -0.5063  0.4830
13115TIP3    H160836   3.289   3.042   1.533  0.5071 -0.3882  1.5408
13115TIP3    H260837   3.169   3.123   1.489  0.0977 -1.8892 -0.2652
13116TIP3   OH260838   4.510   6.240  12.380 -0.0877  0.5091 -0.1289
13116TIP3    H160839   4.497   6.330  12.410 -1.3726 -0.0544  1.0874
13116TIP3    H260840   4.423   6.201  12.380  0.6143 -1.2268  1.0228
13117TIP3   OH260841   6.398   4.519  14.317 -0.5835  0.3199  0.5420
13117TIP3    H160842   6.335   4.559  14.256  0.6467  0.7667 -0.4807
13117TIP3    H260843   6.472   4.580  14.318  0.7199 -1.2071  0.0799
13118TIP3   OH260844   4.120   0.496   4.727  0.0589 -0.4792  0.3137
13118TIP3    H160845   4.214   0.501   4.743  0.1432 -1.4245  0.2133
13118TIP3    H260846   4.084   0.575   4.767  0.7028 -0.9604  1.9683
13119TIP3   OH260847   2.865   0.949  12.598  0.0806 -0.0021  0.3211
13119TIP3    H160848   2.873   0.857  12.572  0.1597  0.0465  0.1713
13119TIP3    H260849   2.834   0.994  12.519  1.7087  0.3837 -0.1384
13120TIP3   OH260850   6.671   0.464  12.451  0.5390 -0.0673  0.1259
13120TIP3    H160851   6.645   0.543  12.500  0.1771  2.2165 -3.3791
13120TIP3    H260852   6.593   0.439  12.402  1.4986 -0.7323 -1.1277
13121TIP3   OH260853   1.289   6.877   2.233 -0.3267 -0.4322 -0.0753
13121TIP3    H160854   1.311   6.810   2.298  1.4327 -0.5136 -0.7189
13121TIP3    H260855   1.290   6.831   2.149  2.2000  0.5947 -0.6808
13122TIP3   OH260856   3.551   4.529  11.498 -0.0799 -0.4924 -0.1164
13122TIP3    H160857   3.494   4.596  11.459  0.0838  0.0830  0.6247
13122TIP3    H260858   3.631   4.576  11.520  0.1506 -1.0025  0.1357
13123TIP3   OH260859   1.040   3.439   4.518  0.4865 -0.1096 -0.1614
13123TIP3    H160860   1.028   3.491   4.597 -1.2040  0.1025 -0.5328
13123TIP3    H260861   1.134   3.443   4.502  0.3744  3.8348 -0.8498
13124TIP3   OH260862   0.425   4.674   2.536  0.0824 -0.3821 -0.0915
13124TIP3    H160863   0.329   4.669   2.541  0.0368  0.5388  0.1960
13124TIP3    H260864   0.450   4.601   2.480 -0.7508 -0.9255  0.2231
13125TIP3   OH260865   3.538   6.718   2.932  0.3460  0.1168 -0.3443
13125TIP3    H160866   3.560   6.805   2.965  2.1480  0.4052 -2.1553
13125TIP3    H260867   3.621   6.682   2.901 -0.3931 -2.1976  0.1911
13126TIP3   OH260868   1.145   2.924   6.419 -0.3784  0.4465 -0.0631
13126TIP3    H160869   1.051   2.909   6.425 -0.6012  1.0154 -1.5213
13126TIP3    H260870   1.182   2.883   6.497 -2.0648  2.4038  1.8651
13127TIP3   OH260871   3.487   0.631   3.994 -0.2904 -0.2147  0.1270
13127TIP3    H160872   3.512   0.561   4.055 -0.8785 -0.0936  0.5141
13127TIP3    H260873   3.554   0.698   4.006  0.6566 -0.9719 -0.7254
13128TIP3   OH260874   0.799   3.450   2.967  0.4903 -0.2198 -0.0511
13128TIP3    H160875   0.824   3.431   3.058 -2.9714  0.2864  1.1396
13128TIP3    H260876   0.783   3.544   2.966  1.1664 -0.1007 -1.4165
13129TIP3   OH260877   3.205   4.411   3.872  0.6179  0.8167  0.2635
13129TIP3    H160878   3.172   4.483   3.817  0.0180  0.2773 -0.0919
13129TIP3    H260879   3.298   4.432   3.884  0.7986  0.9082 -1.0398
13130TIP3   OH260880   0.377   2.420   4.079 -0.0124 -0.1057 -0.9244
13130TIP3    H160881   0.326   2.491   4.117 -1.1179 -0.7821 -1.0865
13130TIP3    H260882   0.456   2.462   4.046  0.5271  0.6596  1.1803
13131TIP3   OH260883   2.337   3.237  16.338  0.9969 -0.0244 -0.2673
13131TIP3    H160884   2.334   3.243  16.433 -0.2040 -1.3206 -0.1945
13131TIP3    H260885   2.323   3.327  16.308  2.7427  0.6325  0.7531
13132TIP3   OH260886   4.197   2.691  13.123  0.0562 -0.2770  0.1311
13132TIP3    H160887   4.281   2.727  13.151 -0.2324  0.8417 -0.4008
13132TIP3    H260888   4.188   2.610  13.174  0.6568  0.4591  1.4676
13133TIP3   OH260889   5.292   1.401   5.224 -0.6766  0.0117 -0.1162
13133TIP3    H160890   5.277   1.395   5.130  1.7227 -0.3349 -0.5572
13133TIP3    H260891   5.325   1.489   5.238  1.4150 -0.7163 -0.0825
13134TIP3   OH260892   6.088   2.327  15.102 -0.2990  0.9551 -0.1030
13134TIP3    H160893   6.114   2.321  15.194 -1.1063  0.3403  0.0972
13134TIP3    H260894   6.159   2.283  15.054 -0.5691 -0.0243  0.3643
13135TIP3   OH260895   2.030   3.235  16.140 -0.1023 -0.2954 -0.2055
13135TIP3    H160896   1.935   3.233  16.154 -0.0563 -0.6923  0.0670
13135TIP3    H260897   2.056   3.142  16.138  0.0397 -0.2635 -1.9743
13136TIP3   OH260898   2.217   4.378  16.395 -0.5385  0.3842  0.0712
13136TIP3    H160899   2.305   4.394  16.361 -1.1128 -1.3083 -2.5354
13136TIP3    H260900   2.229   4.369  16.489  1.7901  1.8003  0.0006
13137TIP3   OH260901   2.844   3.002  12.689 -0.2688 -0.2225  0.6211
13137TIP3    H160902   2.863   2.971  12.777 -0.5264  0.9915  1.1363
13137TIP3    H260903   2.816   3.093  12.702  2.7815  1.0695 -0.9707
13138TIP3   OH260904   2.067   2.737  10.482 -0.3878  0.2230 -0.6783
13138TIP3    H160905   1.984   2.749  10.529 -1.3022  0.8357 -2.3852
13138TIP3    H260906   2.043   2.689  10.403  1.1756 -1.0600 -0.4195
13139TIP3   OH260907   3.797   4.358  16.875  0.1717 -0.1457  0.5385
13139TIP3    H160908   3.733   4.379  16.807 -1.3607 -2.8826  0.9945
13139TIP3    H260909   3.745   4.328  16.950  1.9119 -0.0148  1.8766
13140TIP3   OH260910   4.665   4.635  10.464  0.0956  0.3777  0.2493
13140TIP3    H160911   4.646   4.552  10.420 -0.2911  0.5184  0.1503
13140TIP3    H260912   4.603   4.637  10.537  0.9894 -0.0400  1.0413
13141TIP3   OH260913   1.701   2.421   5.682  0.2853  0.4769  0.1449
13141TIP3    H160914   1.714   2.512   5.711  1.7905 -0.1730  1.6698
13141TIP3    H260915   1.625   2.391   5.733 -0.3204  0.8949 -0.4833
13142TIP3   OH260916   6.028   0.155  12.930 -0.5178 -0.4470  0.3311
13142TIP3    H160917   6.003   0.248  12.926  2.2712  0.4868  1.9407
13142TIP3    H260918   6.064   0.137  12.843 -0.5317  0.1453  0.1961
13143TIP3   OH260919   5.631   6.342   1.054  0.1168 -0.1876  0.0270
13143TIP3    H160920   5.684   6.273   1.013  0.0054  0.8494 -1.9811
13143TIP3    H260921   5.577   6.376   0.983 -1.0016  0.8920  1.3482
13144TIP3   OH260922   1.747   2.843  13.761  0.0432 -0.2166 -0.4353
13144TIP3    H160923   1.793   2.917  13.801  1.4974 -0.2268 -1.9905
13144TIP3    H260924   1.757   2.772  13.824  0.8345  0.2213 -0.0516
13145TIP3   OH260925   1.897   5.996  16.217 -0.1343 -0.3063 -0.1695
13145TIP3    H160926   1.945   5.916  16.197 -0.4968 -0.6438  0.3018
13145TIP3    H260927   1.838   5.972  16.289  1.6498  1.0762  1.8498
13146TIP3   OH260928   6.534   2.362   0.381  0.2216 -0.1838 -0.5958
13146TIP3    H160929   6.570   2.449   0.391  1.0228 -0.5370 -0.3505
13146TIP3    H260930   6.467   2.371   0.313 -0.5357  0.8532  0.2393
13147TIP3   OH260931   2.477   0.409   3.679 -0.0608  0.3425  0.1833
13147TIP3    H160932   2.500   0.382   3.590  0.8765  0.6141  0.3363
13147TIP3    H260933   2.458   0.326   3.724 -1.9489  0.2737 -0.6125
13148TIP3   OH260934   2.995   1.765  15.447 -0.2707  0.1024 -0.1170
13148TIP3    H160935   3.020   1.735  15.535  2.2273 -0.9233 -1.0837
13148TIP3    H260936   2.968   1.856  15.460  1.0109  0.2948  1.5970
13149TIP3   OH260937   3.387   0.105  13.186  0.0404  0.2964  0.1434
13149TIP3    H160938   3.406   0.077  13.096 -0.1456  0.6905 -0.0157
13149TIP3    H260939   3.293   0.094  13.195 -0.0113  0.7140  0.1333
13150TIP3   OH260940   5.486   4.976   6.399 -0.1349  0.1008 -0.2349
13150TIP3    H160941   5.572   4.946   6.432 -0.7210 -0.0021  1.3035
13150TIP3    H260942   5.506   5.019   6.316  1.5469  0.8677  0.5005
13151TIP3   OH260943   2.618   0.757  15.963 -0.0653 -0.4840 -0.3670
13151TIP3    H160944   2.523   0.759  15.979  0.0859 -0.1726  0.5786
13151TIP3    H260945   2.656   0.793  16.043  0.8003  0.6926 -1.2652
13152TIP3   OH260946   0.256   2.843  14.066  0.0557  0.0027 -0.2688
13152TIP3    H160947   0.286   2.886  13.986  1.4283  0.0939  0.2574
13152TIP3    H260948   0.170   2.880  14.083 -0.1179  0.2115 -1.5266
13153TIP3   OH260949   0.198   5.339   0.603 -0.2260 -0.0368 -0.1173
13153TIP3    H160950   0.249   5.416   0.628  0.0162 -0.4539  0.7109
13153TIP3    H260951   0.107   5.366   0.615 -0.1358 -0.7501  3.0733
13154TIP3   OH260952   2.265   5.425   6.376 -0.6569  0.0068  0.4382
13154TIP3    H160953   2.302   5.513   6.381 -2.1250  0.7849 -1.1983
13154TIP3    H260954   2.248   5.401   6.467  3.5888 -0.3896  1.3311
13155TIP3   OH260955   2.670   6.539  11.735 -0.0165  0.0667  0.1276
13155TIP3    H160956   2.717   6.515  11.655 -2.1583 -1.3380 -0.7897
13155TIP3    H260957   2.707   6.482  11.802 -0.3882 -1.0263 -0.5792
13156TIP3   OH260958   4.175   5.520  11.042 -0.7361  0.1378 -0.6815
13156TIP3    H160959   4.248   5.460  11.057 -1.3119 -1.0129 -2.2599
13156TIP3    H260960   4.101   5.480  11.088 -1.1527 -0.4460 -1.8439
13157TIP3   OH260961   2.945   6.167  16.529  0.2373  0.1665 -0.5276
13157TIP3    H160962   2.985   6.230  16.469  0.7066  1.1777  0.8133
13157TIP3    H260963   3.016   6.139  16.586 -0.6509  1.0000  1.0510
13158TIP3   OH260964   0.309   6.091  13.191 -0.4475  0.3746  0.0400
13158TIP3    H160965   0.279   6.028  13.125  1.5466 -0.2327 -0.3730
13158TIP3    H260966   0.292   6.176  13.151  0.1334  0.0216 -1.0346
13159TIP3   OH260967   4.985   1.420  13.101 -0.2440 -0.8270  0.2373
13159TIP3    H160968   5.058   1.477  13.123  0.4612 -1.1483 -1.2134
13159TIP3    H260969   4.911   1.479  13.088  0.0458 -0.4075  0.4754
13160TIP3   OH260970   4.799   4.749   5.034  0.3517  0.5409 -0.1868
13160TIP3    H160971   4.854   4.677   5.003 -1.4375 -0.4742 -1.1757
13160TIP3    H260972   4.780   4.800   4.956 -1.7208 -0.3069 -0.3176
13161TIP3   OH260973   0.536   6.078   2.743  0.4145 -0.1382 -0.3725
13161TIP3    H160974   0.620   6.065   2.788  0.4912  2.6099  0.4463
13161TIP3    H260975   0.560   6.113   2.657  0.1147 -0.9496 -0.7988
13162TIP3   OH260976   0.775   0.822  14.389 -0.1320 -0.0089  0.2439
13162TIP3    H160977   0.715   0.867  14.329  0.4379  1.0080  0.4034
13162TIP3    H260978   0.862   0.843  14.355  0.1563 -0.5784  0.6281
13163TIP3   OH260979   4.319   3.167   5.723  0.2696 -0.4182 -0.4699
13163TIP3    H160980   4.260   3.224   5.771  2.9892  2.4104 -0.1211
13163TIP3    H260981   4.316   3.083   5.769 -0.4376  0.8830  1.9875
13164TIP3   OH260982   3.842   6.021  10.745  0.1649  0.4097  0.2604
13164TIP3    H160983   3.794   6.073  10.681  1.4119  0.1715 -0.9210
13164TIP3    H260984   3.859   5.938  10.700 -0.7210 -0.5931  1.6704
13165TIP3   OH260985   1.019   5.885  15.145  0.6281  0.1993 -0.7543
13165TIP3    H160986   1.106   5.851  15.123  0.1391 -0.7422 -1.3184
13165TIP3    H260987   1.002   5.850  15.233  0.7231  0.1923 -0.7374
13166TIP3   OH260988   4.061   3.702  11.441 -0.0847  0.0726  0.2440
13166TIP3    H160989   3.977   3.691  11.397  1.4263  0.3506 -3.0320
13166TIP3    H260990   4.063   3.794  11.466 -0.3700  0.3442 -0.6670
13167TIP3   OH260991   0.666   5.443   1.478  0.1694  0.0874  0.0301
13167TIP3    H160992   0.622   5.398   1.406  1.0331  0.1826 -0.5722
13167TIP3    H260993   0.730   5.380   1.510  0.4768  0.4046  0.0504
13168TIP3   OH260994   2.919   3.164   5.748 -0.4903  0.0022  0.3746
13168TIP3    H160995   2.960   3.197   5.827  0.4747  0.2572 -0.2183
13168TIP3    H260996   2.830   3.199   5.751 -0.5504 -0.2189  1.4684
13169TIP3   OH260997   0.732   2.653  15.633  0.0368 -0.1373 -0.3291
13169TIP3    H160998   0.824   2.666  15.656  0.3328 -0.8708 -1.0608
13169TIP3    H260999   0.688   2.732  15.665  1.0516  0.6040 -0.7158
13170TIP3   OH261000   2.464   2.170   1.407  0.6605 -0.1413  0.0975
13170TIP3    H161001   2.407   2.193   1.334  0.0936 -0.7840  0.3325
13170TIP3    H261002   2.416   2.197   1.485  2.1358  2.5089  0.2234
13171TIP3   OH261003   0.941   1.648  17.026  0.9845  0.2420  0.0630
13171TIP3    H161004   1.019   1.674  16.976  1.8550 -2.3838 -0.1602
13171TIP3    H261005   0.892   1.592  16.965  0.0355  0.1453  0.8962
13172TIP3   OH261006   2.646   1.523   0.964 -0.6516  0.0276 -0.3234
13172TIP3    H161007   2.672   1.597   1.018 -0.6883 -0.9964  1.1519
13172TIP3    H261008   2.721   1.506   0.907  0.1346 -0.0481  0.7227
13173TIP3   OH261009   3.671   1.596  14.927 -1.2427  0.4908 -0.9815
13173TIP3    H161010   3.651   1.561  15.014  1.4016  0.6580 -0.2289
13173TIP3    H261011   3.585   1.616  14.890 -2.5001 -0.1718  1.3230
13174TIP3   OH261012   2.918   4.016  14.827 -0.2046 -0.0157 -0.3854
13174TIP3    H161013   2.980   3.944  14.840  0.5280  0.7070  0.2540
13174TIP3    H261014   2.849   3.999  14.892  0.4856  0.3964  0.4786
13175TIP3   OH261015   4.696   5.614   0.857 -0.0047 -0.0893  0.5885
13175TIP3    H161016   4.682   5.582   0.946  0.4423  1.3737  1.2225
13175TIP3    H261017   4.623   5.577   0.807 -0.7263 -0.2994  1.7399
13176TIP3   OH261018   6.408   4.180  16.576 -0.3700  0.4417 -0.5569
13176TIP3    H161019   6.451   4.248  16.629  1.1111 -0.2700 -0.8006
13176TIP3    H261020   6.340   4.145  16.633  1.7382 -0.9186  1.2999
13177TIP3   OH261021   1.183   0.642   1.852  0.7605  0.0131  0.4243
13177TIP3    H161022   1.168   0.577   1.921  0.5862 -0.2307  0.1613
13177TIP3    H261023   1.113   0.707   1.864  0.4781 -0.2476  0.2262
13178TIP3   OH261024   6.188   3.142   1.576  0.6404  0.3860 -0.1698
13178TIP3    H161025   6.137   3.112   1.652 -0.0493  1.2409 -0.2791
13178TIP3    H261026   6.264   3.085   1.575 -0.2876 -0.9133  0.0303
13179TIP3   OH261027   5.646   0.198   2.973 -0.2296 -0.0752 -0.0775
13179TIP3    H161028   5.666   0.202   2.880  1.3028 -0.6585  0.1933
13179TIP3    H261029   5.671   0.284   3.006 -2.6460  0.8560 -0.4951
13180TIP3   OH261030   6.098   5.699  16.448 -0.2064  0.4493 -0.5939
13180TIP3    H161031   6.087   5.640  16.522  1.1744 -1.3476 -1.7407
13180TIP3    H261032   6.011   5.704  16.408 -1.0923  1.8244  1.3257
13181TIP3   OH261033   4.054   3.082   3.038  0.1644 -0.0724 -0.0681
13181TIP3    H161034   4.090   3.027   3.107 -0.0294 -0.5241 -0.3218
13181TIP3    H261035   3.964   3.099   3.066  0.4131  0.6305  0.3138
13182TIP3   OH261036   0.334   0.426  14.301 -0.1293  0.3034  0.1765
13182TIP3    H161037   0.325   0.494  14.367  0.5810  1.4191 -0.8398
13182TIP3    H261038   0.401   0.367  14.335  4.5871  3.8788 -1.8344
13183TIP3   OH261039   2.490   2.074  12.124  0.3486 -0.1207  0.0859
13183TIP3    H161040   2.396   2.056  12.119  0.0877  1.2674 -0.8852
13183TIP3    H261041   2.518   2.036  12.207 -1.4495  0.9690  1.2723
13184TIP3   OH261042   4.379   0.523   4.782  0.6760 -0.3515 -0.0446
13184TIP3    H161043   4.358   0.582   4.854  2.0052 -0.1485  0.1993
13184TIP3    H261044   4.427   0.577   4.719  0.0423 -0.6706 -0.8233
13185TIP3   OH261045   6.148   3.147  15.543 -0.6721 -0.6706  0.8135
13185TIP3    H161046   6.188   3.065  15.512  0.3695  0.1342 -0.0480
13185TIP3    H261047   6.073   3.160  15.485  0.2995 -0.0331 -0.3406
13186TIP3   OH261048   0.282   2.330   2.588  0.4744  0.1660 -0.1691
13186TIP3    H161049   0.310   2.405   2.641  0.1427 -0.3487  0.7519
13186TIP3    H261050   0.364   2.292   2.555  0.7142  0.1939  0.3856
13187TIP3   OH261051   5.600   6.499  16.170 -0.3675 -0.2454  0.1145
13187TIP3    H161052   5.567   6.579  16.212  0.7105  0.6967 -0.7908
13187TIP3    H261053   5.664   6.465  16.233  0.1371  0.3377 -0.0670
13188TIP3   OH261054   3.249   4.349  15.199 -0.0389 -0.2030 -0.3331
13188TIP3    H161055   3.264   4.398  15.280  2.6595 -0.9999 -0.2712
13188TIP3    H261056   3.194   4.407  15.147  0.9207  1.8096  0.7594
13189TIP3   OH261057   6.404   0.038   2.865  0.2245 -0.4105  0.7262
13189TIP3    H161058   6.431   0.018   2.954  0.2773  0.7686  0.9905
13189TIP3    H261059   6.430  -0.039   2.814 -1.2907 -1.8170  1.9785
13190TIP3   OH261060   2.078   1.136   4.379 -0.1212  0.3777 -0.6217
13190TIP3    H161061   2.001   1.188   4.357  0.3702  0.7250 -1.5969
13190TIP3    H261062   2.058   1.098   4.465 -0.8074  1.5685 -0.2230
13191TIP3   OH261063   4.326   0.104   0.555  0.2182  0.2509 -0.0556
13191TIP3    H161064   4.390   0.168   0.526 -0.9152  2.0572  1.2200
13191TIP3    H261065   4.354   0.080   0.643 -1.5578  2.2234  1.1529
13192TIP3   OH261066   4.524   0.726   4.637 -0.3997  0.1607 -0.4171
13192TIP3    H161067   4.558   0.646   4.597 -1.0679 -0.5354  0.3681
13192TIP3    H261068   4.578   0.796   4.600  0.0526 -0.6235 -1.2810
13193TIP3   OH261069   5.624   3.579  14.976 -0.0772  0.4524  0.4408
13193TIP3    H161070   5.599   3.584  15.068 -1.3920 -1.4808  0.2258
13193TIP3    H261071   5.647   3.487  14.961 -1.6913  0.3065 -1.5759
13194TIP3   OH261072   4.805   3.555   2.808  0.5596  0.0412 -1.0666
13194TIP3    H161073   4.809   3.650   2.817  2.7507 -0.0595 -0.3012
13194TIP3    H261074   4.713   3.536   2.789 -0.4411  2.0956  1.1989
13195TIP3   OH261075   1.568   5.672  13.152 -0.2788 -0.0518 -0.6617
13195TIP3    H161076   1.596   5.706  13.237 -0.8912 -1.4788  0.1525
13195TIP3    H261077   1.501   5.733  13.122 -0.1684  0.3790 -0.0353
13196TIP3   OH261078   2.547   2.838   3.170  0.7251 -0.0780 -0.2181
13196TIP3    H161079   2.521   2.750   3.144  0.9795 -0.0682 -0.5076
13196TIP3    H261080   2.569   2.831   3.263  2.8972 -0.8069 -0.7428
13197TIP3   OH261081   0.504   0.772  13.664  0.3769  0.7617 -0.3462
13197TIP3    H161082   0.508   0.818  13.748 -0.2564  0.8017 -0.3384
13197TIP3    H261083   0.415   0.738  13.659  0.4022  0.7840 -1.0229
13198TIP3   OH261084   3.403   2.850   0.779  0.5046  0.2564 -0.7232
13198TIP3    H161085   3.439   2.761   0.775  0.5968  0.3250 -1.7872
13198TIP3    H261086   3.470   2.905   0.737  0.5889  0.8799  0.2072
13199TIP3   OH261087   3.194   4.348  11.833  0.3515 -0.7907 -0.0838
13199TIP3    H161088   3.280   4.307  11.843  0.6756 -0.2654 -0.6329
13199TIP3    H261089   3.211   4.430  11.787 -0.4083 -0.5234  0.0846
13200TIP3   OH261090   3.062   3.054   3.978  0.3280 -0.5002  0.0933
13200TIP3    H161091   3.075   3.143   3.946  1.0348 -1.1470 -1.5371
13200TIP3    H261092   3.026   3.007   3.903  0.9896 -1.8238  0.5746
13201TIP3   OH261093   2.518   1.562   4.094  0.1721 -0.2870  0.2133
13201TIP3    H161094   2.485   1.505   4.025  0.8718 -0.7041  0.2100
13201TIP3    H261095   2.607   1.583   4.067 -0.4044  1.6886 -0.3218
13202TIP3   OH261096   2.392   4.752   6.742 -0.1858  0.5481  0.8013
13202TIP3    H161097   2.402   4.666   6.703  0.8058  0.9075  0.2255
13202TIP3    H261098   2.423   4.813   6.675 -0.0920  1.2970  1.5038
13203TIP3   OH261099   0.107   3.671  16.645 -0.1980  0.4130 -0.1326
13203TIP3    H161100   0.032   3.624  16.609  1.1282 -1.6389 -0.3412
13203TIP3    H261101   0.150   3.709  16.568 -0.1255  0.2082 -0.1941
13204TIP3   OH261102   2.906   2.747  14.129  1.0481 -0.1855 -0.3502
13204TIP3    H161103   2.829   2.698  14.160  1.5554 -0.3859  0.6391
13204TIP3    H261104   2.930   2.704  14.047 -0.5808  0.6210 -1.3016
13205TIP3   OH261105   3.559   6.672  13.424 -0.3120 -0.5954 -0.2945
13205TIP3    H161106   3.555   6.706  13.513 -0.6235 -0.1332 -0.4849
13205TIP3    H261107   3.645   6.629  13.418 -0.2826 -0.6091  0.2162
13206TIP3   OH261108   4.069   6.280  11.469 -0.4259 -0.5121 -0.3576
13206TIP3    H161109   4.038   6.305  11.382  0.7871  0.2868 -0.5793
13206TIP3    H261110   4.014   6.330  11.529  0.2221  0.6789 -0.7344
13207TIP3   OH261111   2.336   3.183   3.426 -0.0753 -0.6003  0.1623
13207TIP3    H161112   2.330   3.216   3.516  0.4545  1.0988 -0.3779
13207TIP3    H261113   2.425   3.149   3.419  0.2122  0.1360  0.0431
13208TIP3   OH261114   6.512   5.727  16.034  0.1024 -0.3353 -0.6185
13208TIP3    H161115   6.435   5.682  16.069  0.9634 -1.0186  0.4725
13208TIP3    H261116   6.488   5.749  15.944 -0.6506 -2.3270 -0.9591
13209TIP3   OH261117   2.852   2.467  14.002 -0.5535  0.2197  0.5735
13209TIP3    H161118   2.785   2.526  13.967  1.0148  1.4459 -0.4567
13209TIP3    H261119   2.819   2.379  13.982 -0.9954  0.8239 -1.5617
13210TIP3   OH261120   5.688   1.580   6.291  0.2303  0.5319  0.2142
13210TIP3    H161121   5.769   1.539   6.323  0.2410 -0.0735 -0.5516
13210TIP3    H261122   5.619   1.542   6.345  0.3460  0.2264  0.1519
13211TIP3   OH261123   5.354   1.885   2.376 -0.7453 -0.5649 -0.1330
13211TIP3    H161124   5.276   1.926   2.415 -0.9465 -1.2792  0.2310
13211TIP3    H261125   5.427   1.918   2.429 -0.9276 -0.8215  0.2862
13212TIP3   OH261126   1.125   5.338  11.041  0.3724 -0.0858  0.0459
13212TIP3    H161127   1.108   5.388  10.961 -0.3968  0.2763  0.4348
13212TIP3    H261128   1.141   5.249  11.010  0.4677  0.1301 -0.5405
13213TIP3   OH261129   0.112   2.319  15.310 -0.5541  0.0472  0.4343
13213TIP3    H161130   0.093   2.316  15.404 -0.9813 -1.7321  0.3195
13213TIP3    H261131   0.203   2.348  15.306  0.3464 -2.3746  1.5681
13214TIP3   OH261132   2.314   6.343  15.312 -0.1992  0.1327  0.0538
13214TIP3    H161133   2.335   6.362  15.221 -0.3609 -2.5048 -0.6148
13214TIP3    H261134   2.219   6.351  15.317 -0.4313 -1.8575 -0.6148
13215TIP3   OH261135   0.832   2.645  12.664 -0.1939  0.3750 -0.1609
13215TIP3    H161136   0.881   2.674  12.741 -0.3305 -1.3689  0.6424
13215TIP3    H261137   0.746   2.685  12.674  0.1647  1.1354 -0.0551
13216TIP3   OH261138   1.400   6.177  14.657 -1.0335  0.6062  0.2244
13216TIP3    H161139   1.491   6.168  14.685 -0.4206  1.6245 -1.2825
13216TIP3    H261140   1.356   6.100  14.692 -0.0859  1.1551  2.8108
13217TIP3   OH261141   3.179   4.422   3.278  0.1503 -0.2245  0.4397
13217TIP3    H161142   3.120   4.498   3.286 -0.7648 -0.9128  0.4434
13217TIP3    H261143   3.247   4.452   3.218  1.6053  1.6484  2.8287
13218TIP3   OH261144   0.329   1.038   2.411 -0.2876  0.5101  0.6368
13218TIP3    H161145   0.348   1.002   2.324  2.8604 -1.9402  2.1376
13218TIP3    H261146   0.345   1.132   2.401 -1.4169  0.5386 -1.6971
13219TIP3   OH261147   6.326   4.796  13.085 -0.0405  0.5474 -0.6177
13219TIP3    H161148   6.403   4.815  13.031 -0.2119 -0.5071 -1.2621
13219TIP3    H261149   6.346   4.713  13.128 -0.9788  0.0411 -1.1251
13220TIP3   OH261150   3.014   0.937   5.664 -0.4301 -0.5347 -0.5324
13220TIP3    H161151   3.107   0.957   5.657 -0.5109  0.2919  0.4789
13220TIP3    H261152   2.980   0.947   5.575 -0.7203  5.3199 -0.1478
13221TIP3   OH261153   2.152   6.396   1.123  0.0152  0.4197  0.0606
13221TIP3    H161154   2.231   6.396   1.178  0.1608 -0.1773 -0.1528
13221TIP3    H261155   2.110   6.479   1.145  0.0242  0.1615  1.1558
13222TIP3   OH261156   4.964   2.333   1.920 -0.1934  0.3496 -0.4939
13222TIP3    H161157   4.977   2.415   1.968  0.9717  0.0261 -0.2335
13222TIP3    H261158   5.052   2.305   1.896 -0.6682 -0.2029 -1.6501
13223TIP3   OH261159   1.911   4.974   2.651  0.5661 -0.2214  0.0195
13223TIP3    H161160   1.910   4.926   2.569  1.1401 -0.0466 -0.0967
13223TIP3    H261161   1.895   4.907   2.718 -2.2618 -0.0107 -0.3626
13224TIP3   OH261162   1.812   6.818  15.444  0.4190  0.0518 -0.4004
13224TIP3    H161163   1.838   6.909  15.433  0.0457  0.2476  0.2672
13224TIP3    H261164   1.869   6.769  15.385  1.0837  0.6480 -0.2624
13225TIP3   OH261165   0.178   3.410   1.727  0.7045  0.7830 -1.0224
13225TIP3    H161166   0.136   3.327   1.705 -1.3935  1.4397  0.2172
13225TIP3    H261167   0.153   3.469   1.655  1.6658  0.5293 -1.5786
13226TIP3   OH261168   0.813   1.089   4.695  0.0055  0.3840 -0.1837
13226TIP3    H161169   0.818   1.014   4.637  1.1264  0.6989 -0.5233
13226TIP3    H261170   0.722   1.118   4.689 -0.1234 -0.1604 -1.0453
13227TIP3   OH261171   2.048   5.946   1.721  0.1892 -0.3731 -0.0412
13227TIP3    H161172   1.995   6.026   1.715  0.2846 -0.2935  0.1504
13227TIP3    H261173   2.018   5.904   1.802 -0.7646 -1.1900 -0.7927
13228TIP3   OH261174   3.802   0.767   3.452 -0.1417 -0.3095 -0.1123
13228TIP3    H161175   3.787   0.825   3.527 -0.0202  1.4513 -1.3652
13228TIP3    H261176   3.856   0.696   3.486  0.0508  0.5362  1.4258
13229TIP3   OH261177   2.516   5.078   0.956  0.2630  0.2013  1.2428
13229TIP3    H161178   2.481   4.991   0.936  0.2488  0.7316 -1.4229
13229TIP3    H261179   2.610   5.064   0.969  0.6915 -0.0144 -1.4744
13230TIP3   OH261180   3.630   2.192  13.567 -0.1444 -0.2884  0.2095
13230TIP3    H161181   3.606   2.160  13.654 -0.4739  0.8024  0.5446
13230TIP3    H261182   3.698   2.132  13.536  0.7060 -0.1067  1.6461
13231TIP3   OH261183   6.481   1.935   0.843 -0.3994  0.0604 -0.0376
13231TIP3    H161184   6.459   1.919   0.752  0.9646  0.3771 -0.4526
13231TIP3    H261185   6.556   1.995   0.839 -1.2373  1.2802  1.3192
13232TIP3   OH261186   5.989   3.542   0.882 -0.6875  0.5240 -0.4764
13232TIP3    H161187   6.020   3.452   0.894  0.3938  1.0064  0.6208
13232TIP3    H261188   5.949   3.564   0.966  1.2764  1.8694  0.1840
13233TIP3   OH261189   6.604   1.700   0.860  0.4388  0.2235 -0.0079
13233TIP3    H161190   6.599   1.662   0.948  0.8909 -0.9515 -0.4743
13233TIP3    H261191   6.572   1.790   0.871  1.7448  0.5335  1.5999
13234TIP3   OH261192   5.185   4.409  16.910 -0.2216 -0.0515  0.2886
13234TIP3    H161193   5.153   4.437  16.825 -1.6653  0.3544  0.9338
13234TIP3    H261194   5.173   4.314  16.911  0.0212 -0.0852 -0.0412
13235TIP3   OH261195   4.514   1.822  15.872 -0.5740 -0.2118 -0.0294
13235TIP3    H161196   4.568   1.748  15.844 -2.0201 -1.1781 -0.3147
13235TIP3    H261197   4.464   1.789  15.946 -2.8819 -0.2636 -1.5284
13236TIP3   OH261198   2.309   3.009   5.061 -0.2350  0.3565 -0.0942
13236TIP3    H161199   2.351   2.924   5.046 -0.0425  0.3831  0.2830
13236TIP3    H261200   2.220   2.997   5.028 -0.2234 -0.0094 -0.0027
13237TIP3   OH261201   5.012   4.426  15.142  0.6182  0.3614 -0.6926
13237TIP3    H161202   4.935   4.428  15.084 -1.0857  0.6464  1.4505
13237TIP3    H261203   4.996   4.353  15.201  1.4386  1.1216  0.5132
13238TIP3   OH261204   4.777   0.589   3.261 -0.2551 -0.5591  0.5105
13238TIP3    H161205   4.828   0.600   3.181  1.5640  0.6330  1.7414
13238TIP3    H261206   4.833   0.535   3.317 -0.8786 -0.2179  1.4794
13239TIP3   OH261207   0.698   4.524   2.047  0.9942 -0.0083  0.6962
13239TIP3    H161208   0.664   4.493   1.963  0.1270  0.4318  0.8824
13239TIP3    H261209   0.784   4.481   2.054  0.4023 -1.3083  0.3281
13240TIP3   OH261210   6.279   6.314   5.088  0.1928 -0.0738  0.8716
13240TIP3    H161211   6.357   6.335   5.037 -1.2585  2.7196 -0.4680
13240TIP3    H261212   6.286   6.221   5.107  2.8754 -0.3214 -0.8370
13241TIP3   OH261213   2.262   1.637   6.306  0.0327  0.5391 -0.6801
13241TIP3    H161214   2.306   1.552   6.309 -1.8213 -0.4730  2.1132
13241TIP3    H261215   2.330   1.700   6.331  0.7415 -0.5395  0.2097
13242TIP3   OH261216   4.193   1.203   6.004  0.0410  0.0179  0.7566
13242TIP3    H161217   4.134   1.233   6.073  0.2859 -2.4784  2.1389
13242TIP3    H261218   4.152   1.124   5.970  1.3993 -0.4198  0.0576
13243TIP3   OH261219   2.164   4.441  15.115 -0.5567  0.0741 -0.2712
13243TIP3    H161220   2.082   4.401  15.087  0.5196 -1.4600 -1.4491
13243TIP3    H261221   2.171   4.521  15.063 -1.2067  0.0968 -0.3211
13244TIP3   OH261222   1.495   5.483   2.559  0.0385  0.0978  0.3901
13244TIP3    H161223   1.448   5.431   2.494 -0.7088 -0.5583  1.4339
13244TIP3    H261224   1.463   5.452   2.643  3.3619 -1.4195  1.2536
13245TIP3   OH261225   5.259   2.020   4.942 -0.1545 -0.2655 -0.7259
13245TIP3    H161226   5.304   2.050   5.021  2.3417  0.5203 -2.3570
13245TIP3    H261227   5.245   1.926   4.957  1.1128 -0.3233  0.2931
13246TIP3   OH261228   5.629   2.052   3.922 -0.1695  0.1059 -0.5683
13246TIP3    H161229   5.716   2.091   3.918  0.2897 -0.8730 -0.2405
13246TIP3    H261230   5.572   2.117   3.880  0.7341  0.6763 -0.9376
13247TIP3   OH261231   4.889   2.894  11.622 -0.6436  0.0296  0.4701
13247TIP3    H161232   4.930   2.969  11.665 -0.2423 -0.3940  0.8465
13247TIP3    H261233   4.851   2.929  11.542  0.6901  0.3910 -0.0255
13248TIP3   OH261234   4.730   3.341  16.692  0.7190  0.4452  0.2544
13248TIP3    H161235   4.761   3.389  16.615  1.2256 -1.1976 -0.6104
13248TIP3    H261236   4.799   3.278  16.711 -0.9976 -1.7495 -0.3154
13249TIP3   OH261237   1.249   4.405  12.307 -0.5712  0.1376  0.0251
13249TIP3    H161238   1.303   4.344  12.258 -0.9341  0.3135 -0.6090
13249TIP3    H261239   1.269   4.491  12.269  0.3830  0.5261  1.2973
13250TIP3   OH261240   2.658   0.554   2.719  0.2789 -0.9032  0.5147
13250TIP3    H161241   2.563   0.571   2.720  0.4898  0.3856  1.1252
13250TIP3    H261242   2.694   0.619   2.780  1.8517  0.5918 -1.8300
13251TIP3   OH261243   0.559   5.029   1.891 -0.6536 -0.0198  0.5734
13251TIP3    H161244   0.509   4.948   1.882 -0.6941  0.1536 -0.9757
13251TIP3    H261245   0.501   5.089   1.937 -1.6306 -0.0409 -0.5964
13252TIP3   OH261246   2.085   6.516  15.950  0.3778 -0.9818 -0.6402
13252TIP3    H161247   2.169   6.547  15.982  1.0237 -1.8799 -1.4281
13252TIP3    H261248   2.021   6.571  15.995  1.3727 -0.2947 -0.0220
13253TIP3   OH261249   5.635   1.134  12.599  0.4010  0.1386  0.5366
13253TIP3    H161250   5.599   1.222  12.612 -0.3128  0.0291 -0.5909
13253TIP3    H261251   5.713   1.132  12.654  1.1884  1.9341 -0.4432
13254TIP3   OH261252   2.699   5.098  12.654 -0.2413  0.4974  0.3078
13254TIP3    H161253   2.674   5.097  12.747 -2.3009  1.0940 -0.2011
13254TIP3    H261254   2.695   5.190  12.628 -0.0752  0.2940 -0.4712
13255TIP3   OH261255   4.625   2.821   0.409 -0.2587 -0.0972  0.2979
13255TIP3    H161256   4.720   2.834   0.414 -0.5425  2.0889  0.9474
13255TIP3    H261257   4.609   2.800   0.317  0.6224  2.3049 -0.4839
13256TIP3   OH261258   4.606   3.221   1.547  0.0282 -0.0718  0.1234
13256TIP3    H161259   4.694   3.210   1.583 -0.5999  1.5475  2.4177
13256TIP3    H261260   4.598   3.315   1.531 -0.5392 -0.4682 -2.3413
13257TIP3   OH261261   3.791   0.076  12.508 -0.5938  0.6565  0.0241
13257TIP3    H161262   3.701   0.077  12.477 -0.2705  0.2771 -0.9766
13257TIP3    H261263   3.839   0.028  12.441  0.2767  0.4532  0.7702
13258TIP3   OH261264   3.366   4.538   3.115  0.2909 -0.0528 -0.1007
13258TIP3    H161265   3.292   4.582   3.073  0.1335 -1.6000 -1.5468
13258TIP3    H261266   3.417   4.610   3.153 -1.3688  1.1300 -0.0008
13259TIP3   OH261267   2.389   0.265   6.497  0.3867 -0.2547  0.2351
13259TIP3    H161268   2.394   0.176   6.531  0.8692 -0.5073 -0.4692
13259TIP3    H261269   2.436   0.318   6.562  0.0432 -0.4956  0.6888
13260TIP3   OH261270   5.728   6.659   3.744  0.0572  0.1721  0.0225
13260TIP3    H161271   5.714   6.705   3.661  0.1794  0.5632  0.2201
13260TIP3    H261272   5.817   6.682   3.770  0.4461 -0.8667 -0.3078
13261TIP3   OH261273   5.620   2.017  12.137 -0.1336  0.3661  1.0466
13261TIP3    H161274   5.708   2.042  12.108 -0.4234  1.0001  0.6988
13261TIP3    H261275   5.632   1.988  12.228  0.5692 -0.3925  0.7193
13262TIP3   OH261276   5.961   3.403   4.527 -0.1667  0.2580 -0.0143
13262TIP3    H161277   5.944   3.330   4.587 -1.3005 -1.3086 -2.1110
13262TIP3    H261278   5.899   3.471   4.554 -1.2313 -0.7332  0.0993
13263TIP3   OH261279   6.004   3.844  14.230  0.0448 -0.2562 -0.0279
13263TIP3    H161280   6.076   3.783  14.217 -1.0833 -0.9447 -4.7672
13263TIP3    H261281   5.925   3.793  14.214 -1.2345  1.4852  0.3487
13264TIP3   OH261282   4.707   1.492   3.798  0.1527  0.9725  0.2343
13264TIP3    H161283   4.691   1.576   3.756 -0.7663 -0.0921 -1.7250
13264TIP3    H261284   4.641   1.486   3.867 -0.9571  1.1483 -0.7789
13265TIP3   OH261285   6.833   2.337   0.166 -0.0620  0.2569  0.1955
13265TIP3    H161286   6.915   2.326   0.119  0.1043 -2.5241  0.9194
13265TIP3    H261287   6.842   2.421   0.212  1.2817  1.2155 -1.7126
13266TIP3   OH261288   5.164   0.388   4.189 -0.2103 -0.7441 -0.6658
13266TIP3    H161289   5.236   0.372   4.250  0.2993 -1.8271 -1.4974
13266TIP3    H261290   5.132   0.300   4.166 -0.1911 -0.3973 -2.1364
13267TIP3   OH261291   1.504   0.541   4.866 -0.1459 -0.1358  0.0442
13267TIP3    H161292   1.472   0.505   4.949 -0.2731 -2.5294 -0.9607
13267TIP3    H261293   1.442   0.612   4.845  0.7505  1.5577  2.6507
13268TIP3   OH261294   6.868   4.607   5.958  0.0614  0.1442 -0.1012
13268TIP3    H161295   6.805   4.622   6.028 -0.8906 -2.1194 -0.3810
13268TIP3    H261296   6.830   4.651   5.882 -1.3713 -1.3455 -0.3148
13269TIP3   OH261297   6.223   1.456   5.373  0.1469  0.1178  0.0773
13269TIP3    H161298   6.197   1.542   5.339 -1.7392 -0.3164  0.3392
13269TIP3    H261299   6.315   1.447   5.347 -0.1506  1.4102 -1.5941
13270TIP3   OH261300   3.764   6.500   1.032  0.3378 -0.5846 -0.4128
13270TIP3    H161301   3.712   6.576   1.005 -0.8724 -1.3662 -0.3927
13270TIP3    H261302   3.850   6.514   0.993 -0.8889 -0.9569 -3.5641
13271TIP3   OH261303   6.044   0.409  14.946  0.1239  0.0662  0.8923
13271TIP3    H161304   6.061   0.350  15.020 -0.1398  0.7455  1.5116
13271TIP3    H261305   6.028   0.351  14.872  0.9392 -0.6205  1.2404
13272TIP3   OH261306   0.961   4.288   2.505 -0.3329  0.5097  0.6021
13272TIP3    H161307   0.997   4.372   2.476  1.8764 -0.5738 -0.0443
13272TIP3    H261308   0.906   4.258   2.433  0.7582  0.3534 -0.1827
13273TIP3   OH261309   1.422   0.926   2.259 -0.3059 -0.2206  0.1990
13273TIP3    H161310   1.514   0.904   2.270 -0.1199  1.1997  1.8263
13273TIP3    H261311   1.405   0.911   2.166  2.3178  2.0462 -0.7940
13274TIP3   OH261312   5.241   5.197   3.749  0.3033 -0.1039  0.4563
13274TIP3    H161313   5.159   5.243   3.730  0.6333 -0.3264 -1.7653
13274TIP3    H261314   5.307   5.266   3.748  0.8332 -0.4526 -3.1088
13275TIP3   OH261315   3.507   1.462   1.333  0.2852  0.1870  0.6453
13275TIP3    H161316   3.444   1.415   1.279 -1.7893 -0.0586  3.0985
13275TIP3    H261317   3.592   1.441   1.295 -0.8167 -2.6489 -0.4806
13276TIP3   OH261318   6.749   3.160   1.406  0.4448 -0.0230 -0.3795
13276TIP3    H161319   6.734   3.075   1.364  2.6837 -0.7036  0.0657
13276TIP3    H261320   6.667   3.178   1.452  0.1461 -2.3298  0.1431
13277TIP3   OH261321   3.290   1.789   0.285 -0.0225  0.2844 -1.0385
13277TIP3    H161322   3.244   1.706   0.270  0.7762  0.0583 -2.4137
13277TIP3    H261323   3.226   1.844   0.330  0.1499 -1.8003  2.0707
13278TIP3   OH261324   4.541   5.709   0.176  0.1167 -0.3882  0.5879
13278TIP3    H161325   4.456   5.752   0.179 -0.3186 -1.2431  1.8029
13278TIP3    H261326   4.602   5.771   0.216 -0.1757 -0.2195  0.7708
13279TIP3   OH261327   1.582   0.597  16.669 -0.5970 -0.1497 -0.2572
13279TIP3    H161328   1.572   0.592  16.764  0.7711  0.0756 -0.0801
13279TIP3    H261329   1.558   0.687  16.647 -0.6631 -0.1272 -0.0934
13280TIP3   OH261330   1.071   2.824   3.031  0.2457 -0.1529  0.1933
13280TIP3    H161331   1.057   2.790   3.119 -1.6794  0.8364  0.3294
13280TIP3    H261332   1.166   2.818   3.017  0.3451 -2.4510  1.4180
13281TIP3   OH261333   2.860   3.773  12.028  0.5462  0.2655 -0.4785
13281TIP3    H161334   2.792   3.809  11.971 -0.2347 -0.1893  0.1464
13281TIP3    H261335   2.897   3.848  12.074  0.8423  0.5772 -1.2105
13282TIP3   OH261336   5.522   5.810   2.760 -0.1251 -0.2603  0.2352
13282TIP3    H161337   5.559   5.839   2.677 -1.5360  1.3298  0.1234
13282TIP3    H261338   5.437   5.853   2.766 -0.8603 -1.7853  1.6713
13283TIP3   OH261339   5.893   2.739  12.825  0.1260  0.1353  0.6627
13283TIP3    H161340   5.886   2.834  12.828 -0.4192  0.1495 -0.4108
13283TIP3    H261341   5.934   2.721  12.740 -0.3684 -0.6008  0.5660
13284TIP3   OH261342   3.249   3.731  10.761  0.3031  0.2147 -0.2511
13284TIP3    H161343   3.176   3.717  10.701 -0.3077 -0.0672  0.5480
13284TIP3    H261344   3.271   3.644  10.794  0.3790  0.4135  0.2343
13285TIP3   OH261345   2.492   5.941   3.547  0.6317  0.0461  0.0659
13285TIP3    H161346   2.550   6.017   3.541  0.7322  0.1131  1.4899
13285TIP3    H261347   2.536   5.882   3.608 -0.8387  0.1573  1.2994
13286TIP3   OH261348   6.360   0.413  14.204 -0.0398 -0.0120  0.1510
13286TIP3    H161349   6.282   0.469  14.199  0.0777  0.1961  0.5732
13286TIP3    H261350   6.329   0.334  14.247 -0.0319  0.0538  0.2804
13287TIP3   OH261351   1.875   3.876  10.895 -0.3586 -0.2136  0.3828
13287TIP3    H161352   1.937   3.911  10.831 -0.6914  1.4775  0.9502
13287TIP3    H261353   1.891   3.927  10.974 -2.4880  0.3055  0.5218
13288TIP3   OH261354   2.881   6.423  13.219  0.1638  0.1498  0.2499
13288TIP3    H161355   2.974   6.438  13.238  0.9963 -3.4780 -0.2482
13288TIP3    H261356   2.881   6.359  13.148 -2.7497 -0.0641  0.3245
13289TIP3   OH261357   6.447   6.378   4.273 -0.2146  0.5838  0.3593
13289TIP3    H161358   6.488   6.463   4.291 -0.6022  0.9838 -0.5641
13289TIP3    H261359   6.383   6.397   4.205  0.7671 -0.7380 -0.9936
13290TIP3   OH261360   1.666   6.660  13.569 -0.5562  0.4023 -0.2645
13290TIP3    H161361   1.645   6.714  13.492 -0.0125  1.1214  0.0896
13290TIP3    H261362   1.696   6.577  13.532  1.2075  1.2733 -0.8805
13291TIP3   OH261363   3.282   3.124  12.457 -0.1805  0.3700 -0.6074
13291TIP3    H161364   3.223   3.177  12.510 -1.1167 -0.2427 -1.0064
13291TIP3    H261365   3.298   3.177  12.379  0.5118  0.9062 -0.1144
13292TIP3   OH261366   5.163   1.026  14.136  0.5905 -0.6435  0.1115
13292TIP3    H161367   5.101   0.990  14.073 -0.9135  1.4621  0.2775
13292TIP3    H261368   5.168   0.960  14.205 -0.0538 -1.6410 -0.7639
13293TIP3   OH261369   3.632   5.607  15.468 -0.1094  0.2077 -0.2478
13293TIP3    H161370   3.672   5.525  15.439  0.6737  0.2772  0.6148
13293TIP3    H261371   3.546   5.581  15.502 -0.4745 -0.0501 -1.3224
13294TIP3   OH261372   1.721   3.794  14.650  0.5044 -0.0896  0.6884
13294TIP3    H161373   1.627   3.805  14.656  0.4845  2.8540 -2.1995
13294TIP3    H261374   1.758   3.871  14.692  1.6706 -1.1281  1.6533
13295TIP3   OH261375   4.466   4.635   4.942  0.4062 -0.1603  0.1901
13295TIP3    H161376   4.561   4.632   4.933  0.3981  0.0640  0.0030
13295TIP3    H261377   4.443   4.723   4.911  0.3148  0.4553  1.8819
13296TIP3   OH261378   0.141   3.552  10.754 -0.2593  0.1490 -0.0460
13296TIP3    H161379   0.232   3.529  10.737 -0.2190  0.4187 -0.1952
13296TIP3    H261380   0.126   3.633  10.705  0.4872  2.1585  2.8104
13297TIP3   OH261381   1.204   5.958  13.375  0.0625 -0.0697 -0.0790
13297TIP3    H161382   1.234   5.953  13.466 -0.2139  2.5209  0.2505
13297TIP3    H261383   1.278   5.996  13.328 -0.6365  0.9682 -0.3923
13298TIP3   OH261384   4.538   3.168  13.746  0.1259 -0.1133  0.4521
13298TIP3    H161385   4.504   3.091  13.700 -1.1370  0.7019 -0.0205
13298TIP3    H261386   4.519   3.151  13.838  1.1063 -0.9751  0.5120
13299TIP3   OH261387   3.478   4.555  14.250  0.1503 -0.0774  0.1460
13299TIP3    H161388   3.478   4.461  14.267  0.8392  0.0915  1.1513
13299TIP3    H261389   3.385   4.580  14.247 -0.0218 -0.6491  0.6643
13300TIP3   OH261390   1.983   4.372  15.804  0.3881 -0.3082  0.6140
13300TIP3    H161391   2.008   4.292  15.849 -1.8389 -1.5103 -0.1026
13300TIP3    H261392   1.887   4.367  15.798  0.2285  2.1368  0.0199
13301TIP3   OH261393   0.699   6.070   2.272 -0.1057 -0.2528  0.3994
13301TIP3    H161394   0.660   6.031   2.351  0.9219  1.9071  2.0732
13301TIP3    H261395   0.788   6.093   2.298  0.3794  0.1954 -1.5260
13302TIP3   OH261396   2.025   5.582   2.190 -0.5084 -0.2942 -0.0042
13302TIP3    H161397   2.027   5.562   2.097  0.6744 -1.1209  0.1770
13302TIP3    H261398   1.995   5.500   2.231 -0.9133  0.0292  0.3506
13303TIP3   OH261399   3.487   2.953  12.576 -0.4011 -0.0663  1.0408
13303TIP3    H161400   3.563   2.954  12.634 -0.3742  0.2049  1.0020
13303TIP3    H261401   3.450   3.041  12.583 -0.2643  0.0422  0.4784
13304TIP3   OH261402   6.659   0.278  11.495 -0.0178 -0.4500 -0.3437
13304TIP3    H161403   6.616   0.354  11.535  0.2792 -0.0596 -0.7607
13304TIP3    H261404   6.626   0.204  11.546  0.4617  0.0405  0.7291
13305TIP3   OH261405   1.056   1.666  12.064 -0.2200 -0.0615  0.4398
13305TIP3    H161406   0.985   1.602  12.061  0.3503 -0.8277  2.1942
13305TIP3    H261407   1.013   1.749  12.084 -0.6908 -0.3953  0.8274
13306TIP3   OH261408   1.793   2.404   4.807 -0.8968 -0.1156 -0.1724
13306TIP3    H161409   1.719   2.347   4.789 -0.9360  0.6707 -2.8351
13306TIP3    H261410   1.864   2.370   4.752  1.0556 -1.2799  2.7969
13307TIP3   OH261411   0.581   0.298  14.339 -0.4771 -0.1988  0.1783
13307TIP3    H161412   0.625   0.379  14.314  0.0873 -0.0695  1.5148
13307TIP3    H261413   0.624   0.230  14.287  1.3564 -0.0772  1.4612
13308TIP3   OH261414   6.629   5.191  11.819 -0.2852  0.4706 -0.2491
13308TIP3    H161415   6.676   5.120  11.863 -0.0686  1.4948  1.2500
13308TIP3    H261416   6.575   5.230  11.887 -2.4740  0.0956 -1.6587
13309TIP3   OH261417   2.792   3.609  14.994  0.0213 -0.4221 -0.3971
13309TIP3    H161418   2.721   3.645  14.941  0.5031  1.1646 -0.0150
13309TIP3    H261419   2.770   3.516  15.004 -1.6523 -0.1051 -0.8252
13310TIP3   OH261420   6.533   6.684   2.054  0.3746 -0.1803  0.7252
13310TIP3    H161421   6.538   6.770   2.012 -0.7259 -0.2546  0.4344
13310TIP3    H261422   6.552   6.622   1.984 -1.7963 -0.3230  0.2139
13311TIP3   OH261423   1.787   5.140  15.611 -0.1421  0.6417  0.7909
13311TIP3    H161424   1.869   5.090  15.610 -1.3800 -1.5238  1.2026
13311TIP3    H261425   1.764   5.147  15.703 -0.2484  1.5751  0.7011
13312TIP3   OH261426   0.154   5.903  15.239 -0.0524  0.1589 -0.7630
13312TIP3    H161427   0.110   5.968  15.185  0.6638 -0.0682 -1.6289
13312TIP3    H261428   0.186   5.837  15.178  0.1292 -0.4912  0.0043
13313TIP3   OH261429   1.046   6.688  10.603 -0.0460 -0.3915  0.7088
13313TIP3    H161430   1.050   6.778  10.636  0.8462 -0.2336  0.2247
13313TIP3    H261431   0.962   6.683  10.558 -0.8842 -0.3472  2.2188
13314TIP3   OH261432   3.326   4.197  15.941  0.0991  0.4631 -0.5111
13314TIP3    H161433   3.233   4.179  15.930  0.3870 -1.6441 -0.0068
13314TIP3    H261434   3.341   4.280  15.895 -1.6870 -0.0042 -2.0346
13315TIP3   OH261435   4.250   3.592   5.650  0.0180 -0.1079  0.0558
13315TIP3    H161436   4.337   3.553   5.660 -0.7162 -1.9210 -0.2450
13315TIP3    H261437   4.256   3.643   5.569  1.2466  1.1805  0.9112
13316TIP3   OH261438   0.618   0.566   2.146  0.0588  0.0240 -0.1741
13316TIP3    H161439   0.542   0.517   2.116 -0.4608  0.5213  0.3136
13316TIP3    H261440   0.671   0.579   2.066 -0.5710  0.0467 -0.5924
13317TIP3   OH261441   6.730   1.149  15.343 -0.0701 -0.2188 -0.2597
13317TIP3    H161442   6.705   1.112  15.258  0.0547 -2.6385  0.6833
13317TIP3    H261443   6.815   1.108  15.362  0.2844  0.9116  0.6956
13318TIP3   OH261444   4.204   5.017   4.522 -0.3633 -0.4280  0.0122
13318TIP3    H161445   4.231   4.934   4.562  0.6371 -0.5413 -0.8537
13318TIP3    H261446   4.210   5.081   4.593 -0.4977 -0.9672  0.5209
13319TIP3   OH261447   1.549   4.240  15.576  0.4938  0.2123  0.1953
13319TIP3    H161448   1.595   4.177  15.519  0.9399  0.2978  0.4555
13319TIP3    H261449   1.504   4.299  15.515 -0.5665 -0.8100 -0.0511
13320TIP3   OH261450   5.348   6.161   1.290  0.0073 -0.0518 -0.0407
13320TIP3    H161451   5.430   6.209   1.303 -0.8333  1.0050  1.5407
13320TIP3    H261452   5.350   6.093   1.357 -0.8918  0.6491  0.7051
13321TIP3   OH261453   0.690   1.516   1.518  0.5804  0.0405  0.2804
13321TIP3    H161454   0.711   1.469   1.437 -0.9341  0.7139 -0.5526
13321TIP3    H261455   0.775   1.537   1.556  1.4349  1.3335 -2.1093
13322TIP3   OH261456   6.416   3.532   3.356  0.2321  0.3559  0.4132
13322TIP3    H161457   6.333   3.485   3.349 -0.0359  0.8427  0.3009
13322TIP3    H261458   6.392   3.622   3.375  0.7240  0.5594  0.1026
13323TIP3   OH261459   6.558   6.158   4.369 -0.3247  0.1297  0.1643
13323TIP3    H161460   6.525   6.243   4.340  0.9501  0.8123  0.6233
13323TIP3    H261461   6.489   6.096   4.346 -0.9269  1.1670 -0.9187
13324TIP3   OH261462   0.188   5.362  11.707 -0.0765 -0.5461 -0.1164
13324TIP3    H161463   0.194   5.408  11.623  0.0172  1.5971  0.9842
13324TIP3    H261464   0.132   5.418  11.761 -0.2275 -1.9239  1.2398
13325TIP3   OH261465   3.386   3.110  10.467 -0.4370 -0.1648  0.1828
13325TIP3    H161466   3.473   3.145  10.484 -0.6920 -0.1387  1.5412
13325TIP3    H261467   3.401   3.021  10.435  0.0953  0.0620 -0.2161
13326TIP3   OH261468   2.347   0.972   4.927  0.0949 -0.1571 -0.9068
13326TIP3    H161469   2.358   0.939   5.016 -1.7621  0.8470 -0.2309
13326TIP3    H261470   2.252   0.982   4.917  0.3776  1.9260 -2.1521
13327TIP3   OH261471   0.975   4.656   4.312  0.4861 -0.5110  0.1418
13327TIP3    H161472   1.063   4.653   4.349  1.0083  0.9058 -0.8673
13327TIP3    H261473   0.975   4.587   4.245  1.0828 -0.0695 -0.3283
13328TIP3   OH261474   4.599   6.873  13.662  0.7977 -0.3036  0.1021
13328TIP3    H161475   4.580   6.949  13.717 -0.3360  0.5444 -1.3977
13328TIP3    H261476   4.695   6.867  13.661  0.9355  1.6085 -0.4119
13329TIP3   OH261477   0.333   6.750  15.889  0.0349  0.5824 -0.3710
13329TIP3    H161478   0.424   6.780  15.886  0.5821 -0.7690  1.1993
13329TIP3    H261479   0.293   6.803  15.958 -0.3463  1.0660 -0.9531
13330TIP3   OH261480   4.159   3.063   5.134 -0.1591 -0.0356  0.2533
13330TIP3    H161481   4.181   3.010   5.210 -0.9836  1.3385  1.5033
13330TIP3    H261482   4.227   3.129   5.129  0.0687 -0.3104 -0.4124
13331TIP3   OH261483   5.425   1.635   2.714  0.1472  0.4550  0.4815
13331TIP3    H161484   5.399   1.607   2.626 -0.8801  0.1067  0.8826
13331TIP3    H261485   5.344   1.639   2.763  0.8362 -0.6899  1.7897
13332TIP3   OH261486   2.279   1.662  12.094  0.4908  0.2147 -0.1167
13332TIP3    H161487   2.293   1.706  12.010  2.9704  0.1015  0.1495
13332TIP3    H261488   2.217   1.719  12.140  0.3423  1.1525 -1.4044
13333TIP3   OH261489   4.861   3.594   4.839 -0.3334  0.1588  0.0478
13333TIP3    H161490   4.890   3.568   4.927  0.5167 -2.6065 -0.9677
13333TIP3    H261491   4.889   3.523   4.782 -1.4332  1.5719 -2.4136
13334TIP3   OH261492   2.963   3.749  14.414 -0.0463  0.1540 -0.0968
13334TIP3    H161493   2.908   3.826  14.401  0.3668  1.0245  2.6491
13334TIP3    H261494   3.021   3.748  14.338  0.3103  2.9298  0.0327
13335TIP3   OH261495   3.744   1.578   5.184 -0.1730 -0.1873 -0.2589
13335TIP3    H161496   3.739   1.575   5.280 -0.9063  2.1333 -0.1716
13335TIP3    H261497   3.831   1.542   5.164  2.0289  3.4313  1.6449
13336TIP3   OH261498   0.977   6.008   4.328 -0.6630  0.3725  0.0487
13336TIP3    H161499   0.929   5.929   4.352 -1.0491  0.3954 -0.6322
13336TIP3    H261500   1.025   5.984   4.249  0.2047  0.4458  0.5476
13337TIP3   OH261501   5.700   0.964   3.087 -0.3576  0.2203 -0.4059
13337TIP3    H161502   5.672   0.993   3.000 -0.7268 -0.9885 -0.7013
13337TIP3    H261503   5.618   0.954   3.137 -0.2420 -0.3951 -0.3366
13338TIP3   OH261504   6.201   1.105   2.907  0.3544  0.0256  0.1423
13338TIP3    H161505   6.232   1.180   2.856 -0.0901 -1.0117 -1.7248
13338TIP3    H261506   6.270   1.039   2.897  0.4968 -0.0285  1.3253
13339TIP3   OH261507   1.867   6.269  14.463  0.3981  0.2632  0.0228
13339TIP3    H161508   1.957   6.279  14.493  0.7276 -1.0671 -0.4294
13339TIP3    H261509   1.814   6.283  14.542  1.0491  0.2808  0.4656
13340TIP3   OH261510   3.233   3.151  12.056  0.2467  0.4031 -0.1844
13340TIP3    H161511   3.237   3.206  11.977  2.8539 -0.1148 -0.5151
13340TIP3    H261512   3.314   3.100  12.053 -0.8410 -1.5640  1.4934
13341TIP3   OH261513   4.404   5.027   5.255 -0.4010  0.0289  0.0676
13341TIP3    H161514   4.355   4.953   5.219 -1.0996 -0.8167  2.4991
13341TIP3    H261515   4.338   5.092   5.277 -0.1205  0.1352  0.6227
13342TIP3   OH261516   0.071   4.039   3.061 -0.2340 -0.0273 -0.0954
13342TIP3    H161517   0.061   4.005   3.150 -0.3249  0.8543  0.2400
13342TIP3    H261518   0.078   3.961   3.006 -0.0320 -0.5819  0.7010
13343TIP3   OH261519   2.143   5.574  16.522 -0.4856 -0.1106 -0.3941
13343TIP3    H161520   2.059   5.578  16.476 -0.5267  0.7227 -0.2745
13343TIP3    H261521   2.207   5.561  16.453 -0.6059  0.5058 -0.6325
13344TIP3   OH261522   2.637   6.128   1.886 -0.5371 -0.3597  0.2083
13344TIP3    H161523   2.666   6.042   1.915 -1.1370 -0.3139  0.9782
13344TIP3    H261524   2.713   6.166   1.842 -0.2656 -1.2731 -0.1284
13345TIP3   OH261525   1.335   6.450   4.155  0.0877 -0.6328 -0.1477
13345TIP3    H161526   1.241   6.439   4.142  0.1868  0.5699 -2.2596
13345TIP3    H261527   1.347   6.545   4.160  1.2218 -0.7743 -0.0788
13346TIP3   OH261528   2.160   2.718   6.418  0.8541 -0.4158  0.3115
13346TIP3    H161529   2.121   2.653   6.360 -0.7025  0.4812  0.2700
13346TIP3    H261530   2.235   2.674   6.457 -0.8466 -2.7065  1.2595
13347TIP3   OH261531   3.047   5.477   2.068 -0.7731  0.0388 -0.5157
13347TIP3    H161532   3.031   5.550   2.126 -2.5085 -1.2077  0.6565
13347TIP3    H261533   3.129   5.438   2.100  0.5173  1.7541 -1.5476
13348TIP3   OH261534   2.827   0.366   2.951  0.5466  0.1970 -0.4295
13348TIP3    H161535   2.905   0.324   2.986 -1.7609 -5.1939 -0.8707
13348TIP3    H261536   2.830   0.350   2.857  0.8806  4.0585 -1.2813
13349TIP3   OH261537   4.216   2.111   0.385 -0.5431  0.1369 -1.2066
13349TIP3    H161538   4.151   2.044   0.362  1.2580 -1.7403 -1.0978
13349TIP3    H261539   4.164   2.181   0.425 -2.3859 -2.1230  0.7276
13350TIP3   OH261540   5.746   2.537   4.664  0.0517 -0.5554 -0.3120
13350TIP3    H161541   5.691   2.564   4.737  0.1135 -0.3394 -0.3423
13350TIP3    H261542   5.694   2.559   4.586  0.4822  0.3485 -0.3587
13351TIP3   OH261543   0.025   4.874  12.548  0.0684  0.0409  0.2155
13351TIP3    H161544  -0.060   4.831  12.544 -0.1430  0.3689  0.9955
13351TIP3    H261545   0.035   4.900  12.640  2.2169 -2.4491  0.8296
13352TIP3   OH261546   6.071   5.791  11.526  0.2842 -0.7157  0.1913
13352TIP3    H161547   6.121   5.830  11.597  0.1745 -0.1964 -0.0076
13352TIP3    H261548   6.030   5.714  11.564 -0.0728 -0.2339  0.7876
13353TIP3   OH261549   4.172   1.601   2.586 -0.1966  0.1371  0.2667
13353TIP3    H161550   4.209   1.594   2.498  0.8228  0.9362  0.6095
13353TIP3    H261551   4.136   1.689   2.591  0.2564  0.2995  0.8268
13354TIP3   OH261552   3.091   0.367  15.217 -0.0365 -0.2967 -0.3736
13354TIP3    H161553   3.013   0.407  15.255 -1.5750 -3.0497 -0.3644
13354TIP3    H261554   3.111   0.421  15.141 -2.6388 -0.1074 -1.0120
13355TIP3   OH261555   1.204   0.042   5.523 -0.7054 -0.0111 -0.3841
13355TIP3    H161556   1.163   0.062   5.439  1.6025  1.0640 -1.3430
13355TIP3    H261557   1.263   0.116   5.540  1.4081 -1.7595  0.4733
13356TIP3   OH261558   5.520   1.603  16.035  0.2278  0.1091  0.2492
13356TIP3    H161559   5.428   1.593  16.059  0.0648 -2.6393 -1.2137
13356TIP3    H261560   5.566   1.606  16.119 -1.0827  0.4644  0.9898
13357TIP3   OH261561   3.206   4.561  16.850 -0.1995  0.1627 -0.1420
13357TIP3    H161562   3.166   4.646  16.869 -2.1910 -0.7509  0.0129
13357TIP3    H261563   3.144   4.497  16.884  1.1159 -1.3857 -0.5124
13358TIP3   OH261564   2.128   4.756   3.286  0.1093  0.0334  0.4993
13358TIP3    H161565   2.120   4.661   3.281  1.3717 -0.0864  0.4374
13358TIP3    H261566   2.055   4.784   3.341 -1.7909 -0.7017 -1.5002
13359TIP3   OH261567   2.615   2.714   5.009 -0.1103  0.2889  0.3560
13359TIP3    H161568   2.553   2.652   4.970 -0.3138  1.0396 -0.5481
13359TIP3    H261569   2.586   2.725   5.100 -0.5808 -0.2751  0.2719
13360TIP3   OH261570   1.859   2.964  15.373  0.3937 -0.3162 -0.1294
13360TIP3    H161571   1.837   2.871  15.371  0.3482 -0.3072 -0.0324
13360TIP3    H261572   1.777   3.008  15.394  0.6308 -0.3319  0.8835
13361TIP3   OH261573   0.192   1.363   6.132  0.2075  0.0597 -0.2988
13361TIP3    H161574   0.273   1.412   6.129  1.2306 -1.5611 -0.7009
13361TIP3    H261575   0.162   1.371   6.222  1.3874 -0.1654  0.1289
13362TIP3   OH261576   5.137   6.456   5.624 -0.0186  0.0580 -0.2109
13362TIP3    H161577   5.095   6.381   5.667  0.5797 -0.0087  0.2713
13362TIP3    H261578   5.143   6.522   5.692 -0.2116  0.4183 -0.5405
13363TIP3   OH261579   4.024   4.567   2.633  0.3056 -0.2150 -0.0611
13363TIP3    H161580   4.043   4.563   2.727 -1.7040  1.0820  0.4587
13363TIP3    H261581   4.056   4.653   2.606 -0.2014 -0.0992 -0.2917
13364TIP3   OH261582   3.932   4.529  13.936 -0.7836 -0.8671 -0.1184
13364TIP3    H161583   3.889   4.444  13.945 -0.1145 -1.0973  1.2574
13364TIP3    H261584   4.003   4.514  13.874 -2.5265 -0.5018 -2.3456
13365TIP3   OH261585   4.575   3.723   2.120 -0.6004  0.1438  0.2709
13365TIP3    H161586   4.665   3.755   2.119 -1.1725  2.3602 -3.5903
13365TIP3    H261587   4.583   3.628   2.122  1.8615  0.2745 -0.3061
13366TIP3   OH261588   1.334   1.955   0.380 -0.1383 -0.3980  0.0485
13366TIP3    H161589   1.294   1.882   0.427 -2.8502  1.0000  0.0608
13366TIP3    H261590   1.319   1.935   0.288 -1.9153  0.6383  0.0838
13367TIP3   OH261591   0.467   6.041   0.272  0.0634  0.1367 -0.6424
13367TIP3    H161592   0.410   6.011   0.200  0.0400  0.8166 -0.9161
13367TIP3    H261593   0.479   5.964   0.327 -2.0039  0.2096  0.0004
13368TIP3   OH261594   5.720   1.334   4.234 -0.2784 -0.2036  0.3443
13368TIP3    H161595   5.733   1.360   4.143  0.7650 -1.2823  0.1609
13368TIP3    H261596   5.645   1.386   4.264 -0.5920  0.2039 -1.1010
13369TIP3   OH261597   2.824   5.825   5.031 -0.0289  0.3634  0.0554
13369TIP3    H161598   2.735   5.821   4.996  0.3243 -1.6381 -0.7676
13369TIP3    H261599   2.836   5.740   5.074  1.7615  0.2766 -0.5674
13370TIP3   OH261600   3.459   1.482   5.112 -0.3746  0.2148  0.1285
13370TIP3    H161601   3.554   1.490   5.106 -0.3920 -0.0144 -0.5393
13370TIP3    H261602   3.433   1.554   5.170  0.1263  0.7738 -0.3189
13371TIP3   OH261603   2.447   3.398  16.805  0.2926  0.1293 -0.4470
13371TIP3    H161604   2.497   3.474  16.777 -0.9364  1.5685  1.0975
13371TIP3    H261605   2.502   3.323  16.781  2.3398  1.5501 -0.4413
13372TIP3   OH261606   1.251   6.543   1.111 -0.2213  0.0483  0.7991
13372TIP3    H161607   1.289   6.510   1.193 -0.3575 -0.4444  0.6641
13372TIP3    H261608   1.158   6.524   1.118 -0.3434  0.6333  0.8274
13373TIP3   OH261609   6.378   4.977  16.296  0.4189 -0.6537  0.5336
13373TIP3    H161610   6.445   5.042  16.276 -2.5212  1.9190 -2.0337
13373TIP3    H261611   6.371   4.979  16.392  1.7331  1.4107  0.6621
13374TIP3   OH261612   1.827   6.583   1.875 -0.1298 -0.0334  0.0238
13374TIP3    H161613   1.737   6.553   1.886 -0.7394  1.5984 -0.2887
13374TIP3    H261614   1.822   6.649   1.806  1.1362  0.7887  0.6963
13375TIP3   OH261615   4.780   6.552   1.777 -0.3339 -0.4127 -0.0419
13375TIP3    H161616   4.777   6.585   1.866 -2.0078  0.5249 -0.4179
13375TIP3    H261617   4.718   6.479   1.776  1.2818 -1.8870  0.0605
13376TIP3   OH261618   5.334   3.698   0.021  0.0465 -0.3494 -0.2940
13376TIP3    H161619   5.271   3.719  -0.047  0.8475  2.8684 -0.2265
13376TIP3    H261620   5.288   3.718   0.103  0.9367  1.6725 -0.2315
13377TIP3   OH261621   6.022   1.085  12.277  0.1391  0.1524  0.1355
13377TIP3    H161622   5.979   1.042  12.203 -0.9450 -1.6339  1.7302
13377TIP3    H261623   6.110   1.104  12.246  0.0144 -1.4289 -1.3014
13378TIP3   OH261624   4.419   3.099  12.236 -0.1592 -0.8381 -0.0098
13378TIP3    H161625   4.428   3.153  12.315  1.0445 -2.9239  1.4095
13378TIP3    H261626   4.333   3.058  12.244 -0.3112 -0.5388 -0.1207
13379TIP3   OH261627   6.066   1.529  12.110  0.3198  0.3957 -0.3847
13379TIP3    H161628   6.015   1.587  12.166 -1.1392 -0.2519 -0.9956
13379TIP3    H261629   6.007   1.457  12.089  1.7484 -0.7776 -0.5130
13380TIP3   OH261630   5.261   0.653  13.343 -0.4348  0.0559  0.1806
13380TIP3    H161631   5.269   0.597  13.265  1.8202 -1.2695  1.2450
13380TIP3    H261632   5.263   0.742  13.309 -1.2941 -0.4796 -1.3885
13381TIP3   OH261633   3.663   5.657  14.730  0.1803 -0.5968 -0.4492
13381TIP3    H161634   3.591   5.654  14.668 -0.1793 -1.1633 -0.0081
13381TIP3    H261635   3.688   5.565  14.742  0.6164 -0.4460 -0.1834
13382TIP3   OH261636   4.805   3.058  13.044  0.7796  0.5560  0.4743
13382TIP3    H161637   4.795   3.007  13.125  1.6376 -1.0003 -0.3497
13382TIP3    H261638   4.827   2.993  12.977 -1.5287  1.5312 -1.4140
13383TIP3   OH261639   6.257   3.379   3.165 -0.3797  0.0903  0.4685
13383TIP3    H161640   6.199   3.331   3.105 -1.1333  0.3007  1.0148
13383TIP3    H261641   6.331   3.320   3.179  1.3033  1.1453 -2.9262
13384TIP3   OH261642   6.456   0.245  12.061  0.5217  0.2413 -0.2315
13384TIP3    H161643   6.373   0.270  12.020  0.1773 -0.9753 -0.3092
13384TIP3    H261644   6.507   0.206  11.990  0.1003 -1.4664  0.3614
13385TIP3   OH261645   3.110   2.991  15.477  0.5261  0.0448  0.4732
13385TIP3    H161646   3.137   3.079  15.505 -1.5923  1.6815 -2.1095
13385TIP3    H261647   3.161   2.975  15.398 -0.9305  0.1482 -0.5236
13386TIP3   OH261648   0.344   2.484   4.784  0.2242 -0.3567 -0.0351
13386TIP3    H161649   0.341   2.393   4.813  1.1070 -0.4249 -0.1289
13386TIP3    H261650   0.332   2.535   4.865  1.7619 -0.5532  0.3400
13387TIP3   OH261651   4.477   6.129   5.946 -0.0822 -0.3887  0.3975
13387TIP3    H161652   4.469   6.060   5.880  1.0712 -0.4639  0.3100
13387TIP3    H261653   4.519   6.087   6.021 -0.4551 -0.0615  0.7946
13388TIP3   OH261654   1.303   2.535  16.291  0.3209 -0.7517  0.3207
13388TIP3    H161655   1.379   2.591  16.275 -2.0746  3.2097  1.5325
13388TIP3    H261656   1.295   2.483  16.211  2.1014  1.4342 -1.4310
13389TIP3   OH261657   6.640   1.213   2.471 -0.5115  0.0487 -0.0130
13389TIP3    H161658   6.633   1.251   2.384  0.3600 -1.2395 -0.6779
13389TIP3    H261659   6.734   1.208   2.488 -0.6153 -1.1634  0.3152
13390TIP3   OH261660   6.258   3.784   2.424 -0.2974 -0.2129 -0.0033
13390TIP3    H161661   6.234   3.768   2.333 -0.3707  0.6369 -0.1427
13390TIP3    H261662   6.216   3.714   2.473  0.6982 -1.3595 -0.7426
13391TIP3   OH261663   4.676   4.781   2.367 -0.4564  0.2217  0.0362
13391TIP3    H161664   4.732   4.854   2.393 -1.5372  0.6106  1.4146
13391TIP3    H261665   4.729   4.703   2.384  0.2043  0.6313 -0.1051
13392TIP3   OH261666   1.175   5.164   2.993  0.0493  0.1658  0.0554
13392TIP3    H161667   1.176   5.245   2.941  0.7977 -0.6965 -1.3556
13392TIP3    H261668   1.122   5.104   2.941  0.0710 -0.4616  0.7529
13393TIP3   OH261669   2.495   6.354   3.331  0.0991 -0.8336 -1.2555
13393TIP3    H161670   2.409   6.343   3.291 -0.2500 -0.1577 -0.7100
13393TIP3    H261671   2.557   6.330   3.263 -0.5399 -2.6416 -1.2525
13394TIP3   OH261672   6.113   1.682   5.840  0.1593 -0.1665 -0.6322
13394TIP3    H161673   6.089   1.773   5.823 -0.5968 -0.5200 -1.6031
13394TIP3    H261674   6.039   1.646   5.888  0.6530 -0.1626  0.1474
13395TIP3   OH261675   2.520   5.344  15.898 -0.4794 -0.6956  0.0682
13395TIP3    H161676   2.464   5.344  15.820  0.1513 -2.1491 -0.4092
13395TIP3    H261677   2.519   5.253  15.929  0.4914 -0.4539  0.8757
13396TIP3   OH261678   6.131   4.306  11.510  0.2865 -0.2820  0.3858
13396TIP3    H161679   6.200   4.294  11.575 -0.2798  1.9549  1.4901
13396TIP3    H261680   6.067   4.363  11.552 -1.5007 -1.0287 -1.1702
13397TIP3   OH261681   3.539   4.847   2.990 -0.1879  0.2439  0.1149
13397TIP3    H161682   3.628   4.883   2.979 -1.5374  3.5982 -1.0410
13397TIP3    H261683   3.508   4.884   3.072 -1.0591  0.3099 -0.2404
13398TIP3   OH261684   3.704   5.110  15.095 -0.5288  0.1716 -0.3336
13398TIP3    H161685   3.763   5.164  15.148  0.6332  1.1169 -2.4493
13398TIP3    H261686   3.642   5.172  15.057 -0.7540 -0.3323 -0.8076
13399TIP3   OH261687   4.099   6.852  15.220 -1.1734  0.0077  0.0347
13399TIP3    H161688   4.125   6.766  15.187  2.4825  0.3190  1.6038
13399TIP3    H261689   4.018   6.836  15.268  0.0221 -2.9020  1.3204
13400TIP3   OH261690   1.465   2.619  12.661 -0.0781  0.1762  0.6946
13400TIP3    H161691   1.408   2.587  12.590  1.6029 -1.0145 -0.2058
13400TIP3    H261692   1.429   2.704  12.684 -1.5035 -0.0054 -0.6517
13401TIP3   OH261693   4.052   5.617   6.260 -0.1779  0.5807 -0.0253
13401TIP3    H161694   4.088   5.616   6.171 -0.7820  0.1686 -0.2783
13401TIP3    H261695   4.005   5.533   6.267  0.9519  0.0252  1.1496
13402TIP3   OH261696   4.206   2.361  13.896  0.1986 -0.2318  0.1104
13402TIP3    H161697   4.231   2.310  13.818  1.6604 -2.2872  1.8082
13402TIP3    H261698   4.180   2.294  13.960  0.2850  1.3074  1.8192
13403TIP3   OH261699   1.209   0.256   0.316 -0.0128 -1.2107  0.1208
13403TIP3    H161700   1.241   0.203   0.243 -1.4754  0.1923 -1.6313
13403TIP3    H261701   1.244   0.344   0.299 -0.7328 -0.7592  0.8864
13404TIP3   OH261702   5.115   6.162   2.840  0.2040  0.1167  0.2175
13404TIP3    H161703   5.194   6.194   2.796 -0.5861  0.1013 -1.2697
13404TIP3    H261704   5.046   6.223   2.815 -0.8425 -1.3870 -0.8199
13405TIP3   OH261705   3.730   5.417   5.372 -0.3100  0.0616  0.2436
13405TIP3    H161706   3.746   5.366   5.452 -0.8019 -0.7689 -0.1775
13405TIP3    H261707   3.709   5.505   5.404 -2.0478 -0.6242  1.1224
13406TIP3   OH261708   0.602   5.789  16.929 -0.4565 -0.4482 -0.6278
13406TIP3    H161709   0.569   5.878  16.929  1.2166  0.2546  1.2884
13406TIP3    H261710   0.558   5.747  17.003  0.2772 -0.5539 -0.2366
13407TIP3   OH261711   2.237   6.225   4.189 -0.4330 -0.8297  0.5203
13407TIP3    H161712   2.157   6.182   4.219 -0.9989  0.4534  0.9453
13407TIP3    H261713   2.260   6.285   4.260 -0.2919  0.3486 -0.4878
13408TIP3   OH261714   3.681   0.220  14.067  0.7271 -0.2795  0.2035
13408TIP3    H161715   3.723   0.135  14.076 -0.1434 -0.7839 -0.3170
13408TIP3    H261716   3.597   0.210  14.110 -0.0773 -0.2187 -1.2762
13409TIP3   OH261717   5.410   6.098  15.439 -0.1734  0.0970 -0.3243
13409TIP3    H161718   5.501   6.123  15.428 -0.4470  0.2229 -3.3158
13409TIP3    H261719   5.389   6.119  15.530  2.0114  2.5717 -0.2887
13410TIP3   OH261720   5.837   4.073  15.810  0.0869 -0.2148 -0.6569
13410TIP3    H161721   5.928   4.083  15.780 -0.2142  0.6471 -1.3223
13410TIP3    H261722   5.841   4.087  15.904  0.4631  1.2570 -0.8605
13411TIP3   OH261723   2.467   5.106  16.725  0.3507 -0.1423 -0.1625
13411TIP3    H161724   2.388   5.052  16.726  0.7011 -0.6618  0.1624
13411TIP3    H261725   2.456   5.167  16.798  0.3893 -0.4201  0.0761
13412TIP3   OH261726   2.745   3.636   1.295 -0.0688 -0.3487 -0.1986
13412TIP3    H161727   2.835   3.665   1.278 -0.7248  2.6297  0.7071
13412TIP3    H261728   2.740   3.626   1.391 -0.4916 -1.3026 -0.3113
13413TIP3   OH261729   4.540   0.092  12.210  0.5462  0.2845 -0.6086
13413TIP3    H161730   4.579   0.158  12.153 -0.1487  1.3552  0.1292
13413TIP3    H261731   4.576   0.111  12.297  1.0241 -0.8679 -0.5408
13414TIP3   OH261732   0.679   6.437   5.259  0.1030 -0.2325 -0.5824
13414TIP3    H161733   0.764   6.400   5.282  0.2608  0.5784  0.2311
13414TIP3    H261734   0.621   6.361   5.250  1.1041 -0.8508 -2.0815
13415TIP3   OH261735   1.843   0.280   5.427 -0.2303  0.5261 -0.4409
13415TIP3    H161736   1.813   0.358   5.473 -1.9403 -0.8985  1.0026
13415TIP3    H261737   1.763   0.232   5.406  0.8069 -2.3210  1.4845
13416TIP3   OH261738   3.330   0.084  16.152 -0.2851  0.0107  0.7217
13416TIP3    H161739   3.371   0.170  16.140 -0.9107  0.0080 -2.2600
13416TIP3    H261740   3.239   0.103  16.175 -0.6205  0.2071 -0.6900
13417TIP3   OH261741   1.011   1.963   2.892  0.2665 -0.0045  0.1163
13417TIP3    H161742   0.944   2.030   2.879  2.1393  1.7327 -1.1220
13417TIP3    H261743   1.032   1.932   2.804  0.8921 -0.7528  0.5118
13418TIP3   OH261744   0.285   3.304   3.325 -0.5949 -0.0747 -0.4910
13418TIP3    H161745   0.262   3.365   3.396  2.3123 -1.3653  1.7966
13418TIP3    H261746   0.340   3.356   3.266  0.5579 -0.0026  0.5942
13419TIP3   OH261747   2.188   6.678  15.352 -0.1015 -0.2970 -0.3886
13419TIP3    H161748   2.206   6.596  15.397 -0.5830  0.2823  0.8922
13419TIP3    H261749   2.167   6.651  15.262 -1.2985 -1.6779  0.2630
13420TIP3   OH261750   6.783   4.454   1.697  0.4794 -0.1257  0.5774
13420TIP3    H161751   6.760   4.361   1.700  0.4456 -0.1543 -0.3574
13420TIP3    H261752   6.726   4.491   1.630  0.4214  0.5968  1.0136
13421TIP3   OH261753   1.983   3.761   4.063 -0.6295 -0.1444 -0.3174
13421TIP3    H161754   1.982   3.850   4.096 -0.3263 -0.1753 -0.2226
13421TIP3    H261755   1.910   3.757   4.001 -1.5539 -0.2397  0.7354
13422TIP3   OH261756   2.646   1.624  11.420  0.3464  0.0888  0.3654
13422TIP3    H161757   2.636   1.588  11.507  1.1937  0.9949  0.8611
13422TIP3    H261758   2.570   1.682  11.409  0.2413 -0.0240  0.5086
13423TIP3   OH261759   6.439   0.846  12.994  0.5342  0.1081 -0.8931
13423TIP3    H161760   6.380   0.781  12.956  0.5659 -0.6538  0.3058
13423TIP3    H261761   6.382   0.908  13.038  0.5655 -1.4161  1.5224
13424TIP3   OH261762   0.390   0.285  13.218  0.2898  0.4727  0.2818
13424TIP3    H161763   0.477   0.245  13.222  0.7093  1.3116 -0.3438
13424TIP3    H261764   0.384   0.322  13.130 -1.1240 -0.4975 -0.0762
13425TIP3   OH261765   5.958   4.345  10.372  0.5230 -0.2277  0.5341
13425TIP3    H161766   5.869   4.358  10.405  0.5881 -0.6385  0.8793
13425TIP3    H261767   5.964   4.251  10.357  0.5679 -0.0681 -0.4528
13426TIP3   OH261768   2.373   1.639  15.530 -0.1055 -0.5758 -0.1940
13426TIP3    H161769   2.391   1.545  15.531 -0.5803 -0.7137 -2.1192
13426TIP3    H261770   2.452   1.678  15.491  0.3017 -0.0945  1.0546
13427TIP3   OH261771   5.057   4.487  11.477 -0.1979  0.3103  0.8564
13427TIP3    H161772   4.973   4.457  11.443 -0.3964 -0.2401  1.7948
13427TIP3    H261773   5.120   4.422  11.446 -0.1382  0.6024  0.3412
13428TIP3   OH261774   6.184   4.994   4.084  0.6144 -0.6022  0.4008
13428TIP3    H161775   6.183   5.058   4.013  2.3990  1.2961  1.9763
13428TIP3    H261776   6.209   5.044   4.162  3.1384 -3.3650  1.5400
13429TIP3   OH261777   0.461   2.241  12.865  0.3444  0.2709 -0.2345
13429TIP3    H161778   0.375   2.258  12.827 -0.9496  1.5092  2.9382
13429TIP3    H261779   0.444   2.190  12.944  2.5571  0.2201  0.2979
13430TIP3   OH261780   3.818   1.650   1.143 -0.5943 -0.3442 -0.1046
13430TIP3    H161781   3.782   1.576   1.191 -0.4974 -0.6862 -0.5573
13430TIP3    H261782   3.788   1.727   1.192 -0.3293 -0.6944  0.6080
13431TIP3   OH261783   4.193   1.096   0.915 -0.9403  0.4119 -0.3997
13431TIP3    H161784   4.244   1.015   0.903 -0.8465  0.4608 -0.3299
13431TIP3    H261785   4.149   1.084   0.999  0.6556  1.2824  0.6039
13432TIP3   OH261786   0.575   0.592   5.989 -0.1620  0.5337  0.1143
13432TIP3    H161787   0.488   0.584   5.950 -0.8590 -0.2862  1.7250
13432TIP3    H261788   0.558   0.613   6.081  1.3288 -0.1036  0.5678
13433TIP3   OH261789   1.794   4.307   6.043 -0.5801  0.6971  0.5004
13433TIP3    H161790   1.709   4.338   6.073 -1.4141 -1.5635  0.7119
13433TIP3    H261791   1.783   4.294   5.949 -0.5498  0.2312  0.5562
13434TIP3   OH261792   3.551   6.227   3.189  0.5792 -0.5256  0.1023
13434TIP3    H161793   3.613   6.228   3.262  1.1440  2.2132 -0.3031
13434TIP3    H261794   3.465   6.224   3.231  0.8493  2.1417  1.0632
13435TIP3   OH261795   1.023   2.680  15.673  0.4325 -0.6496 -0.3671
13435TIP3    H161796   1.084   2.691  15.600  0.1104 -0.3037 -0.5877
13435TIP3    H261797   1.071   2.712  15.749 -0.7229  3.3452 -1.0787
13436TIP3   OH261798   6.219   0.855   0.384 -0.0603 -0.1484  0.4943
13436TIP3    H161799   6.154   0.910   0.427  0.7423  1.1468  0.0924
13436TIP3    H261800   6.222   0.775   0.436 -0.4510  0.6270  1.7303
13437TIP3   OH261801   4.449   5.590  15.153  0.1724  0.3051  0.1628
13437TIP3    H161802   4.477   5.498  15.164  0.6885  0.3029 -1.0442
13437TIP3    H261803   4.531   5.638  15.145 -0.1207  0.6443 -0.9070
13438TIP3   OH261804   2.803   2.979  12.401 -0.5614 -0.0297  0.0418
13438TIP3    H161805   2.793   2.885  12.383 -0.0871 -0.6880  2.8194
13438TIP3    H261806   2.786   2.988  12.495 -0.0426  2.6085 -0.0317
13439TIP3   OH261807   1.991   2.732   1.401 -0.3162  0.0669 -0.4258
13439TIP3    H161808   1.971   2.661   1.462  0.9458  0.0491  0.0051
13439TIP3    H261809   2.004   2.688   1.317  3.7649 -0.7788  0.4488
13440TIP3   OH261810   3.426   4.552   4.189  0.3214  0.0535  0.0455
13440TIP3    H161811   3.418   4.470   4.140 -1.5183 -0.0942  0.5307
13440TIP3    H261812   3.336   4.575   4.212  0.9618  1.2278  1.5374
13441TIP3   OH261813   6.485   4.761  11.368 -0.1410  0.4668  0.2074
13441TIP3    H161814   6.493   4.770  11.274  2.2639  0.5352  0.3581
13441TIP3    H261815   6.459   4.848  11.398  1.1968  1.0644 -0.2555
13442TIP3   OH261816   3.420   1.075  13.564  0.9244 -0.0194  0.1557
13442TIP3    H161817   3.432   1.150  13.622  0.8769  2.5778 -2.9472
13442TIP3    H261818   3.505   1.032  13.562  1.0959  0.2038  1.5706
13443TIP3   OH261819   6.036   2.751   5.297  0.2879 -0.0631 -0.2055
13443TIP3    H161820   5.989   2.808   5.358  0.2265 -0.1693 -0.1535
13443TIP3    H261821   6.117   2.798   5.277 -0.1102  0.3972 -0.7602
13444TIP3   OH261822   6.868   4.154  17.003  0.1006  0.3828  0.0320
13444TIP3    H161823   6.916   4.237  17.001  1.0698  0.1423  4.1721
13444TIP3    H261824   6.924   4.093  16.956  1.3221  1.2720  0.2857
13445TIP3   OH261825   2.097   2.489  11.372 -0.3182 -1.1110 -0.3003
13445TIP3    H161826   2.068   2.570  11.413 -0.4089 -1.9617  1.3827
13445TIP3    H261827   2.190   2.502  11.354 -0.0580 -1.0333  1.0271
13446TIP3   OH261828   2.809   4.558   1.672 -0.5102 -0.3607  0.2370
13446TIP3    H161829   2.820   4.537   1.765 -0.9227 -1.1073  0.1273
13446TIP3    H261830   2.790   4.473   1.631 -1.0372  0.0719 -0.4237
13447TIP3   OH261831   2.397   4.129  12.465  1.0202 -0.3227 -0.5832
13447TIP3    H161832   2.307   4.152  12.487  0.2619 -1.3480 -2.4067
13447TIP3    H261833   2.446   4.211  12.474  0.1250  0.0460  1.3361
13448TIP3   OH261834   3.262   3.808   4.359  0.6723 -0.4500 -0.2399
13448TIP3    H161835   3.197   3.738   4.358 -1.6523  1.4878  1.7710
13448TIP3    H261836   3.211   3.889   4.353  2.8555  1.2121  1.5157
13449TIP3   OH261837   0.742   3.907   1.015 -0.0761 -0.2691  0.1825
13449TIP3    H161838   0.727   3.877   1.105  0.7687 -0.0012  0.4204
13449TIP3    H261839   0.683   3.853   0.962 -2.0557  0.8951  1.0701
13450TIP3   OH261840   3.055   5.664   6.298  0.3020 -0.1831  0.1955
13450TIP3    H161841   3.044   5.735   6.362  1.5833 -0.1358  0.3936
13450TIP3    H261842   3.021   5.586   6.342 -0.3593  0.1492  0.2871
13451TIP3   OH261843   1.805   5.633   5.434  0.5933  0.6996 -0.0195
13451TIP3    H161844   1.868   5.570   5.468 -0.0895 -0.8045 -1.4267
13451TIP3    H261845   1.722   5.586   5.432 -0.5060  2.4603  1.2524
13452TIP3   OH261846   3.723   4.345  13.946 -0.1521  0.1817 -0.0269
13452TIP3    H161847   3.673   4.425  13.961  1.9999  1.5408  0.4639
13452TIP3    H261848   3.761   4.324  14.031  1.3796  0.1750 -0.6648
13453TIP3   OH261849   2.264   0.453   0.393  0.0283 -0.1017  0.3155
13453TIP3    H161850   2.293   0.499   0.472  0.4405  0.3615 -0.1036
13453TIP3    H261851   2.205   0.385   0.426  1.8967 -1.3698  1.2645
13454TIP3   OH261852   1.033   0.530  13.867 -0.1485  0.0005  0.0172
13454TIP3    H161853   1.106   0.589  13.886 -0.1147  0.1842 -0.6380
13454TIP3    H261854   1.061   0.483  13.789 -0.7457  0.1047 -0.2639
13455TIP3   OH261855   5.574   3.497  13.041 -0.3182 -0.0826  0.0752
13455TIP3    H161856   5.602   3.513  13.131 -0.5022 -2.0857  0.5379
13455TIP3    H261857   5.479   3.508  13.043 -0.3993 -0.7653  0.2995
13456TIP3   OH261858   3.560   5.420  13.456  0.3489 -0.6612 -0.2204
13456TIP3    H161859   3.487   5.373  13.497 -0.9911  1.1773 -0.3541
13456TIP3    H261860   3.636   5.397  13.509 -0.4780 -1.9254  0.4830
13457TIP3   OH261861   1.280   0.789  15.472  0.7597  0.2274  0.1644
13457TIP3    H161862   1.370   0.794  15.503  0.8798 -0.7188 -0.0099
13457TIP3    H261863   1.269   0.865  15.415  1.0266  1.0954  1.2469
13458TIP3   OH261864   4.276   0.125   0.003  0.3551  0.1857 -0.3005
13458TIP3    H161865   4.189   0.160  -0.020  0.3755  0.9161  0.6841
13458TIP3    H261866   4.281   0.134   0.098  1.0902 -0.8631 -0.2250
13459TIP3   OH261867   6.795   3.601  16.272 -0.0117 -0.9111 -0.6883
13459TIP3    H161868   6.704   3.589  16.299 -0.2171  0.1671 -0.8812
13459TIP3    H261869   6.845   3.559  16.342 -0.6306 -0.9766 -0.2730
13460TIP3   OH261870   5.779   6.818   4.245  0.3888  0.1460  0.2337
13460TIP3    H161871   5.814   6.902   4.216 -0.8041  0.0378 -1.7421
13460TIP3    H261872   5.690   6.838   4.275  0.7915 -0.1327  1.6837
13461TIP3   OH261873   0.749   0.001  16.797 -0.3648 -0.1989  0.0008
13461TIP3    H161874   0.808  -0.073  16.783 -2.3544 -1.3233 -3.7887
13461TIP3    H261875   0.764   0.059  16.722 -2.1969  0.7859  0.3218
13462TIP3   OH261876   4.449   3.368  12.696  0.4077  0.3504 -0.3644
13462TIP3    H161877   4.538   3.335  12.705  0.1416 -1.4163 -3.0633
13462TIP3    H261878   4.435   3.421  12.775  3.8027  0.7240  0.1447
13463TIP3   OH261879   1.430   3.454  11.879 -0.4259  0.4186 -0.2096
13463TIP3    H161880   1.503   3.475  11.938 -0.2184 -2.1548  0.5909
13463TIP3    H261881   1.425   3.528  11.819  0.5054  2.3280  1.9477
13464TIP3   OH261882   4.275   0.933  16.153  0.1853 -0.2916 -0.1635
13464TIP3    H161883   4.310   0.918  16.065 -0.2631 -0.9884 -0.2303
13464TIP3    H261884   4.208   1.000  16.141 -0.1204 -0.6414 -0.4086
13465TIP3   OH261885   4.413   5.831  13.681 -0.2789 -0.2445 -0.0270
13465TIP3    H161886   4.399   5.824  13.586  0.6434 -2.2174 -0.0746
13465TIP3    H261887   4.374   5.915  13.705  0.0445  0.6175 -2.2574
13466TIP3   OH261888   0.734   3.741  14.285 -0.3139 -0.1393  0.6515
13466TIP3    H161889   0.723   3.772  14.375  1.4127  0.4997  0.6854
13466TIP3    H261890   0.818   3.694  14.287 -0.4945 -0.5260 -0.5260
13467TIP3   OH261891   0.730   4.799   2.996  0.1934  0.7142  0.3385
13467TIP3    H161892   0.648   4.847   3.007  0.0662 -0.0925  4.0007
13467TIP3    H261893   0.707   4.707   3.009  1.4470  0.3253 -0.0012
13468TIP3   OH261894   5.729   4.937   3.793  0.2209 -0.0073 -0.6490
13468TIP3    H161895   5.814   4.896   3.777 -0.2830 -1.0708 -0.7245
13468TIP3    H261896   5.732   5.018   3.743  1.8761  0.9262  0.8405
13469TIP3   OH261897   1.147   6.851   6.180 -0.5375  0.3504  0.7606
13469TIP3    H161898   1.090   6.776   6.197  1.3812 -0.8578  2.3700
13469TIP3    H261899   1.174   6.881   6.267  2.7315 -0.3703  0.1328
13470TIP3   OH261900   5.521   5.147  11.144 -0.7099 -0.1747  0.0527
13470TIP3    H161901   5.527   5.195  11.062 -1.5060  0.9450  0.6221
13470TIP3    H261902   5.428   5.123  11.150 -0.3488 -1.7457 -0.1795
13471TIP3   OH261903   4.054   5.538  10.765 -0.2436  0.2555  0.2056
13471TIP3    H161904   4.111   5.547  10.842 -0.5907 -0.3505  0.5406
13471TIP3    H261905   4.105   5.577  10.693  0.6057 -0.3027  0.4894
13472TIP3   OH261906   4.404   6.385  11.281  0.0859 -0.0116 -0.0368
13472TIP3    H161907   4.427   6.409  11.371  1.4229  0.1874 -0.4116
13472TIP3    H261908   4.343   6.312  11.290  0.2006  0.0094  1.0285
13473TIP3   OH261909   3.609   3.793  11.771 -0.0628  0.6019 -0.3160
13473TIP3    H161910   3.565   3.873  11.744 -0.2581  0.0225 -1.7808
13473TIP3    H261911   3.665   3.820  11.844 -1.7860  1.6076  0.6776
13474TIP3   OH261912   2.539   3.339   6.521 -0.0575 -0.0920 -0.1574
13474TIP3    H161913   2.481   3.409   6.491  0.4658 -0.0120 -1.0356
13474TIP3    H261914   2.625   3.380   6.527  0.3926 -0.8000 -1.3486
13475TIP3   OH261915   0.341   1.389   0.205  0.2200 -0.1937  0.1971
13475TIP3    H161916   0.364   1.477   0.176  0.9760 -0.7256 -0.8763
13475TIP3    H261917   0.257   1.370   0.162  0.7857 -0.5520 -0.7614
13476TIP3   OH261918   4.511   0.613  16.812 -0.1038  0.6932  0.7153
13476TIP3    H161919   4.444   0.673  16.844  0.4502  1.0633  1.2211
13476TIP3    H261920   4.594   0.654  16.839  0.2580 -1.2195  2.7802
13477TIP3   OH261921   0.977   1.188  16.771 -0.7229  0.0544  0.2497
13477TIP3    H161922   1.025   1.210  16.851  1.9213 -1.6910 -0.7406
13477TIP3    H261923   1.033   1.215  16.700 -1.3790 -1.6410 -0.9877
13478TIP3   OH261924   2.502   4.879  11.994 -0.0297 -0.1472 -0.6914
13478TIP3    H161925   2.571   4.939  12.024 -0.9705  0.7858 -0.3481
13478TIP3    H261926   2.459   4.850  12.074 -1.2669  0.7991 -0.9729
13479TIP3   OH261927   0.661   3.449   3.960  0.0100 -0.2102 -0.0939
13479TIP3    H161928   0.655   3.364   3.916 -2.5904 -0.2602  0.1917
13479TIP3    H261929   0.622   3.511   3.898  0.7243  0.5908  0.2245
13480TIP3   OH261930   1.943   1.712   0.217  0.8163  0.5206  0.5020
13480TIP3    H161931   2.019   1.760   0.183 -0.1556  1.2065 -0.8263
13480TIP3    H261932   1.925   1.752   0.302 -1.3900  4.3455 -1.5072
13481TIP3   OH261933   3.358   4.140   3.304 -0.4224 -0.4830  0.2608
13481TIP3    H161934   3.402   4.186   3.232  0.1414 -0.8389  0.3674
13481TIP3    H261935   3.314   4.066   3.261 -2.0850  0.6304 -0.0375
13482TIP3   OH261936   1.749   0.240  11.995  0.6114 -0.3486  0.5298
13482TIP3    H161937   1.752   0.258  12.089 -0.7226 -0.0918  0.5427
13482TIP3    H261938   1.814   0.298  11.958  1.7392 -1.0313  1.3712
13483TIP3   OH261939   6.350   4.431   1.369 -0.4001 -0.4635  0.1840
13483TIP3    H161940   6.287   4.443   1.298 -0.5449  0.4789  0.4634
13483TIP3    H261941   6.304   4.462   1.447 -0.0856 -1.0821  0.6217
13484TIP3   OH261942   0.653   6.316  12.911 -0.3751  0.2731 -0.1555
13484TIP3    H161943   0.678   6.367  12.833 -1.2593  3.4095  1.4618
13484TIP3    H261944   0.565   6.346  12.932  0.0268 -0.0993  2.3284
13485TIP3   OH261945   1.628   0.140   0.187 -0.0694 -0.0882  0.8679
13485TIP3    H161946   1.709   0.104   0.150  0.3168  2.3017 -0.7940
13485TIP3    H261947   1.560   0.117   0.124 -0.3191 -0.1720  1.1598
13486TIP3   OH261948   1.011   1.049  10.726 -0.6194 -0.1604 -0.3838
13486TIP3    H161949   0.988   1.015  10.639 -0.8445 -0.2373 -0.2949
13486TIP3    H261950   1.014   0.972  10.782  1.2994 -0.3619 -0.6818
13487TIP3   OH261951   5.494   3.737  15.817 -0.2089  0.6787 -0.0542
13487TIP3    H161952   5.400   3.754  15.823  0.0155  3.4522 -2.2905
13487TIP3    H261953   5.500   3.652  15.773 -1.6234  0.1925  0.6232
13488TIP3   OH261954   1.023   3.168   2.694  0.2522 -0.2461  0.0736
13488TIP3    H161955   1.065   3.189   2.777  2.8032 -2.7831 -0.4312
13488TIP3    H261956   0.930   3.157   2.716  0.8821 -1.0284  2.6440
13489TIP3   OH261957   3.239   6.536  14.467 -0.0412 -0.0580  0.0593
13489TIP3    H161958   3.278   6.463  14.515  1.2698  1.1776  0.9578
13489TIP3    H261959   3.310   6.570  14.414 -0.9672 -0.1617 -1.3098
13490TIP3   OH261960   2.833   0.884  14.846  0.3493 -0.1161  0.3625
13490TIP3    H161961   2.760   0.942  14.869 -0.4006 -1.7427  2.3541
13490TIP3    H261962   2.794   0.797  14.841  2.1899 -1.1277  2.0848
13491TIP3   OH261963   3.396   6.818  15.400 -0.0666  0.3086 -0.2008
13491TIP3    H161964   3.479   6.865  15.391 -0.3326  0.4142 -5.8867
13491TIP3    H261965   3.335   6.883  15.435  1.6801  0.8666  2.0403
13492TIP3   OH261966   1.809   1.222  15.841 -0.5865  0.0524  0.5346
13492TIP3    H161967   1.814   1.296  15.780 -0.3200 -0.6208 -0.2683
13492TIP3    H261968   1.774   1.261  15.921 -0.1437  1.1189  0.2342
13493TIP3   OH261969   2.476   2.049  13.060  0.1347  0.1046 -0.1587
13493TIP3    H161970   2.481   1.988  12.987  0.4883 -0.1628  0.0814
13493TIP3    H261971   2.567   2.068  13.081  0.0406  1.8107 -1.1210
13494TIP3   OH261972   3.238   6.317  13.109  0.2600 -0.0385 -0.1379
13494TIP3    H161973   3.263   6.398  13.154 -1.5249  0.7899 -0.5492
13494TIP3    H261974   3.246   6.339  13.016 -3.4579  0.8952 -0.3811
13495TIP3   OH261975   5.004   0.588   4.084 -0.0829  0.4006 -0.5621
13495TIP3    H161976   5.066   0.542   4.140  1.3569  1.3423 -1.3000
13495TIP3    H261977   4.953   0.519   4.042 -0.1639 -0.3605  0.7525
13496TIP3   OH261978   4.319   4.005   3.829 -0.1198 -0.0824  0.4549
13496TIP3    H161979   4.350   3.994   3.739  0.3430 -0.1751  0.6217
13496TIP3    H261980   4.224   3.996   3.823 -0.4339  2.8018 -0.4844
13497TIP3   OH261981   3.979   5.511   4.662 -0.0039  0.1936 -0.0864
13497TIP3    H161982   4.029   5.515   4.580 -1.5841 -1.7400 -1.2210
13497TIP3    H261983   3.892   5.541   4.639 -0.4421 -0.2590  0.9260
13498TIP3   OH261984   2.693   0.381   5.154 -0.0305 -0.0544 -0.2150
13498TIP3    H161985   2.636   0.338   5.218  0.2292  1.8185  1.4027
13498TIP3    H261986   2.781   0.373   5.191  0.0954  1.2502 -0.1780
13499TIP3   OH261987   1.375   2.522   1.049 -0.2425  0.0117 -0.4542
13499TIP3    H161988   1.445   2.587   1.046  0.0565 -0.3276 -0.9908
13499TIP3    H261989   1.420   2.438   1.041 -0.5395 -0.3314  1.1313
13500TIP3   OH261990   4.636   1.908   1.183 -0.0510 -0.0541  0.2655
13500TIP3    H161991   4.609   1.997   1.158  1.2518  0.3588  0.2827
13500TIP3    H261992   4.731   1.911   1.183  0.0175 -1.6277 -0.3179
13501TIP3   OH261993   0.665   2.996  15.077  0.5366  0.4010 -0.1594
13501TIP3    H161994   0.741   2.994  15.136  0.5159  1.1627 -0.0999
13501TIP3    H261995   0.629   2.907  15.081  0.2653  0.5531  1.3257
13502TIP3   OH261996   4.589   3.183   0.593 -0.6432 -0.1118  0.0716
13502TIP3    H161997   4.581   3.107   0.650 -0.9127  0.1300  0.3596
13502TIP3    H261998   4.676   3.218   0.611 -0.1424 -0.9111 -0.7633
13503TIP3   OH261999   0.313   6.229   4.513  0.6060 -0.0790 -0.3958
13503TIP3    H162000   0.300   6.277   4.595  1.0759  1.3793 -1.1403
13503TIP3    H262001   0.403   6.196   4.518 -0.0970 -2.0267  0.6465
13504TIP3   OH262002   0.942   4.452  14.786  0.5007 -0.1274  0.2929
13504TIP3    H162003   1.004   4.511  14.745 -0.2622  0.0422 -0.6341
13504TIP3    H262004   0.997   4.390  14.835  1.2979  1.4857  1.5244
13505TIP3   OH262005   6.030   4.692  15.880 -0.2152  0.4992 -0.8254
13505TIP3    H162006   6.084   4.770  15.882 -0.5529  0.7849 -1.8780
13505TIP3    H262007   5.941   4.723  15.898 -0.0386  0.0065  1.0996
13506TIP3   OH262008   2.466   3.987  15.841 -0.1564 -0.1823 -0.6638
13506TIP3    H162009   2.547   3.941  15.818 -0.1726 -0.7216  0.3194
13506TIP3    H262010   2.398   3.920  15.835 -0.5112  0.2330 -1.3357
13507TIP3   OH262011   3.928   4.187   5.040 -0.0415  0.0825 -0.2440
13507TIP3    H162012   3.833   4.187   5.026 -0.0586  1.5377 -0.3308
13507TIP3    H262013   3.939   4.228   5.126  0.5314  0.4672 -0.4995
13508TIP3   OH262014   5.352   4.724   5.029  0.0334  0.2951  0.4254
13508TIP3    H162015   5.305   4.790   4.977 -1.9413 -0.6182  0.9879
13508TIP3    H262016   5.386   4.662   4.964  2.4439  2.0691 -0.1734
13509TIP3   OH262017   6.428   6.383  16.031  0.5409  0.4971  0.0034
13509TIP3    H162018   6.386   6.461  16.068 -1.2939 -1.1694  1.7263
13509TIP3    H262019   6.385   6.370  15.946 -1.2001 -0.1096  0.9188
13510TIP3   OH262020   5.450   1.248   3.867  0.1289 -0.1128  0.3428
13510TIP3    H162021   5.435   1.339   3.890  0.5265  0.5969 -1.9053
13510TIP3    H262022   5.368   1.220   3.826 -0.0226 -0.7969  1.1010
13511TIP3   OH262023   1.013   1.914   2.146  0.1079  0.0971  0.7890
13511TIP3    H162024   1.082   1.851   2.164  0.2350 -0.2511 -0.7774
13511TIP3    H262025   1.021   1.933   2.052 -0.9017  1.2718  0.9097
13512TIP3   OH262026   6.145   0.476  16.574 -0.2463 -0.1651  0.4634
13512TIP3    H162027   6.124   0.437  16.489  0.4777 -1.0585  0.6928
13512TIP3    H262028   6.059   0.488  16.616 -0.8370  2.2561 -1.1973
13513TIP3   OH262029   4.036   0.089   5.506 -0.0641  0.6827 -0.2757
13513TIP3    H162030   4.100   0.018   5.508  1.3782  1.9212  0.6003
13513TIP3    H262031   4.030   0.114   5.414 -0.1306 -0.1771 -0.5066
13514TIP3   OH262032   2.569   6.558   4.395  0.3934 -0.3577 -0.0419
13514TIP3    H162033   2.590   6.641   4.351  1.2371 -1.8607 -2.6797
13514TIP3    H262034   2.491   6.577   4.446 -0.1366  1.7683 -1.5104
13515TIP3   OH262035   6.369   5.342  11.038  0.1664  0.1097 -0.2383
13515TIP3    H162036   6.425   5.273  11.002 -0.9064 -0.0644 -1.6254
13515TIP3    H262037   6.363   5.321  11.131 -0.2454 -1.7580 -0.6448
13516TIP3   OH262038   0.162   3.553  13.014  0.3695  0.5956 -0.1260
13516TIP3    H162039   0.185   3.468  13.052 -0.0952 -0.5075 -2.1594
13516TIP3    H262040   0.109   3.596  13.081  0.4705 -0.7778  0.8805
13517TIP3   OH262041   5.408   4.986  11.628 -0.3384  0.3624  0.0542
13517TIP3    H162042   5.497   4.983  11.594 -0.1124  1.7296  0.4554
13517TIP3    H262043   5.352   4.974  11.551  0.1452 -2.4299  0.0439
13518TIP3   OH262044   0.817   1.323  13.194  0.1579  0.3670  0.6276
13518TIP3    H162045   0.789   1.293  13.280  0.1021 -1.1419  0.1044
13518TIP3    H262046   0.735   1.346  13.149  0.1736  0.9642  0.8904
13519TIP3   OH262047   4.835   2.263   6.011 -0.2714  0.0686 -0.2648
13519TIP3    H162048   4.791   2.180   6.027 -0.9745  0.2709 -1.0423
13519TIP3    H262049   4.881   2.250   5.928  1.3347 -0.2006  0.6260
13520TIP3   OH262050   2.144   5.034  10.467 -0.4927 -0.4051 -0.4918
13520TIP3    H162051   2.117   5.005  10.380 -2.1801 -0.9609  0.1734
13520TIP3    H262052   2.239   5.032  10.464 -0.5035  0.1460 -2.4960
13521TIP3   OH262053   1.989   3.900  14.108  0.4593 -0.7517  0.0140
13521TIP3    H162054   2.025   3.985  14.134  3.4150 -1.7481 -0.4137
13521TIP3    H262055   1.935   3.919  14.031 -0.4278  0.9202  0.9871
13522TIP3   OH262056   4.961   2.770   3.133 -0.1960 -0.5859  0.0329
13522TIP3    H162057   5.023   2.800   3.200  1.0757 -0.5879 -1.0959
13522TIP3    H262058   5.011   2.774   3.051 -1.6852 -0.6714 -0.9074
13523TIP3   OH262059   2.091   3.583  15.386 -0.3582  0.3863 -0.0447
13523TIP3    H162060   2.133   3.500  15.363  1.3659  0.9902  0.7636
13523TIP3    H262061   1.998   3.566  15.376  0.0107 -1.3259 -0.9341
13524TIP3   OH262062   2.851   5.640  16.736 -0.4859 -0.0409  0.1225
13524TIP3    H162063   2.942   5.623  16.714  0.1102  1.4405  1.3082
13524TIP3    H262064   2.842   5.610  16.826 -0.9071  0.7204  0.3394
13525TIP3   OH262065   4.725   2.703  15.031 -0.2474  0.4339  0.0591
13525TIP3    H162066   4.736   2.660  14.947 -1.1763 -0.9806  0.6115
13525TIP3    H262067   4.630   2.702  15.046 -0.0581  0.2373  1.3316
13526TIP3   OH262068   3.656   2.542   5.425  0.3684 -0.0555 -0.1565
13526TIP3    H162069   3.631   2.634   5.440 -1.4587 -0.7116  1.1874
13526TIP3    H262070   3.676   2.508   5.512  1.3932 -0.8664 -0.6865
13527TIP3   OH262071   5.421   6.236   5.033  0.6201 -0.1517  0.4410
13527TIP3    H162072   5.436   6.145   5.010 -0.9881  0.2135 -2.6311
13527TIP3    H262073   5.381   6.233   5.121  3.6002 -2.0493  1.8778
13528TIP3   OH262074   5.888   4.164   4.765 -0.7075 -0.6305 -0.3589
13528TIP3    H162075   5.915   4.085   4.812 -0.6657 -0.4820 -0.1311
13528TIP3    H262076   5.797   4.178   4.791 -0.2399  0.3154  0.8981
13529TIP3   OH262077   2.262   5.775  12.303 -0.0826  0.0423  0.0048
13529TIP3    H162078   2.248   5.864  12.336  0.5465  0.0406  0.3008
13529TIP3    H262079   2.289   5.788  12.213 -1.3553  0.0717 -0.3927
13530TIP3   OH262080   5.039   6.724   0.148  0.3712 -0.1092 -0.1061
13530TIP3    H162081   5.097   6.649   0.160 -1.0700 -1.5466 -1.6116
13530TIP3    H262082   4.962   6.705   0.202 -0.8133 -0.6793 -1.9219
13531TIP3   OH262083   1.810   0.082   2.109 -0.2306  0.2205  0.1001
13531TIP3    H162084   1.748   0.135   2.160  0.7219  0.7953  0.6899
13531TIP3    H262085   1.785   0.098   2.018 -0.8006  0.6309  0.3203
13532TIP3   OH262086   1.537   0.252   2.445 -0.0493 -0.2286 -0.3701
13532TIP3    H162087   1.521   0.170   2.493  0.0863 -1.9539 -3.0875
13532TIP3    H262088   1.631   0.264   2.448  0.1499 -1.3152 -1.6520
13533TIP3   OH262089   1.269   0.609  13.273  0.1156 -0.0566 -0.3547
13533TIP3    H162090   1.228   0.531  13.311  0.7771 -0.3437 -0.2097
13533TIP3    H262091   1.316   0.650  13.346 -0.2413  0.4904 -0.4263
13534TIP3   OH262092   5.665   2.639  12.102  0.1339 -0.2819  0.1948
13534TIP3    H162093   5.712   2.556  12.108  0.4712 -0.1903 -0.9871
13534TIP3    H262094   5.579   2.615  12.067  0.9163  0.0516 -2.1303
13535TIP3   OH262095   1.638   1.695   0.382  0.1521 -0.2805 -0.1416
13535TIP3    H162096   1.647   1.784   0.349  0.1705  0.3930  1.5811
13535TIP3    H262097   1.546   1.688   0.408  0.2000 -0.6903 -0.0693
13536TIP3   OH262098   3.527   4.671  10.217 -0.0550  0.3031  0.5727
13536TIP3    H162099   3.546   4.626  10.135  1.5497  1.2911  0.3558
13536TIP3    H262100   3.557   4.611  10.285 -1.1656 -0.4163  0.4492
13537TIP3   OH262101   1.745   2.852   0.816  0.6315 -0.3566  0.2905
13537TIP3    H162102   1.815   2.914   0.794  0.2751 -0.5062 -1.4250
13537TIP3    H262103   1.775   2.810   0.897  1.5025  1.0984  0.7599
13538TIP3   OH262104   0.431   5.527  14.832  0.2451  0.5706 -0.0088
13538TIP3    H162105   0.397   5.587  14.899 -1.2707 -0.3866  0.1364
13538TIP3    H262106   0.402   5.564  14.749 -2.7811 -1.0342  0.1637
13539TIP3   OH262107   4.283   2.809   5.340  0.4162  0.2212 -0.0167
13539TIP3    H162108   4.315   2.734   5.290 -0.1646  0.3431 -0.5823
13539TIP3    H262109   4.195   2.783   5.368 -0.1257  1.0129 -0.9353
13540TIP3   OH262110   0.999   3.886  12.305  0.4720 -0.5770 -0.4647
13540TIP3    H162111   1.045   3.845  12.231  0.3632 -0.3109 -0.6834
13540TIP3    H262112   1.041   3.972  12.314  0.0032 -0.3219 -0.6819
13541TIP3   OH262113   2.144   2.919  10.926  0.0193  0.1596 -0.1376
13541TIP3    H162114   2.227   2.965  10.936 -1.2773  2.7813 -0.4895
13541TIP3    H262115   2.153   2.870  10.844  0.8981  1.1803 -0.6702
13542TIP3   OH262116   2.301   0.003   0.497  0.0825 -0.0695  0.1903
13542TIP3    H162117   2.375   0.019   0.439  0.4644  0.2015  0.7451
13542TIP3    H262118   2.317  -0.084   0.534  0.5317  0.3096  0.9035
13543TIP3   OH262119   1.055   3.675   1.225  0.3446  0.3845  0.1247
13543TIP3    H162120   1.139   3.630   1.224 -0.4267 -1.1302 -0.2532
13543TIP3    H262121   1.068   3.754   1.173  1.5167  0.1601  0.0630
13544TIP3   OH262122   3.029   5.974  13.074 -0.2440  0.3845  0.1443
13544TIP3    H162123   3.066   5.961  13.161 -1.1825  1.2386  0.6973
13544TIP3    H262124   3.103   5.997  13.018  0.3581 -0.1545  0.7214
13545TIP3   OH262125   3.546   0.290   6.276  0.1102 -0.6056 -0.4315
13545TIP3    H162126   3.633   0.318   6.306  0.9376 -0.0769 -3.0150
13545TIP3    H262127   3.540   0.198   6.303  0.5598 -0.0900  1.5783
13546TIP3   OH262128   2.809   5.258  12.060  0.0032  0.4591  0.3607
13546TIP3    H162129   2.903   5.268  12.048 -0.0341  0.6922  0.2725
13546TIP3    H262130   2.790   5.300  12.144 -0.0552  0.5985  0.2780
13547TIP3   OH262131   1.907   6.341  14.750 -0.4362  0.6298  0.2607
13547TIP3    H162132   1.979   6.403  14.745  0.8116 -0.8399 -1.6681
13547TIP3    H262133   1.924   6.292  14.831  1.5820 -0.5589 -0.7885
13548TIP3   OH262134   3.945   6.493  10.481  0.0902  0.8777 -0.2072
13548TIP3    H162135   3.990   6.410  10.468  1.1949  1.5623 -0.8834
13548TIP3    H262136   3.988   6.533  10.557 -2.0482 -0.2051  1.6877
13549TIP3   OH262137   2.948   6.137  16.164 -0.6831  0.0620 -0.3892
13549TIP3    H162138   2.872   6.112  16.216 -0.0214  1.4172  1.3649
13549TIP3    H262139   3.008   6.063  16.171 -1.5533 -0.7395 -1.2324
13550TIP3   OH262140   3.930   3.113  13.796  0.0024 -0.5073  0.5563
13550TIP3    H162141   3.890   3.121  13.709  1.6120  1.3777 -0.0824
13550TIP3    H262142   3.981   3.033  13.792 -0.2893 -0.6676 -0.0976
13551TIP3   OH262143   6.264   2.648  15.968 -0.3229  0.1810  0.1644
13551TIP3    H162144   6.351   2.633  15.931  0.0122 -0.1325  1.0367
13551TIP3    H262145   6.250   2.574  16.027 -0.8150  0.6829  0.6935
13552TIP3   OH262146   2.018   2.906   1.841  0.2252  0.6205  0.1011
13552TIP3    H162147   2.083   2.839   1.820 -0.3601 -0.2528  0.9769
13552TIP3    H262148   1.986   2.881   1.927 -1.8424  0.5677 -0.6372
13553TIP3   OH262149   4.457   1.658  13.954  0.2311 -0.1174 -0.2916
13553TIP3    H162150   4.520   1.607  14.006 -1.2322 -0.8305  0.8520
13553TIP3    H262151   4.498   1.664  13.867  1.7640 -0.7529  0.3435
13554TIP3   OH262152   1.107   0.521  12.981  0.3580 -0.1125  0.1566
13554TIP3    H162153   1.179   0.543  12.922  0.5642  0.0419  0.4620
13554TIP3    H262154   1.080   0.433  12.954 -0.1820  0.3220 -0.7869
13555TIP3   OH262155   1.366   4.756  14.118  0.5885 -0.0886  0.3543
13555TIP3    H162156   1.294   4.802  14.075  0.9786 -2.1276 -2.8042
13555TIP3    H262157   1.323   4.685  14.166  0.4016 -1.5277 -1.8240
13556TIP3   OH262158   6.432   0.569   2.764 -0.3708  0.0433 -0.6131
13556TIP3    H162159   6.371   0.628   2.807 -0.8025  0.8513 -2.2383
13556TIP3    H262160   6.398   0.481   2.785 -0.8123  0.4122  0.2834
13557TIP3   OH262161   0.953   1.901  12.105  0.3467 -0.3533  0.3241
13557TIP3    H162162   0.884   1.945  12.155  1.1135  0.0908  1.0118
13557TIP3    H262163   1.033   1.916  12.155  0.9307 -0.9829 -0.3867
13558TIP3   OH262164   6.854   2.501  11.853  0.0450 -0.4468  0.1757
13558TIP3    H162165   6.779   2.466  11.805 -0.9289  0.6874  0.8230
13558TIP3    H262166   6.928   2.490  11.793 -0.3467 -2.7736  0.0175
13559TIP3   OH262167   5.955   3.173   4.134  0.2839  0.7818 -0.4871
13559TIP3    H162168   6.013   3.124   4.076  0.0576  0.2134 -0.2450
13559TIP3    H262169   5.940   3.113   4.208 -0.9525  0.7453 -0.7495
13560TIP3   OH262170   1.813   0.639   2.911  0.3087 -0.0278  0.0747
13560TIP3    H162171   1.831   0.638   2.817  0.0134  0.1060  0.0147
13560TIP3    H262172   1.871   0.572   2.947  0.5121  0.0049 -0.1861
13561TIP3   OH262173   6.449   4.872   1.706 -0.1405 -0.0331  0.2152
13561TIP3    H162174   6.408   4.803   1.654  0.1787  1.1825 -1.7472
13561TIP3    H262175   6.380   4.902   1.765 -1.2142  0.0191 -1.0210
13562TIP3   OH262176   6.865   3.281   3.026 -0.1137 -0.4029  0.3080
13562TIP3    H162177   6.910   3.196   3.015 -0.1088 -0.3933  0.2533
13562TIP3    H262178   6.806   3.286   2.951  0.0203 -0.2744  0.2124
13563TIP3   OH262179   6.635   0.462   4.224  0.5256  0.3989  0.3971
13563TIP3    H162180   6.648   0.487   4.315  0.1807 -0.4062  0.6787
13563TIP3    H262181   6.570   0.392   4.227  0.1466  0.6953 -0.5111
13564TIP3   OH262182   0.890   0.404  11.344  0.5362 -0.0544 -0.3763
13564TIP3    H162183   0.936   0.335  11.295  0.7478  0.1242 -0.4307
13564TIP3    H262184   0.804   0.366  11.363  0.4155 -0.0908 -0.9717
13565TIP3   OH262185   0.598   4.718  13.727 -0.0230  0.5443  0.0655
13565TIP3    H162186   0.554   4.681  13.650 -0.5524  0.1114  0.5666
13565TIP3    H262187   0.587   4.812  13.719  0.8264  0.5842 -0.9245
13566TIP3   OH262188   4.519   2.204   1.170  0.1415 -0.1452  0.1456
13566TIP3    H162189   4.433   2.246   1.169 -1.0246 -2.3053  1.7033
13566TIP3    H262190   4.560   2.230   1.087 -1.5483  1.7952 -0.1559
13567TIP3   OH262191   2.290   5.510  12.391  0.5016  0.3119  0.0096
13567TIP3    H162192   2.362   5.494  12.330  0.3731 -0.0237 -0.0543
13567TIP3    H262193   2.280   5.605  12.391 -0.4363  0.2456 -1.5867
13568TIP3   OH262194   1.376   6.044   0.705  0.1417 -0.3540 -0.0131
13568TIP3    H162195   1.348   6.135   0.698  0.7975 -0.0833  0.7126
13568TIP3    H262196   1.382   6.014   0.615 -1.6268 -0.1820 -0.2228
13569TIP3   OH262197   3.283   0.157   0.256  0.3103  0.1717 -0.2384
13569TIP3    H162198   3.295   0.186   0.346 -1.9899  0.2239  0.1125
13569TIP3    H262199   3.231   0.077   0.263 -0.1561  0.3351 -1.5077
13570TIP3   OH262200   2.021   4.068  12.465  0.0657  0.0415  0.3295
13570TIP3    H162201   1.956   4.011  12.507 -0.4096  0.5412  0.2792
13570TIP3    H262202   2.017   4.045  12.372  1.4483 -1.3988  0.5739
13571TIP3   OH262203   5.933   0.640  16.355  0.1641 -0.1458  0.3510
13571TIP3    H162204   5.958   0.676  16.440  0.7477  0.7829 -0.2033
13571TIP3    H262205   5.995   0.568  16.340 -0.1770 -0.5579  0.8657
13572TIP3   OH262206   5.172   2.587  13.117  0.2026 -0.2740  0.5374
13572TIP3    H162207   5.187   2.523  13.048 -1.8644  0.5782 -0.8055
13572TIP3    H262208   5.260   2.620  13.139  0.9179 -0.5299 -1.7284
13573TIP3   OH262209   4.594   2.020  13.904 -0.8108 -0.0758  0.6073
13573TIP3    H162210   4.570   1.948  13.962  0.8503  0.1313  1.6107
13573TIP3    H262211   4.667   1.985  13.852 -1.4941  0.1467 -0.5295
13574TIP3   OH262212   4.826   5.588  15.023 -0.4694 -0.6767 -0.3960
13574TIP3    H162213   4.920   5.598  15.034 -0.7086  0.3034  1.0688
13574TIP3    H262214   4.816   5.508  14.970  1.1209 -1.6374  0.6815
13575TIP3   OH262215   6.406   4.257  12.874  0.2383  0.0299 -0.2086
13575TIP3    H162216   6.403   4.351  12.890  0.9068  0.0062  0.0816
13575TIP3    H262217   6.408   4.218  12.961  1.1942 -0.2047 -0.3295
13576TIP3   OH262218   4.970   4.994   2.623 -0.4665  0.2804 -0.3252
13576TIP3    H162219   4.984   5.077   2.577  0.5218  1.2523  1.5883
13576TIP3    H262220   5.039   4.936   2.589 -1.6905 -0.0877 -2.2963
13577TIP3   OH262221   6.418   2.026   4.027 -0.0270 -0.4344  0.0113
13577TIP3    H162222   6.483   1.962   4.056  1.2317  0.7296 -0.1232
13577TIP3    H262223   6.422   2.022   3.931  0.4724  0.2105 -0.0057
13578TIP3   OH262224   1.856   4.085  14.783  0.1986 -0.0443  0.1949
13578TIP3    H162225   1.920   4.048  14.844  0.5925 -0.2603 -0.3448
13578TIP3    H262226   1.908   4.122  14.712 -0.2995 -1.8376 -1.1892
13579TIP3   OH262227   1.311   4.001   1.749  0.3104 -0.0187  0.8329
13579TIP3    H162228   1.336   4.063   1.818 -0.2555  0.7598  0.3505
13579TIP3    H262229   1.353   4.035   1.670  1.1477 -1.0365  0.8219
13580TIP3   OH262230   2.645   0.609  13.925 -0.2445  0.5460 -0.8505
13580TIP3    H162231   2.646   0.614  13.830 -1.9660 -1.0437 -1.0203
13580TIP3    H262232   2.558   0.574  13.946 -1.1909  3.8151  1.5059
13581TIP3   OH262233   0.488   3.911  12.764  0.2629  0.2841  0.2076
13581TIP3    H162234   0.528   3.905  12.850  0.8016 -0.1103 -0.0646
13581TIP3    H262235   0.469   3.820  12.740 -0.8219  0.4552  0.3398
13582TIP3   OH262236   2.619   6.109   2.303  0.1050 -0.0956 -0.1561
13582TIP3    H162237   2.643   6.053   2.377 -0.4722  0.8332  0.7799
13582TIP3    H262238   2.699   6.156   2.282 -0.1083  0.8534  1.0140
13583TIP3   OH262239   5.028   6.518  11.226  0.3231  0.0261  0.4097
13583TIP3    H162240   4.972   6.517  11.304 -1.8599  0.2626 -1.0575
13583TIP3    H262241   4.969   6.540  11.154  2.1950 -0.4429 -1.3788
13584TIP3   OH262242   3.417   5.839  14.785 -0.0719  0.5364  0.3207
13584TIP3    H162243   3.487   5.791  14.828 -1.1772 -0.7291  0.7619
13584TIP3    H262244   3.430   5.824  14.691 -3.1496 -5.0469  0.3516
13585TIP3   OH262245   2.198   4.287   4.761  0.5462  0.2317  0.2556
13585TIP3    H162246   2.218   4.351   4.693  0.3032 -1.3161 -1.3676
13585TIP3    H262247   2.200   4.202   4.715 -1.8511 -0.7004  1.6666
13586TIP3   OH262248   1.157   6.284   3.424 -0.6862 -0.4032 -1.0768
13586TIP3    H162249   1.179   6.191   3.427  1.0954 -0.0742 -2.6727
13586TIP3    H262250   1.090   6.291   3.356 -1.6283 -0.6360 -0.1956
13587TIP3   OH262251   2.180   2.200   5.311  0.1294 -0.2445 -0.5750
13587TIP3    H162252   2.124   2.128   5.340 -1.0974  0.0085 -2.1559
13587TIP3    H262253   2.186   2.258   5.387  0.7748 -1.7554  0.5850
13588TIP3   OH262254   4.205   0.184   1.967 -0.2211  0.3450  0.4636
13588TIP3    H162255   4.277   0.123   1.953 -1.5729 -1.2237  0.0355
13588TIP3    H262256   4.209   0.244   1.893  0.7378  0.3955  0.5457
13589TIP3   OH262257   3.039   5.097   4.751 -0.3527 -0.2536 -0.0246
13589TIP3    H162258   3.062   5.064   4.664  1.6158  1.7476 -0.3559
13589TIP3    H262259   3.081   5.183   4.756 -0.0945 -0.4543  3.0600
13590TIP3   OH262260   2.226   0.165   2.835 -0.2837 -0.1206  0.5601
13590TIP3    H162261   2.255   0.100   2.899  1.6142  0.1881  0.0668
13590TIP3    H262262   2.169   0.116   2.775 -0.9643 -0.7129  1.6693
13591TIP3   OH262263   0.256   2.107   1.677 -0.6076 -0.0276  0.3218
13591TIP3    H162264   0.298   2.023   1.661 -0.4168  0.5419 -2.9370
13591TIP3    H262265   0.328   2.165   1.704 -0.4328 -0.4723  0.8277
13592TIP3   OH262266   5.020   6.319  12.201 -0.3330 -0.8303  0.3486
13592TIP3    H162267   4.935   6.353  12.229 -1.0637 -0.5631 -1.9475
13592TIP3    H262268   5.026   6.233  12.242 -3.2847 -2.3209 -1.9548
13593TIP3   OH262269   6.610   1.853   0.334  0.2779  0.0502 -0.7991
13593TIP3    H162270   6.564   1.838   0.251 -0.4811  0.9684 -0.5617
13593TIP3    H262271   6.648   1.940   0.325  0.7447 -0.1091 -0.4222
13594TIP3   OH262272   6.280   1.861   4.876 -0.3060 -0.2917 -0.1327
13594TIP3    H162273   6.273   1.798   4.948 -1.4975 -0.3352 -0.2641
13594TIP3    H262274   6.361   1.837   4.831 -1.1490 -2.2969 -0.6805
13595TIP3   OH262275   5.726   3.872  16.497 -0.0996 -0.0795  1.1233
13595TIP3    H162276   5.739   3.839  16.586 -0.5222 -0.2521  1.1263
13595TIP3    H262277   5.638   3.842  16.473 -1.4019  2.7549  1.8957
13596TIP3   OH262278   5.142   3.171  12.924  0.2271 -0.1214 -0.3906
13596TIP3    H162279   5.133   3.236  12.994  0.5756 -0.2691 -0.2030
13596TIP3    H262280   5.231   3.184  12.890  1.1404 -1.9055  1.1205
13597TIP3   OH262281   1.912   0.664   0.381 -0.0768  0.4185 -0.1033
13597TIP3    H162282   1.852   0.667   0.307  0.8129 -2.2411 -1.0649
13597TIP3    H262283   1.997   0.686   0.343 -0.2132  3.4440  1.1009
13598TIP3   OH262284   0.866   0.696   4.751 -0.2629 -0.0190 -0.3885
13598TIP3    H162285   0.957   0.669   4.767 -0.1886  0.9875  1.0312
13598TIP3    H262286   0.851   0.672   4.659  1.9917  1.2569 -1.1950
13599TIP3   OH262287   5.173   3.693  16.821 -0.1238  0.2398 -0.3206
13599TIP3    H162288   5.106   3.751  16.785 -0.7223  0.3645  0.9444
13599TIP3    H262289   5.147   3.606  16.791 -1.8593  0.0540  1.5173
13600TIP3   OH262290   5.262   0.229  16.190 -0.7913 -0.7025 -0.0767
13600TIP3    H162291   5.273   0.314  16.231 -2.7863  0.0314 -0.8961
13600TIP3    H262292   5.347   0.209  16.151  0.3503 -0.1788  2.0205
13601TIP3   OH262293   0.257   5.521  11.446 -0.1565  0.3267  0.3973
13601TIP3    H162294   0.347   5.517  11.478 -1.1300 -1.0673  3.3559
13601TIP3    H262295   0.226   5.608  11.474 -1.3139 -1.2309  4.7741
13602TIP3   OH262296   0.743   4.899  12.850 -1.0077  0.2129  0.4158
13602TIP3    H162297   0.802   4.969  12.822 -0.9036  0.0624  0.2530
13602TIP3    H262298   0.777   4.872  12.935 -0.8957  0.1887  0.3640
13603TIP3   OH262299   5.361   3.539  16.266 -0.1753  0.2527  0.6238
13603TIP3    H162300   5.330   3.622  16.302 -3.4109 -0.5280 -0.0129
13603TIP3    H262301   5.400   3.493  16.340  1.1311  2.0227  1.1112
13604TIP3   OH262302   0.354   4.686   1.426 -0.1986 -0.1496 -0.2718
13604TIP3    H162303   0.432   4.634   1.444 -0.0800  0.2333  0.3654
13604TIP3    H262304   0.282   4.623   1.423  0.2891 -0.6449 -2.0246
13605TIP3   OH262305   5.517   2.231   5.449  0.1377 -0.4570  0.0285
13605TIP3    H162306   5.585   2.274   5.500  1.5936 -2.0594 -0.4575
13605TIP3    H262307   5.525   2.269   5.361  0.6814 -0.8869 -0.1177
13606TIP3   OH262308   5.067   2.030   4.681 -0.3745 -0.1381  0.3476
13606TIP3    H162309   5.049   1.961   4.744  0.5937  0.4083  1.2575
13606TIP3    H262310   5.063   2.111   4.732 -0.0353  0.3569 -0.3835
13607TIP3   OH262311   4.829   6.619  13.054 -0.1961 -0.4797 -0.3677
13607TIP3    H162312   4.745   6.579  13.076 -0.1576  0.2194  1.1908
13607TIP3    H262313   4.894   6.559  13.092 -0.0851  0.1262  0.4259
13608TIP3   OH262314   4.923   0.432  10.629  0.3002  0.0392  0.3683
13608TIP3    H162315   4.846   0.391  10.667 -1.4703  2.5131 -0.3560
13608TIP3    H262316   4.919   0.523  10.658  1.9469  0.6625 -1.1682
13609TIP3   OH262317   1.882   0.983   5.647 -0.1031  0.6486  0.1231
13609TIP3    H162318   1.790   0.981   5.670 -0.4032 -2.1561 -0.9563
13609TIP3    H262319   1.922   1.041   5.712 -2.4620  1.2916  1.0938
13610TIP3   OH262320   3.791   4.959   6.437  0.7072  0.6360  0.2494
13610TIP3    H162321   3.754   4.920   6.358  3.3639 -3.0098  0.5881
13610TIP3    H262322   3.795   5.053   6.417 -0.5214  0.1074 -3.1276
13611TIP3   OH262323   6.722   1.758   6.223  0.1007  0.2024 -0.3954
13611TIP3    H162324   6.797   1.813   6.201 -0.5805  1.4015  0.1757
13611TIP3    H262325   6.734   1.737   6.316 -0.6153  0.9601 -0.1301
13612TIP3   OH262326   5.671   1.528   3.443  0.1014 -0.5037 -0.3064
13612TIP3    H162327   5.764   1.521   3.467 -0.1354 -1.7957  0.3292
13612TIP3    H262328   5.663   1.475   3.364 -0.4153 -1.9652  0.6743
13613TIP3   OH262329   5.273   1.679  12.221 -0.0612 -0.1831 -0.8047
13613TIP3    H162330   5.267   1.600  12.168 -1.5578 -0.7063  0.0759
13613TIP3    H262331   5.308   1.649  12.305 -2.4821 -0.3447  0.2323
13614TIP3   OH262332   0.731   5.499   2.064  0.5296  0.2014 -0.2483
13614TIP3    H162333   0.688   5.469   1.984 -0.1776 -0.0781  0.2238
13614TIP3    H262334   0.801   5.556   2.034 -0.1350  0.6179 -1.0547
13615TIP3   OH262335   2.775   5.481   1.698  0.0036 -0.1508 -0.1217
13615TIP3    H162336   2.823   5.431   1.764 -0.3416  0.6263  0.7404
13615TIP3    H262337   2.717   5.538   1.748 -1.5917 -0.8162 -1.1367
13616TIP3   OH262338   2.203   6.837   1.349  0.6151  0.5579  0.1487
13616TIP3    H162339   2.266   6.895   1.306  0.2882  0.0873 -0.9833
13616TIP3    H262340   2.250   6.755   1.360  0.0647  0.0449 -1.1552
13617TIP3   OH262341   6.337   3.064  12.970  0.1491  0.0729  0.3168
13617TIP3    H162342   6.377   2.982  12.941  0.3538 -0.8437  2.9746
13617TIP3    H262343   6.408   3.112  13.011 -0.1720  1.2363 -0.4349
13618TIP3   OH262344   0.780   3.574  15.629 -0.0799 -0.5021  0.2345
13618TIP3    H162345   0.699   3.623  15.618  0.2345  0.1651  0.8167
13618TIP3    H262346   0.791   3.565  15.724 -0.8131 -2.8941  0.1551
13619TIP3   OH262347   1.081   3.903  10.604 -0.7842 -0.2047 -0.0981
13619TIP3    H162348   1.050   3.839  10.540 -0.3038 -1.1254  0.5653
13619TIP3    H262349   1.019   3.975  10.597 -0.4474 -0.0486 -1.9569
13620TIP3   OH262350   0.703   2.202   0.171 -0.0079  0.5820  0.5879
13620TIP3    H162351   0.726   2.159   0.089 -3.6652 -0.6605  0.0405
13620TIP3    H262352   0.655   2.280   0.144 -1.3530  0.1008  1.4943
13621TIP3   OH262353   2.567   6.638  13.557 -0.5873  0.1496 -0.1486
13621TIP3    H162354   2.518   6.677  13.629 -1.5409 -0.4071 -0.4661
13621TIP3    H262355   2.591   6.551  13.589 -3.3370 -1.1994 -1.3543
13622TIP3   OH262356   3.763   1.959   2.128  0.2116  0.5941 -0.4960
13622TIP3    H162357   3.787   2.025   2.193  0.7128  0.8019 -0.8793
13622TIP3    H262358   3.837   1.897   2.128  0.2829  0.6743 -0.9626
13623TIP3   OH262359   3.813   4.206  12.986 -0.2560  0.0063 -0.1070
13623TIP3    H162360   3.890   4.149  12.989 -1.4640 -1.6409  1.4275
13623TIP3    H262361   3.811   4.239  12.896  3.4873  1.9838  0.3220
13624TIP3   OH262362   2.293   3.683   3.039 -0.4227 -0.1503  0.1518
13624TIP3    H162363   2.342   3.760   3.009  0.9730 -0.0675  2.4304
13624TIP3    H262364   2.237   3.660   2.965  1.2979  1.2408 -1.6995
13625TIP3   OH262365   3.498   5.695   6.127 -0.1342 -0.5941  0.2991
13625TIP3    H162366   3.505   5.629   6.195  0.0657 -0.7477  0.1307
13625TIP3    H262367   3.411   5.734   6.140  1.0797  1.6196  2.6913
13626TIP3   OH262368   4.131   3.019   4.531 -0.5813 -0.3484 -0.0572
13626TIP3    H162369   4.153   3.095   4.477  2.3931 -0.3860  0.9012
13626TIP3    H262370   4.121   2.947   4.469 -1.7298  0.4448 -0.8417
13627TIP3   OH262371   5.399   3.561   5.684  0.1046 -0.1505 -0.0661
13627TIP3    H162372   5.418   3.626   5.751 -1.9971 -1.2369  1.6699
13627TIP3    H262373   5.445   3.482   5.713 -0.4606 -0.5049 -0.1128
13628TIP3   OH262374   1.293   3.338   6.144 -0.5173  0.2365 -0.4273
13628TIP3    H162375   1.209   3.329   6.189 -0.1640 -0.2574  0.1493
13628TIP3    H262376   1.307   3.251   6.105  0.6518 -0.3180  1.1361
13629TIP3   OH262377   2.893   3.073  13.529 -0.0128 -0.5564 -0.1858
13629TIP3    H162378   2.827   3.044  13.467  0.3683 -0.4755 -0.6316
13629TIP3    H262379   2.878   3.167  13.539 -0.4480 -0.6750  0.2974
13630TIP3   OH262380   2.391   2.565  11.414 -0.3438  0.3466  0.3810
13630TIP3    H162381   2.377   2.513  11.493 -0.5082  0.7894  0.6477
13630TIP3    H262382   2.375   2.655  11.442  0.3034  0.5794  0.0119
13631TIP3   OH262383   2.567   4.567  12.013  0.2983 -0.1480 -0.0365
13631TIP3    H162384   2.633   4.530  11.955 -0.5362 -1.2375 -0.3406
13631TIP3    H262385   2.612   4.637  12.060  0.8638  1.2433 -2.4485
13632TIP3   OH262386   2.126   5.580  13.782  0.0944  0.3699 -0.2693
13632TIP3    H162387   2.081   5.662  13.800  0.3995  0.7831 -1.3040
13632TIP3    H262388   2.197   5.605  13.723 -0.7038 -0.8511 -1.8008
13633TIP3   OH262389   3.512   6.333   2.284 -0.1053 -0.0998  0.0091
13633TIP3    H162390   3.489   6.242   2.303  0.4655 -0.1859  0.2984
13633TIP3    H262391   3.449   6.385   2.334 -0.6451 -0.3255 -0.4129
13634TIP3   OH262392   3.924   5.564   0.749 -0.1145 -0.2270  0.7151
13634TIP3    H162393   3.964   5.642   0.710 -0.7250  0.9547  2.3156
13634TIP3    H262394   3.908   5.506   0.675  0.7670  0.9774 -0.4833
13635TIP3   OH262395   4.472   6.497  14.014 -0.0713 -0.5304 -0.8830
13635TIP3    H162396   4.404   6.552  14.053 -0.7665 -1.6721 -0.4333
13635TIP3    H262397   4.513   6.553  13.948  1.1736  1.4942  1.4388
13636TIP3   OH262398   3.150   2.463   5.132 -0.2436 -0.1156 -0.1969
13636TIP3    H162399   3.102   2.380   5.129  0.7795 -0.7325  0.0351
13636TIP3    H262400   3.082   2.529   5.147 -1.3549 -0.6409 -2.4474
13637TIP3   OH262401   5.218   2.861   5.792  0.2671  0.0398  0.1149
13637TIP3    H162402   5.279   2.922   5.833  2.0225 -0.6905 -1.2639
13637TIP3    H262403   5.193   2.800   5.861  1.5997  0.0065  0.5959
13638TIP3   OH262404   2.692   3.106   6.473 -0.4536  0.2331 -0.3543
13638TIP3    H162405   2.647   3.188   6.451  0.8187  0.4777 -2.2878
13638TIP3    H262406   2.625   3.053   6.516 -2.0793  1.2849 -1.4477
13639TIP3   OH262407   3.535   2.447   2.776  0.1269  0.3830 -0.1572
13639TIP3    H162408   3.486   2.431   2.696  1.0060 -0.7505 -0.4910
13639TIP3    H262409   3.470   2.477   2.839 -1.0472 -1.2947 -0.5121
13640TIP3   OH262410   1.280   2.848  15.013  1.0733  0.0670 -0.1543
13640TIP3    H162411   1.203   2.877  14.964  0.5205 -0.1143  0.6123
13640TIP3    H262412   1.330   2.796  14.949  1.6640  1.9375 -1.3201
13641TIP3   OH262413   2.126   3.639   2.794 -0.1720  0.7973 -0.4254
13641TIP3    H162414   2.143   3.563   2.739 -0.2711 -0.5432  1.2920
13641TIP3    H262415   2.031   3.638   2.808 -0.1026  0.8958  0.0709
13642TIP3   OH262416   5.358   2.771  10.429 -0.6324 -0.2293  0.3772
13642TIP3    H162417   5.346   2.708  10.500 -1.8880  0.2048  0.5732
13642TIP3    H262418   5.331   2.855  10.466  0.0973  0.2670 -0.1784
13643TIP3   OH262419   0.769   0.619  12.152 -0.2655  0.3307 -0.6465
13643TIP3    H162420   0.831   0.654  12.217 -0.4967  0.1673 -0.3356
13643TIP3    H262421   0.822   0.561  12.097 -0.0616  0.4930 -0.6226
13644TIP3   OH262422   5.798   4.185   0.616 -0.1377 -0.2019  0.0242
13644TIP3    H162423   5.818   4.125   0.544  0.0874  0.6424 -0.6501
13644TIP3    H262424   5.705   4.206   0.604 -0.1592 -0.2429  0.1220
13645TIP3   OH262425   1.922   5.854   4.604  0.1430 -0.1762 -0.2558
13645TIP3    H162426   1.993   5.817   4.656  0.0796  0.2164  0.1251
13645TIP3    H262427   1.910   5.942   4.640  0.0800  0.0923 -0.9306
13646TIP3   OH262428   1.279   6.022   4.907  0.7281  0.3294  0.5396
13646TIP3    H162429   1.333   5.952   4.870 -1.8391 -1.9070  0.7178
13646TIP3    H262430   1.235   5.981   4.982 -1.3168  1.9615  0.3176
13647TIP3   OH262431   2.691   1.263   3.062  0.5145  0.1713 -0.3317
13647TIP3    H162432   2.603   1.298   3.075  0.4541 -0.3670  0.8792
13647TIP3    H262433   2.707   1.273   2.968  0.8595  4.1810 -0.0124
13648TIP3   OH262434   6.767   5.065   5.562 -0.6863 -0.1332  0.6965
13648TIP3    H162435   6.786   4.983   5.518  0.4751  1.3480 -1.7929
13648TIP3    H262436   6.672   5.066   5.572 -0.8142 -1.3208 -0.1749
13649TIP3   OH262437   4.173   0.670  12.879 -0.0328 -0.5401 -0.1856
13649TIP3    H162438   4.217   0.653  12.962  0.9058 -4.3996 -1.2686
13649TIP3    H262439   4.088   0.626  12.887 -0.3345 -0.1263 -0.9528
13650TIP3   OH262440   5.784   4.725  10.842  0.0693  0.0302 -1.1931
13650TIP3    H162441   5.689   4.725  10.850  0.0315  1.5972 -1.4059
13650TIP3    H262442   5.815   4.692  10.926 -0.6492 -1.6087 -1.5246
13651TIP3   OH262443   3.719   5.503   2.822 -0.1966 -0.8366  0.1006
13651TIP3    H162444   3.651   5.569   2.835  0.2413  0.1589 -2.2074
13651TIP3    H262445   3.739   5.472   2.910 -2.0222  0.4684  1.0436
13652TIP3   OH262446   6.275   2.895   5.222 -0.4170 -0.6477 -0.3246
13652TIP3    H162447   6.350   2.869   5.275 -1.0764  0.8276  1.4391
13652TIP3    H262448   6.306   2.887   5.131  1.5936 -0.8441  0.3225
13653TIP3   OH262449   1.133   4.020   3.400 -0.0809 -0.5247  0.3700
13653TIP3    H162450   1.173   4.034   3.486  0.5311 -1.7779  0.3268
13653TIP3    H262451   1.043   4.052   3.409 -0.0445 -0.6982  1.5045
13654TIP3   OH262452   2.927   4.325  14.778  0.0992 -0.0645 -0.1205
13654TIP3    H162453   3.022   4.330  14.762  0.5526  0.6116  2.3049
13654TIP3    H262454   2.916   4.245  14.829 -0.6691 -0.1721 -0.4414
13655TIP3   OH262455   1.898   1.115   1.198 -0.0559 -0.5249  0.3284
13655TIP3    H162456   1.929   1.025   1.203  1.9793  0.1160 -0.0900
13655TIP3    H262457   1.953   1.156   1.131  0.6343  1.6338  2.1010
13656TIP3   OH262458   5.713   6.411  10.631  0.3316  0.1854 -0.4143
13656TIP3    H162459   5.735   6.438  10.542 -0.9069  1.0596 -0.4819
13656TIP3    H262460   5.681   6.491  10.674  1.9122  0.0348  1.1644
13657TIP3   OH262461   5.701   5.344   5.381  0.2808 -0.3251 -1.0363
13657TIP3    H162462   5.671   5.278   5.319 -3.2099  0.7189 -0.7100
13657TIP3    H262463   5.690   5.303   5.467 -1.2712  0.3937 -0.8656
13658TIP3   OH262464   1.078   1.781  14.095 -0.3124  0.1611 -0.4071
13658TIP3    H162465   1.091   1.694  14.133  1.6200  0.9959  1.0467
13658TIP3    H262466   1.030   1.830  14.162  2.8505  1.5507  1.1135
13659TIP3   OH262467   0.536   0.529   3.608  0.4987  0.2305 -0.1414
13659TIP3    H162468   0.508   0.587   3.679  0.0957  1.8005 -1.5221
13659TIP3    H262469   0.559   0.588   3.537 -0.2246 -1.3329 -1.7360
13660TIP3   OH262470   4.282   3.246  10.861 -0.2633 -0.0312  0.8825
13660TIP3    H162471   4.239   3.240  10.775 -1.5730  0.0108  1.5102
13660TIP3    H262472   4.335   3.167  10.867 -0.5724 -0.2970  0.2365
13661TIP3   OH262473   0.644   3.120   2.619  0.3757  0.3272 -0.0206
13661TIP3    H162474   0.705   3.121   2.545  0.1732  0.1689 -0.1925
13661TIP3    H262475   0.688   3.169   2.688 -0.1923  2.1189 -0.8491
13662TIP3   OH262476   0.696   1.946   1.465 -0.4450 -0.0999 -0.1049
13662TIP3    H162477   0.723   2.027   1.423 -1.3712  0.4417  0.3196
13662TIP3    H262478   0.766   1.926   1.526  2.3501 -2.3589 -3.6533
13663TIP3   OH262479   5.580   6.303  14.411  0.0370  0.4028 -0.6920
13663TIP3    H162480   5.485   6.313  14.421 -0.0191 -1.2837  1.0791
13663TIP3    H262481   5.614   6.306  14.501  1.5773  0.1963 -1.2360
13664TIP3   OH262482   3.703   3.758   5.449  0.2017 -0.1793  0.3752
13664TIP3    H162483   3.740   3.805   5.374  0.5528  0.0377  0.6808
13664TIP3    H262484   3.645   3.822   5.490  0.0350 -0.2879  0.3101
13665TIP3   OH262485   6.546   2.547  11.781 -0.4886  0.5582  0.1022
13665TIP3    H162486   6.460   2.505  11.782 -0.8207  1.0522  3.2826
13665TIP3    H262487   6.608   2.474  11.780 -0.9605  0.1555 -0.3782
13666TIP3   OH262488   0.781   1.291  11.165  0.0748 -0.6559 -0.3547
13666TIP3    H162489   0.846   1.359  11.182 -1.0221  0.1545  0.7892
13666TIP3    H262490   0.806   1.255  11.080  0.8868  0.9307 -0.8370
13667TIP3   OH262491   1.832   0.633   5.848  0.6132 -0.3818 -0.2244
13667TIP3    H162492   1.803   0.655   5.759 -2.9574 -1.9011  0.4067
13667TIP3    H262493   1.757   0.654   5.903  2.0153 -1.3389  2.1943
13668TIP3   OH262494   1.456   4.153  16.127  0.4601  0.1855 -0.4687
13668TIP3    H162495   1.368   4.139  16.093 -0.2111 -1.1001  1.6364
13668TIP3    H262496   1.514   4.129  16.054 -0.8882  0.3259 -1.6355
13669TIP3   OH262497   1.592   2.492   3.567 -1.0792  0.4863 -0.4927
13669TIP3    H162498   1.547   2.538   3.496 -0.5986  1.4736 -0.1682
13669TIP3    H262499   1.653   2.433   3.523 -1.2160  0.6492 -0.9008
13670TIP3   OH262500   2.662   6.739   3.595 -0.5469 -0.0607  0.3008
13670TIP3    H162501   2.653   6.644   3.607 -1.3466  0.3254  3.5576
13670TIP3    H262502   2.743   6.761   3.642 -1.0526  1.0218  0.6818
13671TIP3   OH262503   4.617   1.362  16.003  0.0858  0.2346 -0.5921
13671TIP3    H162504   4.656   1.447  16.019  0.3642 -0.0601  0.3391
13671TIP3    H262505   4.688   1.310  15.965  0.5147 -0.1859  0.7449
13672TIP3   OH262506   1.068   3.815  11.464  0.6385  0.2311 -0.6220
13672TIP3    H162507   1.059   3.829  11.370 -0.6234  0.4647 -0.4837
13672TIP3    H262508   1.096   3.724  11.472  0.1591  0.0223 -1.2134
13673TIP3   OH262509   0.965   5.575   3.767  0.0817 -0.5076  0.3104
13673TIP3    H162510   0.872   5.594   3.775  0.4289  0.9836  1.0788
13673TIP3    H262511   0.991   5.615   3.684  0.4129  0.7906  1.0139
13674TIP3   OH262512   0.448   5.542  15.698 -0.4787 -0.2150 -0.0557
13674TIP3    H162513   0.490   5.557  15.783  0.4981 -2.8538  0.0115
13674TIP3    H262514   0.477   5.615  15.644 -1.5158  1.8166  1.9281
13675TIP3   OH262515   2.241   6.116  13.431  0.0501  0.9881 -0.0477
13675TIP3    H162516   2.185   6.140  13.357  0.2764  0.2894 -0.4513
13675TIP3    H262517   2.189   6.053  13.481  0.9366 -0.6609 -1.1228
13676TIP3   OH262518   4.768   6.742   3.285  0.3846  0.7759 -0.2132
13676TIP3    H162519   4.681   6.724   3.321  0.2361  1.9511  0.0810
13676TIP3    H262520   4.780   6.678   3.215  0.0053 -0.5189  0.8576
13677TIP3   OH262521   3.185   4.458   0.895 -0.0638  0.1045 -0.0286
13677TIP3    H162522   3.148   4.499   0.817 -2.0349 -2.3483 -0.4963
13677TIP3    H262523   3.258   4.406   0.862 -0.9254 -0.9686 -0.2954
13678TIP3   OH262524   2.040   5.229   3.212 -0.5306  0.4751  0.3554
13678TIP3    H162525   2.101   5.268   3.274 -0.7503 -0.0648  0.9164
13678TIP3    H262526   2.060   5.135   3.213 -1.3938  0.2866  0.5746
13679TIP3   OH262527   5.045   1.824  12.165  0.5953  0.1738 -0.3835
13679TIP3    H162528   5.131   1.792  12.194  0.0516 -1.1134 -0.1608
13679TIP3    H262529   4.982   1.773  12.214 -0.3243  1.5408 -0.0893
13680TIP3   OH262530   1.183   4.816   1.081  0.7154  0.3852  0.0682
13680TIP3    H162531   1.098   4.839   1.042 -0.0341  2.1511  2.5171
13680TIP3    H262532   1.215   4.745   1.026 -2.6294 -0.8123 -0.6098
13681TIP3   OH262533   4.238   4.834  15.246 -0.9812  0.4075 -0.4668
13681TIP3    H162534   4.195   4.917  15.267 -0.9780  0.2818  0.0618
13681TIP3    H262535   4.199   4.771  15.306 -0.6592  0.1184 -0.5563
13682TIP3   OH262536   0.104   0.956  13.117 -0.1361 -0.3596 -0.7322
13682TIP3    H162537   0.090   1.049  13.134  1.2095 -0.5360  1.6854
13682TIP3    H262538   0.077   0.912  13.197 -0.0546 -1.9944 -1.5651
13683TIP3   OH262539   1.972   2.504  14.348 -0.3232 -0.2290 -0.1177
13683TIP3    H162540   1.962   2.561  14.272  1.8630 -0.6319 -0.7658
13683TIP3    H262541   1.986   2.564  14.421 -0.0943  0.1091 -0.4354
13684TIP3   OH262542   4.419   2.433   1.881  0.0538 -0.2274  0.1543
13684TIP3    H162543   4.355   2.366   1.855  0.5386 -0.7828  0.3722
13684TIP3    H262544   4.500   2.384   1.894 -0.0174  0.1124  2.1137
13685TIP3   OH262545   4.349   5.737   1.473  0.0440  0.1722 -0.1832
13685TIP3    H162546   4.322   5.753   1.383 -1.8021  0.3438  0.3583
13685TIP3    H262547   4.392   5.652   1.471 -1.6399 -0.7029 -0.9327
13686TIP3   OH262548   3.862   0.690   1.768  0.3139 -0.4898  0.4261
13686TIP3    H162549   3.901   0.624   1.825 -0.5621  1.9600  4.1508
13686TIP3    H262550   3.772   0.660   1.756  0.3756 -0.7859  0.6818
13687TIP3   OH262551   2.640   5.638   0.249 -0.0504 -0.0413  0.8708
13687TIP3    H162552   2.676   5.718   0.210 -1.0876 -0.3643 -0.8493
13687TIP3    H262553   2.686   5.567   0.205 -3.4708 -0.5200 -2.4097
13688TIP3   OH262554   6.541   0.523  14.044 -0.2039 -0.1520  0.6514
13688TIP3    H162555   6.481   0.596  14.029 -1.2989 -1.1005  0.2576
13688TIP3    H262556   6.485   0.454  14.079  0.6450 -1.1054  0.1649
13689TIP3   OH262557   6.565   1.167  16.831 -0.3413  0.5814  0.8223
13689TIP3    H162558   6.568   1.162  16.736 -1.9351 -0.9195  0.8070
13689TIP3    H262559   6.527   1.253  16.850  0.8908  1.2966  0.1623
13690TIP3   OH262560   2.894   5.485  14.406  0.0032 -0.0526  0.0374
13690TIP3    H162561   2.832   5.491  14.334  0.1903  1.9077 -0.0174
13690TIP3    H262562   2.887   5.569  14.451 -0.9767 -1.6233  3.0710
13691TIP3   OH262563   1.087   2.808   5.804 -0.9655  0.0575  0.0023
13691TIP3    H162564   1.045   2.747   5.864  0.2066  0.4038  1.2098
13691TIP3    H262565   1.081   2.893   5.847  1.4985  0.0231  0.5551
13692TIP3   OH262566   0.902   1.012   3.819  0.4109 -0.2695  0.4033
13692TIP3    H162567   0.903   0.964   3.736 -0.1684 -0.7969  0.6931
13692TIP3    H262568   0.984   1.061   3.819 -0.7544  1.9312 -1.7456
13693TIP3   OH262569   0.573   4.185  13.451  0.0211  0.0188  0.7877
13693TIP3    H162570   0.614   4.252  13.505 -1.1456  1.3257  0.1229
13693TIP3    H262571   0.486   4.173  13.490 -0.8228  0.9472 -0.6760
13694TIP3   OH262572   2.198   5.922  14.827 -0.2664  0.0684  0.4858
13694TIP3    H162573   2.227   5.876  14.748 -0.2756  2.8408 -1.2585
13694TIP3    H262574   2.103   5.926  14.820 -0.1702  1.8611 -0.3728
13695TIP3   OH262575   4.382   4.113  15.010 -0.4841  0.3985  0.4153
13695TIP3    H162576   4.325   4.042  15.039 -1.1867 -0.1383 -1.9843
13695TIP3    H262577   4.328   4.165  14.951  0.6462  1.7045  0.4734
13696TIP3   OH262578   3.440   4.686   3.646  0.3664 -0.3612  0.0480
13696TIP3    H162579   3.345   4.702   3.645  0.2424 -1.0685  0.4447
13696TIP3    H262580   3.449   4.592   3.659  1.1349 -0.2022  0.7468
13697TIP3   OH262581   4.198   6.344   5.133  0.0924  0.4246 -0.3532
13697TIP3    H162582   4.195   6.249   5.131  0.5202  0.4187 -1.2263
13697TIP3    H262583   4.283   6.367   5.097 -0.1586  1.1452 -0.5121
13698TIP3   OH262584   0.940   0.224   3.754  0.0035 -0.3910  0.0800
13698TIP3    H162585   0.855   0.185   3.773 -0.1713 -0.6116 -1.0959
13698TIP3    H262586   0.968   0.183   3.672  0.3988  1.0072 -0.5136
13699TIP3   OH262587   3.258   5.289   0.510 -0.2768  0.3263 -0.5358
13699TIP3    H162588   3.304   5.372   0.506 -0.1800  0.3553  0.7172
13699TIP3    H262589   3.190   5.302   0.577 -0.8360 -0.3209 -0.9606
13700TIP3   OH262590   4.545   0.343   2.566  0.0362 -0.0172 -0.2737
13700TIP3    H162591   4.584   0.430   2.570  1.4436 -0.5089 -2.0001
13700TIP3    H262592   4.558   0.306   2.654  2.4910  0.2777 -0.4546
13701TIP3   OH262593   4.604   2.490   0.253 -0.1620 -0.2427  0.1801
13701TIP3    H162594   4.559   2.457   0.331  0.5092 -0.1600  0.6126
13701TIP3    H262595   4.566   2.440   0.180 -1.0722 -0.0513  0.5048
13702TIP3   OH262596   1.047   0.146   3.513  0.5732 -0.3200  0.0846
13702TIP3    H162597   0.965   0.121   3.471  0.3203 -0.2366  0.5164
13702TIP3    H262598   1.063   0.236   3.484 -0.0748  0.0603  0.8646
13703TIP3   OH262599   0.409   3.308  12.420  0.4919 -0.4302  0.4944
13703TIP3    H162600   0.416   3.273  12.331  0.7501  1.8779 -0.4690
13703TIP3    H262601   0.431   3.234  12.477  0.8559 -1.8316 -1.3685
13704TIP3   OH262602   3.943   1.519   4.987 -0.4839  0.3167 -0.0869
13704TIP3    H162603   3.903   1.459   4.924  1.1172 -0.2969 -0.5628
13704TIP3    H262604   4.031   1.484   5.001 -0.0113  1.7638  0.7243
13705TIP3   OH262605   3.147   6.524  13.950  0.0495 -0.2609 -0.4836
13705TIP3    H162606   3.161   6.440  13.906  1.2307 -1.1636  1.5050
13705TIP3    H262607   3.229   6.540  13.997 -2.1394 -1.0608  4.1008
13706TIP3   OH262608   0.520   6.423   3.739  0.1493  0.6991 -0.0467
13706TIP3    H162609   0.545   6.464   3.657 -0.8516 -1.3545 -1.4786
13706TIP3    H262610   0.554   6.333   3.732  0.3654  0.5752  1.9614
13707TIP3   OH262611   1.727   4.552  14.074 -0.1343 -0.0289  0.3421
13707TIP3    H162612   1.703   4.534  13.983 -1.3661 -4.0069  1.2833
13707TIP3    H262613   1.643   4.566  14.118  0.3332  0.2330  1.1716
13708TIP3   OH262614   3.427   4.197  13.017  0.1757  0.6705 -0.4570
13708TIP3    H162615   3.337   4.229  13.016  0.0214  0.3175  0.7302
13708TIP3    H262616   3.431   4.136  13.091  1.4552  0.8670 -0.3313
13709TIP3   OH262617   2.944   2.439   0.314  0.1820 -0.0541  0.2492
13709TIP3    H162618   2.948   2.355   0.360  0.0614 -0.0995  0.1767
13709TIP3    H262619   3.009   2.431   0.244  0.5197  0.0950  0.5418
13710TIP3   OH262620   3.123   5.448  12.852  0.2103 -0.5572 -0.2139
13710TIP3    H162621   3.126   5.353  12.842 -2.5545 -0.8715  0.9708
13710TIP3    H262622   3.117   5.482  12.763  0.1271 -1.5654 -0.6017
13711TIP3   OH262623   5.491   0.876   5.391 -0.0567 -0.2957 -0.1541
13711TIP3    H162624   5.436   0.946   5.425  0.4517 -1.3149  3.0531
13711TIP3    H262625   5.492   0.810   5.460  2.3420 -1.8784 -1.5633
13712TIP3   OH262626   6.512   4.818   0.567 -0.2381 -0.4236  0.0895
13712TIP3    H162627   6.583   4.763   0.534 -2.6303 -2.4122 -2.2327
13712TIP3    H262628   6.502   4.792   0.658  1.2804 -0.8755  0.1594
13713TIP3   OH262629   6.672   0.630   2.924  0.0092 -0.1774 -0.2304
13713TIP3    H162630   6.614   0.588   2.860  1.7574 -0.6193 -1.5826
13713TIP3    H262631   6.708   0.706   2.878  0.3744  0.2015  0.6541
13714TIP3   OH262632   6.557   4.468  11.596  0.0313  0.3101  0.1962
13714TIP3    H162633   6.473   4.512  11.612  0.5106  1.6491 -0.8264
13714TIP3    H262634   6.618   4.538  11.574  1.4402 -0.6454  0.8846
13715TIP3   OH262635   5.072   1.190  15.048 -0.2522 -0.2988 -0.9360
13715TIP3    H162636   5.026   1.153  14.973 -0.0976 -0.3263 -1.0164
13715TIP3    H262637   5.063   1.284  15.038  0.1451 -0.2918 -1.2215
13716TIP3   OH262638   2.387   4.414   3.975 -0.0589  0.0465  0.6194
13716TIP3    H162639   2.384   4.338   3.916  0.0996  0.2520  0.3449
13716TIP3    H262640   2.336   4.481   3.930 -0.5348 -0.0178  1.0452
13717TIP3   OH262641   0.184   1.223  10.664  0.2267 -0.9681 -0.5663
13717TIP3    H162642   0.178   1.279  10.741 -1.8855  0.3346 -1.5935
13717TIP3    H262643   0.157   1.136  10.695  0.3305 -0.6707  0.3645
13718TIP3   OH262644   0.911   5.910   1.551 -0.1506  0.2916 -0.4471
13718TIP3    H162645   0.930   6.001   1.531 -1.2689  0.2037 -2.1072
13718TIP3    H262646   0.870   5.876   1.471 -1.6783 -1.0846  0.8509
13719TIP3   OH262647   2.803   5.966  12.786 -0.5052 -0.2855  0.5221
13719TIP3    H162648   2.851   5.885  12.805 -0.0023  0.2003  1.3581
13719TIP3    H262649   2.829   5.988  12.696 -1.2419 -1.4522 -0.0045
13720TIP3   OH262650   1.093   1.106  11.692  0.1639  0.3609  0.9542
13720TIP3    H162651   1.013   1.056  11.708 -0.6239  1.3598  0.2363
13720TIP3    H262652   1.114   1.147  11.775  1.4180 -1.9136  1.8746
13721TIP3   OH262653   4.144   2.552   5.654  0.1032  0.3651 -0.2293
13721TIP3    H162654   4.130   2.491   5.582 -0.0262  0.5902 -0.3964
13721TIP3    H262655   4.224   2.600   5.631 -0.1878  0.7523 -0.4473
13722TIP3   OH262656   0.340   5.273   1.153  0.3179  0.1139 -0.1966
13722TIP3    H162657   0.332   5.247   1.062  1.5086 -0.3990 -0.1636
13722TIP3    H262658   0.257   5.318   1.172  0.5402  1.3069 -1.8648
13723TIP3   OH262659   6.083   3.475   5.353 -0.3679 -0.0583 -0.6613
13723TIP3    H162660   6.021   3.454   5.283 -0.5075  0.2979 -0.6509
13723TIP3    H262661   6.057   3.419   5.426  0.5103 -1.2854 -1.2679
13724TIP3   OH262662   5.768   5.070  11.225 -0.2263  0.4334 -0.9300
13724TIP3    H162663   5.743   4.983  11.193 -1.1336 -0.6480  2.3362
13724TIP3    H262664   5.688   5.122  11.216 -0.4668  0.1484 -0.4607
13725TIP3   OH262665   4.051   2.602   2.604 -0.3109 -0.0062  0.2965
13725TIP3    H162666   4.128   2.640   2.561 -0.5260 -0.1641 -0.2495
13725TIP3    H262667   4.055   2.632   2.694  0.5587 -0.2543  0.3497
13726TIP3   OH262668   5.777   1.879   5.873 -0.6919 -0.2158 -0.2020
13726TIP3    H162669   5.783   1.827   5.953 -0.4655 -0.7232 -0.5381
13726TIP3    H262670   5.684   1.900   5.865 -0.9780 -1.5253 -0.6348
13727TIP3   OH262671   3.340   2.124   2.338  0.1989 -0.1459 -0.5770
13727TIP3    H162672   3.291   2.202   2.313  1.1298  0.3381 -0.9412
13727TIP3    H262673   3.279   2.073   2.392 -0.7658  0.3193 -1.2077
13728TIP3   OH262674   2.040   2.253   1.736 -0.3624 -0.2816 -0.3485
13728TIP3    H162675   1.954   2.229   1.770 -0.1821  1.1687  1.2351
13728TIP3    H262676   2.074   2.316   1.798  1.5714 -0.2816 -1.3268
13729TIP3   OH262677   0.682   1.529   3.626  0.0633  0.0599 -0.5690
13729TIP3    H162678   0.621   1.488   3.688 -0.0119 -1.6989 -1.7180
13729TIP3    H262679   0.652   1.499   3.540  3.0437 -1.6874 -1.1336
13730TIP3   OH262680   0.312   1.649  10.787 -0.4713 -0.0819  0.1185
13730TIP3    H162681   0.294   1.731  10.741  0.9766 -0.2566 -0.8409
13730TIP3    H262682   0.242   1.590  10.761  0.7015 -0.4118 -2.5364
13731TIP3   OH262683   3.581   3.810  15.377 -0.0743  0.4186  0.8550
13731TIP3    H162684   3.597   3.865  15.300  0.2856  1.6239  1.7531
13731TIP3    H262685   3.621   3.726  15.356  0.4157  0.8779 -0.0966
13732TIP3   OH262686   3.400   6.266   2.023 -0.8240  0.0099  0.2304
13732TIP3    H162687   3.484   6.311   2.030 -0.6868 -0.1742 -0.2234
13732TIP3    H262688   3.362   6.273   2.111 -0.1636 -0.2352  0.5464
13733TIP3   OH262689   5.922   3.065   4.411  0.5310 -0.1415  0.2420
13733TIP3    H162690   5.888   3.021   4.489  0.3633  0.7513  0.6799
13733TIP3    H262691   5.889   3.155   4.417 -0.4878 -0.3596 -1.4799
13734TIP3   OH262692   0.170   2.485  16.675  0.3203 -0.0123  0.6347
13734TIP3    H162693   0.076   2.504  16.683  0.3913 -0.5375  3.6541
13734TIP3    H262694   0.208   2.568  16.648 -0.8625  0.6023  0.7768
13735TIP3   OH262695   0.870   1.176   6.072 -0.4420  0.5776 -0.1789
13735TIP3    H162696   0.922   1.256   6.079 -1.3437  1.1703 -0.1705
13735TIP3    H262697   0.858   1.164   5.978 -2.6819  2.0405 -0.1406
13736TIP3   OH262698   6.810   5.934   5.892  0.0022  0.2224  0.2023
13736TIP3    H162699   6.862   5.896   5.963  1.3866  3.2663  0.9588
13736TIP3    H262700   6.847   6.021   5.879 -1.9733  0.7841 -2.4653
13737TIP3   OH262701   2.805   2.597   5.984  0.3132 -0.2007  0.1805
13737TIP3    H162702   2.745   2.663   5.949 -1.4990 -0.5592  2.4051
13737TIP3    H262703   2.846   2.639   6.060  1.0918 -0.7734  0.0914
13738TIP3   OH262704   4.740   4.699  15.400 -0.0517 -0.4126  0.3554
13738TIP3    H162705   4.680   4.703  15.475 -3.0607  0.8924 -1.9363
13738TIP3    H262706   4.744   4.606  15.377 -2.0858 -0.4296 -0.0561
13739TIP3   OH262707   6.833   5.883  10.176 -0.5647 -0.1830  0.7000
13739TIP3    H162708   6.755   5.932  10.150  0.6919  1.9564  0.8061
13739TIP3    H262709   6.875   5.936  10.243  0.1378 -2.1067  1.8813
13740TIP3   OH262710   1.098   5.872   2.173 -0.2696 -0.7886 -0.2938
13740TIP3    H162711   1.144   5.932   2.232 -0.4766  0.0030 -0.9191
13740TIP3    H262712   1.034   5.828   2.229 -1.3435  0.8712 -0.1372
13741TIP3   OH262713   4.718   2.461  12.543 -0.0603 -0.2725 -0.6285
13741TIP3    H162714   4.797   2.446  12.491 -0.1188  0.9507 -1.1083
13741TIP3    H262715   4.659   2.507  12.484 -0.7755 -0.3328  0.0235
13742TIP3   OH262716   1.079   4.943  15.064  0.1573  0.1680 -0.2401
13742TIP3    H162717   1.143   4.936  14.993 -0.0185  0.8967 -0.4763
13742TIP3    H262718   0.994   4.951  15.020 -0.0035  0.1447  0.0629
13743TIP3   OH262719   1.931   4.401  14.508  0.2644 -0.1834  0.8552
13743TIP3    H162720   1.975   4.325  14.546  1.2510  0.8384  1.8479
13743TIP3    H262721   1.844   4.400  14.546  0.5297 -0.3929  1.4727
13744TIP3   OH262722   4.867   1.155  16.189  0.1083  0.2508  0.2496
13744TIP3    H162723   4.820   1.093  16.245 -0.0306  0.3934  0.2908
13744TIP3    H262724   4.892   1.103  16.113 -2.9165  0.8936 -1.3378
13745TIP3   OH262725   5.483   0.811  15.516 -0.0727 -0.0262 -0.5636
13745TIP3    H162726   5.543   0.798  15.589 -0.6338 -1.8272 -0.3725
13745TIP3    H262727   5.521   0.883  15.466 -0.6022  2.5203  2.4147
13746TIP3   OH262728   2.772   4.595   0.685  0.3156 -0.5395 -0.3731
13746TIP3    H162729   2.775   4.518   0.741  0.2941  0.6339  1.2932
13746TIP3    H262730   2.698   4.580   0.626 -0.7197 -1.0623  1.0310
13747TIP3   OH262731   4.794   1.382  14.308 -0.2964  0.2129 -0.3262
13747TIP3    H162732   4.859   1.341  14.365 -0.8553  0.8512  0.8004
13747TIP3    H262733   4.842   1.402  14.228  0.1928 -1.8509 -0.5966
13748TIP3   OH262734   4.485   6.729   3.754  0.1716 -0.9849 -0.4062
13748TIP3    H162735   4.539   6.688   3.822 -0.7765  1.0518  1.7259
13748TIP3    H262736   4.424   6.660   3.728  2.9649 -3.0317 -2.1406
13749TIP3   OH262737   5.094   5.285   4.775 -0.3024 -0.4332  0.2325
13749TIP3    H162738   5.003   5.283   4.747 -1.0489 -0.8969  2.4956
13749TIP3    H262739   5.136   5.215   4.725 -1.6516 -1.5338  0.5802
13750TIP3   OH262740   5.805   1.107  13.535  0.2281 -0.3865 -0.2336
13750TIP3    H162741   5.736   1.042  13.534 -1.8246  1.6637  0.0617
13750TIP3    H262742   5.884   1.058  13.557 -1.5776 -2.4285  2.2162
13751TIP3   OH262743   3.591   0.492   4.802  0.3490 -0.4728  0.0059
13751TIP3    H162744   3.549   0.415   4.765  0.4223 -0.1419 -0.7853
13751TIP3    H262745   3.623   0.541   4.726 -1.2533  1.2399  0.3259
13752TIP3   OH262746   4.381   1.993  13.161  0.2715  0.1773 -0.1676
13752TIP3    H162747   4.386   2.063  13.096  1.7340  0.3377  0.0635
13752TIP3    H262748   4.434   1.923  13.124  0.5586  0.0110  0.5335
13753TIP3   OH262749   3.450   0.264  15.700 -0.0191  0.5324  0.0607
13753TIP3    H162750   3.452   0.260  15.796 -0.6634  1.6626  0.1377
13753TIP3    H262751   3.457   0.357  15.679  0.8198  0.2486 -1.0322
13754TIP3   OH262752   6.108   1.480   0.902  0.0173 -0.0346 -0.0716
13754TIP3    H162753   6.186   1.469   0.956 -1.5574 -1.6470  2.0649
13754TIP3    H262754   6.112   1.407   0.839  0.0410 -0.3751  0.3171
13755TIP3   OH262755   6.805   5.358  15.186 -0.6824 -0.0586  0.0735
13755TIP3    H162756   6.896   5.385  15.171 -0.2840 -0.6318  1.3448
13755TIP3    H262757   6.801   5.269  15.151 -0.9596  0.2317 -0.6442
13756TIP3   OH262758   1.746   6.712   1.120  0.0048 -0.1680 -0.1388
13756TIP3    H162759   1.689   6.640   1.149  1.2068 -1.8561 -1.6940
13756TIP3    H262760   1.772   6.687   1.031  1.9409  1.2723 -0.0429
13757TIP3   OH262761   3.770   3.776   3.221 -0.6171 -0.4141  0.0946
13757TIP3    H162762   3.732   3.861   3.201 -2.4310 -1.3546 -0.6800
13757TIP3    H262763   3.705   3.732   3.275 -0.6621 -2.0660 -1.2278
13758TIP3   OH262764   5.927   4.681  11.806 -0.7740  0.0278  0.5625
13758TIP3    H162765   5.957   4.700  11.895  0.3635  0.9292  0.0046
13758TIP3    H262766   5.841   4.723  11.799  0.4531  2.6360  0.2748
13759TIP3   OH262767   2.820   5.273   5.992  0.0993 -0.1285 -0.3692
13759TIP3    H162768   2.882   5.200   5.990  0.1439 -0.2170  1.7241
13759TIP3    H262769   2.812   5.295   6.085  0.0399  2.5155 -0.9142
13760TIP3   OH262770   4.846   6.777  13.623 -0.1458  0.2367  0.2362
13760TIP3    H162771   4.915   6.817  13.570  0.6959 -1.0469  0.3242
13760TIP3    H262772   4.843   6.686  13.594 -0.8392 -0.0613  1.2059
13761TIP3   OH262773   3.663   3.324  15.711  0.0711 -0.0126  0.6743
13761TIP3    H162774   3.655   3.240  15.667  0.5826 -0.2146  0.9537
13761TIP3    H262775   3.706   3.303  15.794  0.3807  0.5485  0.6598
13762TIP3   OH262776   3.535   6.590  14.698  0.2425  0.2208  0.4772
13762TIP3    H162777   3.472   6.518  14.703  1.6413 -1.2404 -1.5537
13762TIP3    H262778   3.523   6.627  14.611  1.1061  0.9749  0.6611
13763TIP3   OH262779   2.322   0.503  16.780 -0.2597  0.2230  0.2531
13763TIP3    H162780   2.400   0.558  16.779 -0.9845  1.3004 -1.4354
13763TIP3    H262781   2.313   0.473  16.690 -1.1328 -0.8613  0.6871
13764TIP3   OH262782   4.483   5.405   0.659 -0.4355  0.1115  0.2462
13764TIP3    H162783   4.403   5.394   0.711 -1.0103 -1.1350 -0.8405
13764TIP3    H262784   4.467   5.354   0.579  0.7530  1.2722 -0.7804
13765TIP3   OH262785   2.084   2.926   1.243 -0.6387  0.4191  0.3134
13765TIP3    H162786   2.059   2.878   1.322 -1.5653  0.8826  0.3206
13765TIP3    H262787   2.069   3.018   1.265 -3.2137  0.4389 -1.1257
13766TIP3   OH262788   5.890   5.851  13.634 -0.1894 -0.1744 -0.4170
13766TIP3    H162789   5.795   5.854  13.632 -0.1549  0.4756 -1.3812
13766TIP3    H262790   5.917   5.872  13.545  0.8501 -0.7352 -0.2500
13767TIP3   OH262791   5.923   5.747  16.770  0.6764  0.0695 -0.3907
13767TIP3    H162792   5.956   5.836  16.756  1.4999 -0.2384 -0.4556
13767TIP3    H262793   5.887   5.748  16.859  2.0764  0.0669  0.2010
13768TIP3   OH262794   2.293   0.802  16.188 -0.2191  0.3369  0.3382
13768TIP3    H162795   2.287   0.811  16.092 -0.8100  2.6201  0.5255
13768TIP3    H262796   2.320   0.889  16.218  0.9653 -0.6245  2.1920
13769TIP3   OH262797   4.524   2.486   2.390 -0.3208 -0.2339 -0.1514
13769TIP3    H162798   4.527   2.527   2.304  0.8533  0.2000  0.0902
13769TIP3    H262799   4.546   2.556   2.451 -0.5009 -0.6994  0.4577
13770TIP3   OH262800   1.140   6.767  14.517  0.5767 -0.2785 -0.0588
13770TIP3    H162801   1.172   6.809  14.438  1.7473 -0.5219  0.2605
13770TIP3    H262802   1.214   6.715  14.548 -0.1548 -0.9045  0.7015
13771TIP3   OH262803   0.217   6.226  16.497 -0.3877 -0.0377  0.2699
13771TIP3    H162804   0.287   6.233  16.433 -0.2144 -0.8248  0.3743
13771TIP3    H262805   0.240   6.291  16.564  0.6451 -0.7839  0.6756
13772TIP3   OH262806   2.118   1.045   3.785 -0.1115 -0.0050 -0.1118
13772TIP3    H162807   2.212   1.061   3.787 -0.0218 -0.5290 -0.0779
13772TIP3    H262808   2.094   1.028   3.876 -0.0915 -0.6800 -0.2254
13773TIP3   OH262809   6.111   6.821  16.785  0.3025 -0.5890 -0.2813
13773TIP3    H162810   6.171   6.780  16.723  1.9133  2.4367 -0.9363
13773TIP3    H262811   6.164   6.889  16.827 -1.7520 -0.1486  1.7882
13774TIP3   OH262812   0.754   0.777   1.265  0.0799 -0.0160 -0.1744
13774TIP3    H162813   0.664   0.778   1.233  0.3259 -0.6092 -0.9247
13774TIP3    H262814   0.769   0.686   1.292  0.1751  0.2755  0.7733
13775TIP3   OH262815   4.641   5.157   6.319 -0.5177 -0.6201 -0.0576
13775TIP3    H162816   4.703   5.148   6.247  2.3036  0.1128  2.0781
13775TIP3    H262817   4.587   5.078   6.315 -0.5503 -0.5477 -2.9295
13776TIP3   OH262818   4.657   4.654   1.670 -0.4589  0.3295  0.1235
13776TIP3    H162819   4.701   4.589   1.615 -0.6742 -0.5762  0.9785
13776TIP3    H262820   4.572   4.616   1.689 -0.1611  0.3220  1.5702
13777TIP3   OH262821   1.802   0.177  14.509  0.3799 -0.1391  0.3461
13777TIP3    H162822   1.828   0.179  14.417  0.2877  1.6032  0.3270
13777TIP3    H262823   1.818   0.087  14.536  0.0467 -0.8032 -1.4734
13778TIP3   OH262824   0.135   0.681   2.916 -0.2381 -0.1184  0.1309
13778TIP3    H162825   0.231   0.683   2.917 -0.2204 -1.0105  0.4884
13778TIP3    H262826   0.109   0.772   2.932  0.5432 -0.0222  0.8959
13779TIP3   OH262827   5.320   1.516  13.675 -0.2999  0.4883  1.0222
13779TIP3    H162828   5.387   1.507  13.607 -2.2735 -1.4026 -0.8066
13779TIP3    H262829   5.259   1.581  13.641 -0.5142  0.6580  1.7043
13780TIP3   OH262830   5.239   1.226   0.027 -0.6168 -0.3381 -0.1395
13780TIP3    H162831   5.289   1.207   0.107 -0.4709  0.2466 -0.0936
13780TIP3    H262832   5.305   1.234  -0.041 -0.8109 -1.9877 -0.5604
13781TIP3   OH262833   6.146   0.126  16.080  0.4484  0.0153  0.9714
13781TIP3    H162834   6.134   0.094  15.990 -0.8999  0.3816  0.9997
13781TIP3    H262835   6.134   0.220  16.074  1.9881  0.2588  1.2913
13782TIP3   OH262836   2.651   3.375   2.553  0.0405 -0.4716  0.5035
13782TIP3    H162837   2.730   3.397   2.603  0.7192 -0.4115 -0.5606
13782TIP3    H262838   2.641   3.281   2.564  0.2686 -0.4821  0.6292
13783TIP3   OH262839   4.989   5.319   3.554  0.8408  0.0780 -0.8317
13783TIP3    H162840   5.026   5.241   3.514  1.2550 -0.6888  0.9544
13783TIP3    H262841   5.046   5.390   3.524  2.5814 -0.7964  0.2116
13784TIP3   OH262842   0.661   6.325  11.555  0.0647 -0.5007  0.2972
13784TIP3    H162843   0.571   6.346  11.530 -0.4061 -2.1926  0.4424
13784TIP3    H262844   0.657   6.313  11.650  0.4345 -0.6164  0.2980
13785TIP3   OH262845   5.056   3.263   3.240 -0.3501 -0.3518  0.6900
13785TIP3    H162846   5.129   3.206   3.217  0.4042  1.3108 -1.4723
13785TIP3    H262847   5.074   3.291   3.329  0.1792 -2.0591  1.1621
13786TIP3   OH262848   1.637   4.073   4.106 -0.1790  0.0674  0.1670
13786TIP3    H162849   1.732   4.084   4.103 -0.0990 -0.6937 -0.2305
13786TIP3    H262850   1.623   3.979   4.113 -0.8877  0.2315  1.5467
13787TIP3   OH262851   2.717   3.453  12.425 -0.2544 -0.4712  0.4264
13787TIP3    H162852   2.659   3.520  12.389  2.1900  2.0962  0.8202
13787TIP3    H262853   2.684   3.437  12.513 -0.3274  1.0799  0.7126
13788TIP3   OH262854   1.662   1.373  16.015 -0.3157  0.2384  0.6296
13788TIP3    H162855   1.647   1.334  16.101 -2.0384  2.5156  1.4670
13788TIP3    H262856   1.575   1.405  15.988  0.4256  0.6895 -1.3772
13789TIP3   OH262857   0.031   5.602   0.032 -0.3905  0.2960 -0.0069
13789TIP3    H162858   0.103   5.555  -0.011  0.5528  2.3012 -0.7276
13789TIP3    H262859  -0.043   5.541   0.026  0.7962 -1.1650 -0.7401
13790TIP3   OH262860   6.631   3.404   5.113 -0.1867 -0.1573  0.1886
13790TIP3    H162861   6.609   3.346   5.040 -1.8549  1.2643 -0.5239
13790TIP3    H262862   6.717   3.439   5.090  0.4791 -1.7007  0.2362
13791TIP3   OH262863   4.027   3.023  13.248  0.6985  0.5937  0.0627
13791TIP3    H162864   4.074   3.106  13.255 -2.2603  2.5418 -1.3385
13791TIP3    H262865   4.047   2.993  13.159  1.9655 -0.4173  0.6507
13792TIP3   OH262866   1.754   3.887  13.155 -0.1502 -0.5445 -0.1121
13792TIP3    H162867   1.678   3.837  13.185 -0.2639 -1.2934 -1.5451
13792TIP3    H262868   1.761   3.866  13.062  0.8768  0.7477 -0.3583
13793TIP3   OH262869   1.976   2.756   5.452  0.0774 -0.1273 -0.0490
13793TIP3    H162870   1.975   2.720   5.541  0.2217  0.0979  0.0436
13793TIP3    H262871   2.069   2.756   5.428  0.1221  0.6093  0.1219
13794TIP3   OH262872   3.293   1.330   4.986  0.0777 -0.1786 -0.4828
13794TIP3    H162873   3.300   1.243   5.026  0.0819 -0.0551 -0.2126
13794TIP3    H262874   3.356   1.384   5.035 -0.0701  0.0252 -0.5167
13795TIP3   OH262875   0.892   2.266  15.290 -0.1684 -0.3894 -0.3664
13795TIP3    H162876   0.880   2.345  15.342 -1.2104  0.2333 -1.4907
13795TIP3    H262877   0.861   2.195  15.346 -0.6996  0.1875  0.0801
13796TIP3   OH262878   5.337   5.760   2.519 -0.0592 -0.0807  0.0182
13796TIP3    H162879   5.425   5.781   2.550 -0.5604 -0.8596  2.0840
13796TIP3    H262880   5.345   5.764   2.423  1.3971  3.0849  0.1284
13797TIP3   OH262881   0.701   5.500  12.131  0.1266  0.2803 -0.4338
13797TIP3    H162882   0.678   5.526  12.042 -0.3061  1.4289 -0.0089
13797TIP3    H262883   0.762   5.568  12.160 -1.0388  0.8663  0.7250
13798TIP3   OH262884   1.812   5.591  12.218 -0.0246  0.2260 -0.0823
13798TIP3    H162885   1.722   5.622  12.208  0.3652  2.2245  1.8006
13798TIP3    H262886   1.829   5.539  12.140 -2.1964  1.3338 -1.3731
13799TIP3   OH262887   2.483   2.599  13.180  0.3036  0.4338  0.0807
13799TIP3    H162888   2.500   2.678  13.231 -0.2683  1.2605 -0.9655
13799TIP3    H262889   2.466   2.532  13.245  1.9440  0.8764  1.0266
13800TIP3   OH262890   5.527   4.148  15.891 -0.4323  0.0187 -0.0377
13800TIP3    H162891   5.459   4.138  15.958 -2.0370  0.4988 -1.5191
13800TIP3    H262892   5.571   4.063  15.889 -0.8982 -0.2597  1.0576
13801TIP3   OH262893   3.235   3.715  12.016  0.2697  0.2282 -0.1466
13801TIP3    H162894   3.170   3.731  11.947 -1.4753 -1.5761  0.9751
13801TIP3    H262895   3.282   3.637  11.987  0.7289  0.4994 -0.1263
13802TIP3   OH262896   2.152   1.087  11.943 -0.1982 -0.1105  0.4086
13802TIP3    H162897   2.223   1.105  12.004 -1.2276  1.7996  1.1225
13802TIP3    H262898   2.196   1.062  11.861  1.2566  0.0158  1.1239
13803TIP3   OH262899   2.758   3.118  15.119  0.4270  0.2915  0.4303
13803TIP3    H162900   2.805   3.036  15.105  0.8558  0.4087  1.1661
13803TIP3    H262901   2.722   3.111  15.207  1.3622  1.3114  0.9300
13804TIP3   OH262902   2.593   2.053   2.465 -0.5168 -0.3678  0.0733
13804TIP3    H162903   2.655   2.094   2.526  1.4694 -1.0864 -1.3443
13804TIP3    H262904   2.539   2.125   2.433 -0.0372  0.3895  0.9332
13805TIP3   OH262905   1.863   4.546   3.919  0.1316  0.3758  0.0612
13805TIP3    H162906   1.898   4.544   4.008 -0.5438  0.3128  0.3346
13805TIP3    H262907   1.791   4.608   3.924 -1.1363 -1.0259  0.0354
13806TIP3   OH262908   2.438   6.703   5.796 -0.2484  0.1800  0.0600
13806TIP3    H162909   2.387   6.678   5.719 -1.0049 -0.9102  0.8833
13806TIP3    H262910   2.443   6.623   5.849  0.4039  0.8588  1.0674
13807TIP3   OH262911   4.887   5.975  15.648  0.3554  0.0548  0.4006
13807TIP3    H162912   4.797   5.946  15.665  0.6085  0.0850  1.8907
13807TIP3    H262913   4.941   5.920  15.705  1.0506  1.8138  1.5105
13808TIP3   OH262914   0.680   6.648  11.288  0.1686 -0.2742 -0.9524
13808TIP3    H162915   0.652   6.575  11.233  0.5609 -1.0559 -0.1525
13808TIP3    H262916   0.754   6.614  11.338  1.8827  1.4065 -2.2106
13809TIP3   OH262917   5.350   3.907   5.058  0.0307  0.4173 -0.1000
13809TIP3    H162918   5.386   3.819   5.042 -4.3520 -1.5362 -0.7125
13809TIP3    H262919   5.315   3.933   4.973 -1.0701  1.5537  0.6787
13810TIP3   OH262920   2.426   0.877   3.628 -0.5114  0.4248  0.4074
13810TIP3    H162921   2.452   0.813   3.694  2.1269  0.3716 -0.5663
13810TIP3    H262922   2.382   0.825   3.560 -0.2668 -0.0093  0.5777
13811TIP3   OH262923   5.379   4.440   4.061 -0.1857  0.0678  0.0783
13811TIP3    H162924   5.474   4.447   4.077 -0.4443 -0.0694  1.9262
13811TIP3    H262925   5.355   4.522   4.019  0.4631  0.8865  1.2651
13812TIP3   OH262926   1.758   6.826   4.495  0.5265  0.3089 -0.4147
13812TIP3    H162927   1.685   6.765   4.507  0.1577  0.5773 -1.2487
13812TIP3    H262928   1.719   6.903   4.455  1.3901  0.1612 -1.5845
13813TIP3   OH262929   0.306   1.744  11.194 -0.2369 -0.4573 -0.4231
13813TIP3    H162930   0.229   1.787  11.156 -0.6317  0.1537  1.0129
13813TIP3    H262931   0.347   1.812  11.248 -0.5586 -1.6896  1.4508
13814TIP3   OH262932   1.270   4.701   3.910  0.3780  0.1621 -0.3283
13814TIP3    H162933   1.210   4.763   3.952 -0.8107 -0.0448 -1.6602
13814TIP3    H262934   1.286   4.737   3.823 -0.7362 -1.6102 -1.3269
13815TIP3   OH262935   1.737   2.124   2.993 -0.2808  0.2494  0.1461
13815TIP3    H162936   1.819   2.076   2.986 -0.3469  0.1831 -0.1678
13815TIP3    H262937   1.669   2.058   2.979 -0.4081  0.2025  0.9013
13816TIP3   OH262938   2.655   4.345  14.849  0.2946 -0.1356 -0.2725
13816TIP3    H162939   2.729   4.395  14.882 -0.2294 -0.4824  1.5380
13816TIP3    H262940   2.642   4.275  14.914 -1.3499 -0.3278 -0.7554
13817TIP3   OH262941   5.247   2.638  14.700 -0.1227 -0.0125 -0.2897
13817TIP3    H162942   5.219   2.605  14.786  0.8790  0.9084  0.4199
13817TIP3    H262943   5.208   2.725  14.694 -0.8127 -0.3625 -1.1262
13818TIP3   OH262944   0.706   5.647   3.822  0.3623  0.5352 -0.2541
13818TIP3    H162945   0.660   5.563   3.822  0.8872  0.1717 -2.5799
13818TIP3    H262946   0.663   5.698   3.753  1.4108  1.3453 -0.3298
13819TIP3   OH262947   0.852   0.158  14.708 -0.1218 -0.0002 -0.4051
13819TIP3    H162948   0.805   0.235  14.740 -0.8929  0.0496 -1.5977
13819TIP3    H262949   0.855   0.169  14.613  0.3981 -1.0875 -0.5310
13820TIP3   OH262950   3.995   1.805   2.744  0.2996 -0.0413  0.1475
13820TIP3    H162951   3.951   1.890   2.744  1.7945  0.7703  0.4296
13820TIP3    H262952   4.066   1.815   2.809  0.1738 -1.6768  0.5652
13821TIP3   OH262953   4.691   2.747  12.400  0.1959 -0.2137  0.4374
13821TIP3    H162954   4.769   2.782  12.443 -1.1055  2.7539  0.5654
13821TIP3    H262955   4.688   2.792  12.316 -1.4249 -0.1850  0.4844
13822TIP3   OH262956   1.054   2.449  11.746 -0.2583  0.0589  0.1746
13822TIP3    H162957   1.123   2.452  11.812 -0.7679 -0.3740  0.7345
13822TIP3    H262958   0.993   2.518  11.772 -2.3861 -2.4210  2.3526
13823TIP3   OH262959   1.213   3.689   4.056  0.4538  0.1270  0.5690
13823TIP3    H162960   1.308   3.682   4.052  0.6186  0.8151  2.4515
13823TIP3    H262961   1.194   3.776   4.020  0.1984 -1.0882 -2.6281
13824TIP3   OH262962   5.228   2.087  14.954  0.1786  0.2056 -0.0609
13824TIP3    H162963   5.144   2.068  14.914 -0.0498  0.8290  0.1225
13824TIP3    H262964   5.259   2.002  14.987 -0.4079 -0.0088 -0.0668
13825TIP3   OH262965   2.764   2.437   3.050 -0.2374  0.3381 -0.1447
13825TIP3    H162966   2.789   2.523   3.018 -1.7283  0.8248 -0.0826
13825TIP3    H262967   2.738   2.389   2.971  1.9144 -0.5693 -0.3614
13826TIP3   OH262968   3.899   3.740  16.897  0.2815  0.0980  0.0453
13826TIP3    H162969   3.979   3.689  16.905 -0.8881 -1.5979  1.5471
13826TIP3    H262970   3.912   3.793  16.817  2.7657 -0.2627  0.1430
13827TIP3   OH262971   0.541   2.006  13.408 -0.1919 -0.0957 -0.2447
13827TIP3    H162972   0.509   1.921  13.377  0.8710 -0.6112  0.0258
13827TIP3    H262973   0.595   1.984  13.484  1.5675  0.6291 -1.2255
13828TIP3   OH262974   1.493   1.960   3.353  0.4606 -0.3444  0.4027
13828TIP3    H162975   1.476   1.890   3.290 -1.4974 -0.0899  0.5799
13828TIP3    H262976   1.450   1.931   3.434 -0.3185  0.9773  0.4992
13829TIP3   OH262977   1.142   1.725  16.870 -0.1951 -0.2231 -0.1657
13829TIP3    H162978   1.146   1.818  16.850  1.1003 -0.2533 -0.1604
13829TIP3    H262979   1.151   1.682  16.785  2.2763 -0.3285  0.0685
13830TIP3   OH262980   4.889   1.902  14.207 -0.2078 -0.4257  0.3612
13830TIP3    H162981   4.949   1.832  14.232 -0.1241  0.5313  3.2489
13830TIP3    H262982   4.900   1.969  14.275 -1.5645  1.6278 -1.2936
13831TIP3   OH262983   0.707   4.104   0.832 -0.3956 -0.7102 -0.2496
13831TIP3    H162984   0.660   4.152   0.900 -0.3797  0.5660 -1.0986
13831TIP3    H262985   0.728   4.019   0.872  0.9675  0.5267  1.8790
13832TIP3   OH262986   3.059   1.778   3.578  0.1401 -0.3155  0.0718
13832TIP3    H162987   3.098   1.691   3.583  0.9206  0.0772  0.9303
13832TIP3    H262988   3.076   1.807   3.488  2.3639  0.0808  0.5689
13833TIP3   OH262989   2.419   1.482   5.820 -0.2239 -0.0589  0.0151
13833TIP3    H162990   2.379   1.476   5.907 -2.2704 -0.6846 -0.9154
13833TIP3    H262991   2.470   1.401   5.812 -1.8605 -1.1213 -0.1816
13834TIP3   OH262992   2.470   4.273   1.151 -0.2951 -0.4453 -0.3759
13834TIP3    H162993   2.450   4.343   1.089  0.1226 -0.3723 -0.4279
13834TIP3    H262994   2.450   4.193   1.102  1.3497 -0.4419 -1.1046
13835TIP3   OH262995   6.354   6.252  12.643  0.2593 -0.3023 -0.0438
13835TIP3    H162996   6.365   6.303  12.562 -0.1416  0.1616  0.1944
13835TIP3    H262997   6.304   6.309  12.701  1.8307 -0.0280  1.0987
13836TIP3   OH262998   1.422   3.172   5.199  0.1076  0.1109  0.2647
13836TIP3    H162999   1.481   3.233   5.242 -0.0654 -0.2046  0.9776
13836TIP3    H263000   1.373   3.132   5.271  0.8945 -1.5793 -0.0693
13837TIP3   OH263001   3.431   4.969   3.771 -0.0136  0.4799 -0.5678
13837TIP3    H163002   3.388   4.912   3.835  0.6254  0.1975 -0.3798
13837TIP3    H263003   3.516   4.989   3.810  0.3581  0.3600 -1.2935
13838TIP3   OH263004   3.469   0.780   2.178  0.6266 -0.0469 -0.2230
13838TIP3    H163005   3.525   0.752   2.106  0.3506 -0.4940 -0.2656
13838TIP3    H263006   3.516   0.754   2.257  0.7075  0.0153 -0.2508
13839TIP3   OH263007   0.141   5.860  15.752 -0.0260 -0.0161 -0.1176
13839TIP3    H163008   0.083   5.881  15.679 -1.0917 -1.0549  0.4014
13839TIP3    H263009   0.099   5.786  15.796  1.3106 -0.3079  0.7301
13840TIP3   OH263010   4.679   0.143  13.878  0.3683  0.2882  0.1772
13840TIP3    H163011   4.638   0.227  13.857 -3.8231 -1.8994 -1.5202
13840TIP3    H263012   4.639   0.117  13.961  0.3918 -0.7293 -0.1164
13841TIP3   OH263013   4.001   1.933   5.160 -0.1694  0.2011  0.8365
13841TIP3    H163014   4.075   1.993   5.148 -1.4099  1.6508  0.2453
13841TIP3    H263015   3.944   1.948   5.085 -2.2309  0.8428  2.4395
13842TIP3   OH263016   1.695   3.290   2.247  0.1630 -0.1141 -0.0301
13842TIP3    H163017   1.630   3.359   2.234  0.6086 -0.1904 -3.2954
13842TIP3    H263018   1.671   3.222   2.185  3.7257  0.1664 -1.9589
13843TIP3   OH263019   5.958   2.376   0.523  0.5730 -0.2697 -0.2377
13843TIP3    H163020   6.043   2.364   0.564  0.4107  0.0458  0.1939
13843TIP3    H263021   5.978   2.387   0.430  0.9713 -0.5940 -0.1926
13844TIP3   OH263022   5.172   0.884   4.063  0.9593  0.3260 -0.4593
13844TIP3    H163023   5.255   0.871   4.107  0.5108  1.2910  0.7085
13844TIP3    H263024   5.106   0.856   4.126  0.2957  1.9553 -0.3842
13845TIP3   OH263025   6.511   6.611  12.181 -0.1298  0.3337 -0.2998
13845TIP3    H163026   6.448   6.649  12.120 -1.0515 -1.1072 -0.2675
13845TIP3    H263027   6.461   6.550  12.235  1.2663 -0.8544 -0.2661
13846TIP3   OH263028   5.479   4.093  14.037 -0.3117 -0.4171  0.0518
13846TIP3    H163029   5.438   4.140  13.964 -0.2521 -0.4988 -0.0346
13846TIP3    H263030   5.446   4.003  14.028  0.4416 -0.6530 -0.4472
13847TIP3   OH263031   6.197   0.556   1.118 -0.1957 -0.3432 -0.1491
13847TIP3    H163032   6.201   0.474   1.166  1.4205  0.9344  2.0563
13847TIP3    H263033   6.190   0.624   1.185 -0.1524  1.4239 -1.8275
13848TIP3   OH263034   2.345   3.634  16.549  0.9028  0.3021 -0.7548
13848TIP3    H163035   2.408   3.562  16.545 -0.7845 -1.2888 -0.3047
13848TIP3    H263036   2.365   3.678  16.632  2.3474  0.7654 -1.3256
13849TIP3   OH263037   3.966   5.156   3.055 -0.2940 -0.3442  0.1124
13849TIP3    H163038   4.005   5.215   2.991 -0.0988  0.3913  0.8925
13849TIP3    H263039   3.947   5.076   3.006  0.8664 -0.1934 -0.6144
13850TIP3   OH263040   5.939   6.464   1.689  0.4442  1.1243 -0.0091
13850TIP3    H163041   6.021   6.489   1.646 -0.3750  2.9359 -0.6116
13850TIP3    H263042   5.896   6.547   1.710 -2.0969  0.2749 -1.3982
13851TIP3   OH263043   3.091   4.873  16.059  0.1039  0.0930 -0.0347
13851TIP3    H163044   3.117   4.868  16.151 -1.6415 -0.3572  0.4697
13851TIP3    H263045   2.999   4.899  16.062  0.6345  2.5090 -1.7527
13852TIP3   OH263046   0.697   1.487  11.471  0.2381  0.5803 -0.4056
13852TIP3    H163047   0.731   1.398  11.475  1.7930  1.1732  2.7781
13852TIP3    H263048   0.606   1.480  11.499 -0.1769 -0.1590 -1.8643
13853TIP3   OH263049   6.128   6.544   0.905  0.1190  0.2839  0.8432
13853TIP3    H163050   6.185   6.469   0.922 -1.1137 -0.8906  0.0751
13853TIP3    H263051   6.183   6.621   0.917  2.0978 -0.8097 -0.7308
13854TIP3   OH263052   1.653   1.721   0.026  0.5057  0.4351 -0.1829
13854TIP3    H163053   1.685   1.646   0.076  0.3315  1.6700  1.8984
13854TIP3    H263054   1.558   1.709   0.022  0.5990 -0.1491 -1.1249
13855TIP3   OH263055   3.290   5.713   1.877  0.0321  0.2490  0.8859
13855TIP3    H163056   3.318   5.748   1.792  1.0375 -2.2780  0.0804
13855TIP3    H263057   3.195   5.705   1.869  0.2581 -1.9456 -0.9597
13856TIP3   OH263058   2.101   4.627  15.673 -0.0123  0.0830  0.0091
13856TIP3    H163059   2.087   4.660  15.762  0.5213 -2.0329  0.9289
13856TIP3    H263060   2.076   4.535  15.677 -0.8042  0.1519 -2.2737
13857TIP3   OH263061   0.389   2.378  15.595  0.1617  0.3742  0.1339
13857TIP3    H163062   0.335   2.383  15.674  1.3007  0.7353  0.9077
13857TIP3    H263063   0.371   2.460  15.549 -1.0344 -0.1375 -0.3679
13858TIP3   OH263064   0.151   6.746  13.375 -0.3547 -0.3395 -0.3666
13858TIP3    H163065   0.077   6.699  13.338 -1.1665  1.2204 -0.7774
13858TIP3    H263066   0.173   6.812  13.310  0.1919  0.4282  0.5700
13859TIP3   OH263067   4.919   5.625   0.057 -0.1813  0.0680 -0.4545
13859TIP3    H163068   4.942   5.704   0.008 -2.3948 -0.5480 -2.6647
13859TIP3    H263069   4.845   5.587   0.010 -0.1438 -2.5775  1.3618
13860TIP3   OH263070   3.387   1.706   1.392  0.1770 -0.2340  0.0985
13860TIP3    H163071   3.406   1.729   1.483 -1.2996  0.4455  0.2750
13860TIP3    H263072   3.422   1.618   1.381  2.0595  0.3920  0.7446
13861TIP3   OH263073   4.584   3.328   5.953 -0.0984  0.2973 -0.5144
13861TIP3    H163074   4.530   3.396   5.994  0.0886 -0.1391  0.4897
13861TIP3    H263075   4.664   3.326   6.005 -2.1934 -4.5396  3.3870
13862TIP3   OH263076   5.431   1.077  14.122 -0.0307  0.7561  0.1052
13862TIP3    H163077   5.339   1.059  14.105  0.0899 -0.7778  0.8430
13862TIP3    H263078   5.455   1.145  14.060 -2.1754  2.6935  1.2476
13863TIP3   OH263079   0.801   1.649  13.606 -0.0894  0.0816 -0.4769
13863TIP3    H163080   0.767   1.616  13.689 -0.3264  0.5733 -0.3798
13863TIP3    H263081   0.872   1.588  13.584  0.4060  0.3259  0.4121
13864TIP3   OH263082   1.742   0.218  15.959  0.9549  0.7879 -0.0138
13864TIP3    H163083   1.828   0.254  15.980  1.1653  1.1640 -1.4211
13864TIP3    H263084   1.759   0.153  15.891  0.1814  0.4939  0.0656
13865TIP3   OH263085   6.196   0.809  12.740 -0.4996 -0.4878 -0.0979
13865TIP3    H163086   6.222   0.761  12.819  0.4312  0.9062  0.4896
13865TIP3    H263087   6.119   0.859  12.767 -0.2762 -0.1352 -0.0983
13866TIP3   OH263088   2.205   6.517   4.164 -0.7048  0.0464  0.3163
13866TIP3    H163089   2.204   6.487   4.255 -1.3973 -0.2550  0.2190
13866TIP3    H263090   2.153   6.598   4.165  0.0741  0.5529  0.3501
13867TIP3   OH263091   2.411   2.185   1.973 -0.0571 -0.2603  0.2980
13867TIP3    H163092   2.476   2.169   1.906  0.5001  1.9928  0.2263
13867TIP3    H263093   2.371   2.100   1.989  2.2934 -1.5535 -0.2661
13868TIP3   OH263094   5.963   5.233  14.711 -0.4270  0.1661  0.2690
13868TIP3    H163095   5.934   5.174  14.781  0.8340 -1.5818 -0.6073
13868TIP3    H263096   6.044   5.271  14.745 -1.2998  1.5389  0.8801
13869TIP3   OH263097   4.263   3.984  15.703 -0.5459  0.7782 -0.0360
13869TIP3    H163098   4.319   3.909  15.680 -0.7877  0.0939  1.4747
13869TIP3    H263099   4.323   4.059  15.701  0.1908  0.2252  0.4848
13870TIP3   OH263100   2.599   3.150   6.012 -0.0044 -0.3334 -0.0184
13870TIP3    H163101   2.540   3.135   5.938  0.7399  3.8004 -1.7390
13870TIP3    H263102   2.542   3.180   6.082 -0.3036  0.7791 -0.7068
13871TIP3   OH263103   3.813   2.713   0.688 -0.1395  0.1393  0.5160
13871TIP3    H163104   3.863   2.747   0.762 -0.5287 -0.6217  1.1451
13871TIP3    H263105   3.781   2.791   0.642  1.5115  0.6342  0.1623
13872TIP3   OH263106   6.037   0.801   3.917 -0.5575 -0.2467 -0.2786
13872TIP3    H163107   5.998   0.720   3.948 -0.7803  0.0997  0.3674
13872TIP3    H263108   5.982   0.870   3.955 -0.3579  0.2055 -0.7962
13873TIP3   OH263109   4.419   0.232   1.500 -0.3506  0.7147 -0.5476
13873TIP3    H163110   4.514   0.239   1.490 -0.5684  1.3837 -2.5355
13873TIP3    H263111   4.397   0.146   1.464 -0.4971  0.5073  0.0250
13874TIP3   OH263112   4.926   0.641  11.928 -0.5634  0.2491 -0.2029
13874TIP3    H163113   4.927   0.591  12.009 -0.0735 -0.2635 -0.5149
13874TIP3    H263114   4.912   0.575  11.860  3.1824 -0.0234 -0.9461
13875TIP3   OH263115   2.226   1.087  10.906  0.2930  0.0752 -0.2314
13875TIP3    H163116   2.162   1.108  10.838  0.1515  0.1436 -0.0786
13875TIP3    H263117   2.180   1.104  10.988  0.2526 -0.6170 -0.1057
13876TIP3   OH263118   0.664   1.144  10.681  0.4916 -0.3107 -0.0696
13876TIP3    H163119   0.735   1.197  10.645  1.2689 -1.7231 -0.6824
13876TIP3    H263120   0.705   1.061  10.706 -0.8789 -1.0509 -0.1511
13877TIP3   OH263121   5.078   1.277   0.313 -0.9445 -0.1123  0.0311
13877TIP3    H163122   5.169   1.248   0.304 -1.0004 -0.3334  0.1642
13877TIP3    H263123   5.049   1.292   0.223  0.2507  3.2620  0.0689
13878TIP3   OH263124   5.645   5.389   2.133 -0.0017  0.1200 -0.4051
13878TIP3    H163125   5.632   5.346   2.048  0.0928  0.0094 -0.3636
13878TIP3    H263126   5.692   5.324   2.186  1.1061  0.6732 -0.6913
13879TIP3   OH263127   5.575   3.124  14.786 -0.4318 -0.8790  0.2630
13879TIP3    H163128   5.560   3.125  14.691 -1.1071 -0.3783  0.3611
13879TIP3    H263129   5.491   3.096  14.823 -1.5770  2.7314  0.8692
13880TIP3   OH263130   6.339   2.700  14.692 -0.7571  0.8001  0.4423
13880TIP3    H163131   6.356   2.607  14.707 -1.3434  0.8551  1.5206
13880TIP3    H263132   6.425   2.741  14.694 -0.3297  0.0901 -1.5968
13881TIP3   OH263133   0.838   5.033   3.160  0.2442 -0.2734 -0.0134
13881TIP3    H163134   0.810   4.965   3.098  1.8014 -0.1064 -0.9457
13881TIP3    H263135   0.814   5.115   3.118  1.9085 -0.1326 -0.7622
13882TIP3   OH263136   1.548   1.612  15.875  0.1688 -0.0271  0.0138
13882TIP3    H163137   1.627   1.576  15.916 -0.0015  0.7828  1.1074
13882TIP3    H263138   1.477   1.555  15.905  0.4570 -1.5170 -1.9797
13883TIP3   OH263139   5.585   0.260   0.886 -0.1926  0.2138 -0.2112
13883TIP3    H163140   5.587   0.185   0.945  2.7650  0.8612  0.6710
13883TIP3    H263141   5.598   0.336   0.944 -0.0603  1.1245 -1.3956
13884TIP3   OH263142   3.622   3.451  16.172  0.4782  0.6262  0.0470
13884TIP3    H163143   3.597   3.515  16.238 -0.9455 -0.1040  0.2616
13884TIP3    H263144   3.669   3.501  16.106 -0.8990  1.9644  0.0363
13885TIP3   OH263145   6.396   4.912  16.800 -0.2738  0.1680 -0.0090
13885TIP3    H163146   6.394   4.993  16.852 -0.5141 -0.5523  1.1405
13885TIP3    H263147   6.412   4.843  16.865  0.6613 -0.6416 -1.0714
13886TIP3   OH263148   3.829   0.282   1.632  0.2246 -0.2200  0.0293
13886TIP3    H163149   3.908   0.231   1.612 -0.6848 -1.5002 -0.4019
13886TIP3    H263150   3.756   0.223   1.613 -0.9971  1.8468 -2.4166
13887TIP3   OH263151   1.494   6.035  12.108  0.3028 -0.0314  0.3586
13887TIP3    H163152   1.587   6.015  12.114  0.4574 -0.2669 -2.1295
13887TIP3    H263153   1.485   6.088  12.030 -1.8616 -1.4938 -0.4917
13888TIP3   OH263154   4.874   4.268  16.711 -0.8419 -0.1625  0.1445
13888TIP3    H163155   4.876   4.359  16.681  0.6355 -0.3218 -0.2865
13888TIP3    H263156   4.857   4.274  16.805 -0.2502  0.5793  0.2089
13889TIP3   OH263157   5.710   5.532   2.420 -0.3483  0.1334 -0.6146
13889TIP3    H163158   5.803   5.516   2.401 -0.2362  0.6676 -0.5425
13889TIP3    H263159   5.664   5.460   2.378  0.1905 -0.8394  0.3970
13890TIP3   OH263160   3.922   2.138   2.624  0.1139 -0.1288  0.1841
13890TIP3    H163161   3.893   2.214   2.675  1.8770 -0.6764  2.1552
13890TIP3    H263162   4.014   2.155   2.606  0.3368 -1.4554 -0.0200
13891TIP3   OH263163   1.460   2.301   1.462 -0.1575 -0.4579 -0.8061
13891TIP3    H163164   1.457   2.279   1.369 -0.7518  1.1139 -1.1896
13891TIP3    H263165   1.463   2.397   1.464  3.1758 -0.4538  0.7467
13892TIP3   OH263166   3.948   3.192   5.766 -0.5462 -0.0122 -0.3845
13892TIP3    H163167   4.019   3.254   5.780  1.8103 -2.2297 -1.6084
13892TIP3    H263168   3.922   3.164   5.854  0.3520  0.5665  0.0796
13893TIP3   OH263169   1.556   6.205  13.482  0.2335  0.3519 -0.3189
13893TIP3    H163170   1.566   6.161  13.566  0.1245 -1.1545 -1.0711
13893TIP3    H263171   1.628   6.269  13.480  0.7202 -0.1511  0.5736
13894TIP3   OH263172   4.396   1.700  12.903  0.2920 -0.1756 -0.4002
13894TIP3    H163173   4.352   1.630  12.952  0.1236 -1.1374 -1.8393
13894TIP3    H263174   4.441   1.752  12.969 -1.7725 -0.0471  0.9874
13895TIP3   OH263175   2.168   5.028   4.403 -0.4732  0.5681 -0.1191
13895TIP3    H163176   2.260   5.001   4.398 -0.6184  0.1570 -0.6778
13895TIP3    H263177   2.171   5.123   4.411 -0.0298  0.7509 -1.9746
13896TIP3   OH263178   5.001   2.250  12.768 -0.0417  0.7837  0.5745
13896TIP3    H163179   5.047   2.166  12.763 -1.6102 -0.1255  0.6769
13896TIP3    H263180   5.023   2.294  12.686 -0.0202 -0.1883  0.0330
13897TIP3   OH263181   4.584   6.620  13.792 -0.3771 -0.0535  0.3918
13897TIP3    H163182   4.607   6.704  13.752 -0.2311 -0.6275 -0.7870
13897TIP3    H263183   4.539   6.572  13.722  1.4134 -1.7766  0.3467
13898TIP3   OH263184   1.872   4.554   1.442  0.0435 -0.3564  0.1102
13898TIP3    H163185   1.921   4.627   1.404  0.0720 -0.1918  0.4588
13898TIP3    H263186   1.781   4.571   1.417  0.1199 -0.5002 -0.2786
13899TIP3   OH263187   1.208   3.492  13.415 -0.3899  0.0100  0.1061
13899TIP3    H163188   1.261   3.452  13.483 -2.4477  0.8639  2.3336
13899TIP3    H263189   1.193   3.422  13.351 -0.4835 -1.5885  1.8079
13900TIP3   OH263190   2.182   6.546  15.087  0.2225 -0.0716  0.5494
13900TIP3    H163191   2.242   6.616  15.064 -0.4993  0.0796 -0.9846
13900TIP3    H263192   2.232   6.466  15.075  0.5260  0.1090  0.6121
13901TIP3   OH263193   2.331   4.786   3.480 -0.0440  0.8935 -0.0702
13901TIP3    H163194   2.243   4.749   3.478  0.4587 -0.3748 -2.1979
13901TIP3    H263195   2.373   4.752   3.400  2.5175  1.0835  1.0942
13902TIP3   OH263196   1.793   5.835   3.305 -1.1144 -0.0723 -0.5938
13902TIP3    H163197   1.743   5.917   3.300 -1.0017  0.2518  2.2777
13902TIP3    H263198   1.736   5.775   3.353 -0.1340 -0.8397 -0.3723
13903TIP3   OH263199   3.826   5.154  15.964 -0.5623  0.3343 -0.3698
13903TIP3    H163200   3.807   5.157  15.870 -1.6474  0.5092 -0.1470
13903TIP3    H263201   3.791   5.071  15.993 -0.5213  0.4297 -0.0475
13904TIP3   OH263202   2.580   6.610  15.319  0.1433 -0.2089 -0.5029
13904TIP3    H163203   2.510   6.633  15.381  1.0119 -1.0008  0.8004
13904TIP3    H263204   2.609   6.694  15.285 -0.7061  0.2084 -0.2347
13905TIP3   OH263205   5.982   0.622  14.434  0.1742  0.1583 -0.1545
13905TIP3    H163206   5.914   0.554  14.439  0.0153  0.2747 -0.6677
13905TIP3    H263207   5.971   0.660  14.346  0.7772  0.3100 -0.1639
13906TIP3   OH263208   0.649   6.180  16.710 -0.3099 -0.1697  0.1103
13906TIP3    H163209   0.652   6.139  16.623  1.4686  1.0288 -0.4533
13906TIP3    H263210   0.603   6.262  16.697 -2.1141 -1.0095  0.8357
13907TIP3   OH263211   5.821   4.047   3.900 -0.2762 -0.2696  0.2049
13907TIP3    H163212   5.909   4.048   3.937  0.3899  1.2787 -1.2773
13907TIP3    H263213   5.835   4.031   3.806 -1.6245 -0.5771  0.0347
13908TIP3   OH263214   1.613   1.762   2.430 -0.3868  0.4033 -0.3187
13908TIP3    H163215   1.600   1.827   2.361  0.5709 -0.2577 -1.1572
13908TIP3    H263216   1.704   1.734   2.419 -0.0763  0.5984  1.5085
13909TIP3   OH263217   4.689   2.616  15.912  0.5953 -0.5666  0.6663
13909TIP3    H163218   4.664   2.707  15.896  0.5172 -0.3919  1.6895
13909TIP3    H263219   4.607   2.573  15.938  0.6679 -0.8765  0.3796
13910TIP3   OH263220   2.028   5.082   2.325 -0.4762 -0.3565 -0.2940
13910TIP3    H163221   2.107   5.031   2.340 -0.6093 -1.0652 -1.7766
13910TIP3    H263222   1.956   5.023   2.348 -0.6028 -0.2707 -0.4668
13911TIP3   OH263223   0.191   6.796   2.638  0.4944 -0.2346 -0.0906
13911TIP3    H163224   0.262   6.814   2.699 -0.4311 -0.0115  0.9474
13911TIP3    H263225   0.130   6.870   2.649  0.5276  0.0642 -1.6328
13912TIP3   OH263226   0.524   4.782  14.592 -0.0813 -0.8099 -0.4674
13912TIP3    H163227   0.542   4.856  14.534 -1.3976 -0.3578 -0.3251
13912TIP3    H263228   0.430   4.765  14.582 -0.1474 -1.3317  0.8066
13913TIP3   OH263229   1.973   2.088  14.151  0.1582 -0.3430 -0.1403
13913TIP3    H163230   1.918   2.099  14.229 -0.4517 -1.1147 -0.4448
13913TIP3    H263231   2.040   2.156  14.159 -0.7328  0.5137  0.3390
13914TIP3   OH263232   6.596   5.531  12.734 -0.3298 -0.1917  0.2060
13914TIP3    H163233   6.512   5.544  12.690  0.4010  1.7350 -0.7603
13914TIP3    H263234   6.573   5.503  12.823 -2.0458  1.2569  0.2826
13915TIP3   OH263235   1.642   4.455   4.242  0.6462  0.5223  0.3574
13915TIP3    H163236   1.566   4.511   4.256 -1.2095 -2.1528  1.9326
13915TIP3    H263237   1.622   4.408   4.161  1.3115  0.8007  0.0269
13916TIP3   OH263238   5.064   0.391   3.158  0.2184 -0.4414 -0.3172
13916TIP3    H163239   5.076   0.328   3.086  2.1566  1.4682 -1.7936
13916TIP3    H263240   5.008   0.459   3.121 -1.3571 -0.9307  1.0649
13917TIP3   OH263241   1.711   1.919   5.291  0.9578  0.3459  0.5950
13917TIP3    H163242   1.761   1.869   5.356  0.5997  1.1018  1.4605
13917TIP3    H263243   1.624   1.879   5.291  1.4119 -0.6929 -0.6021
13918TIP3   OH263244   0.842   0.232   6.229 -0.4493 -0.2053  0.6068
13918TIP3    H163245   0.857   0.327   6.238  0.7754 -0.4669  1.5584
13918TIP3    H263246   0.747   0.223   6.233 -0.5696  0.9606  0.8936
13919TIP3   OH263247   4.865   2.443   5.258 -0.1577 -0.6199  0.8398
13919TIP3    H163248   4.775   2.411   5.248  0.0960 -1.2705  0.6657
13919TIP3    H263249   4.856   2.518   5.317 -0.9308 -0.1405  0.1568
13920TIP3   OH263250   1.929   4.295   0.608  0.3364  0.2153 -0.5705
13920TIP3    H163251   1.837   4.285   0.633  0.4140 -1.1076 -0.7271
13920TIP3    H263252   1.970   4.213   0.636  1.9215  1.6010  1.3508
13921TIP3   OH263253   4.721   1.707  11.177 -0.0557  0.0400  0.3987
13921TIP3    H163254   4.779   1.697  11.253  2.5201 -1.4799 -1.5876
13921TIP3    H263255   4.762   1.775  11.124 -2.1169  1.4762  0.5557
13922TIP3   OH263256   4.582   2.771  15.636 -0.4537  0.2317  0.2434
13922TIP3    H163257   4.650   2.703  15.635 -1.3037 -0.6378 -0.7071
13922TIP3    H263258   4.620   2.843  15.587 -0.7290 -0.8257 -1.6275
13923TIP3   OH263259   4.014   6.655  16.464 -0.5099  0.0534  0.4736
13923TIP3    H163260   4.086   6.604  16.427  1.5931  2.2983  1.1522
13923TIP3    H263261   3.963   6.683  16.388 -0.3489 -1.1189 -0.0800
13924TIP3   OH263262   0.543   0.717  11.080  0.1355 -0.4802  0.4789
13924TIP3    H163263   0.574   0.648  11.022 -4.2498 -0.3810 -2.5254
13924TIP3    H263264   0.602   0.791  11.064  0.9753 -1.4938 -1.4518
13925TIP3   OH263265   4.971   3.163   0.066  0.4337 -0.1542 -0.4806
13925TIP3    H163266   4.898   3.197   0.013  0.9304 -0.3610 -1.3137
13925TIP3    H263267   4.940   3.170   0.156 -0.7747 -0.6079 -0.8420
13926TIP3   OH263268   2.515   5.400  13.433  0.5434 -0.2656 -0.4534
13926TIP3    H163269   2.571   5.431  13.362  1.8400 -1.9238 -0.2166
13926TIP3    H263270   2.536   5.456  13.507  0.9864 -0.0983 -0.7025
13927TIP3   OH263271   2.068   4.336   3.962 -0.1765  0.3804 -0.5707
13927TIP3    H163272   2.075   4.415   4.016 -0.8873  0.1184 -0.0729
13927TIP3    H263273   1.974   4.325   3.949 -0.4214 -2.3641  2.3760
13928TIP3   OH263274   6.477   3.156   1.085  0.4453 -0.0553 -0.2949
13928TIP3    H163275   6.475   3.238   1.136  2.1149 -0.2494  0.1169
13928TIP3    H263276   6.550   3.166   1.026  2.1861 -2.1328  1.3361
13929TIP3   OH263277   4.892   6.051  16.789  0.3043  0.0730  0.0855
13929TIP3    H163278   4.851   6.067  16.704  0.0658  0.3806  0.2554
13929TIP3    H263279   4.927   6.137  16.815 -0.5114  0.2076  0.7641
13930TIP3   OH263280   2.427   6.416  12.763  0.1391  0.0670 -0.2105
13930TIP3    H163281   2.422   6.335  12.813 -0.6173  0.4809  0.4046
13930TIP3    H263282   2.507   6.408  12.711 -0.1456 -1.2396 -0.4623
13931TIP3   OH263283   2.222   2.143  14.560 -0.6196 -0.2566 -0.1237
13931TIP3    H163284   2.270   2.110  14.636  0.5681 -0.1666 -0.8083
13931TIP3    H263285   2.237   2.237  14.562  0.5694 -0.3849 -1.1899
13932TIP3   OH263286   2.643   1.186  11.318  0.9635  0.2772 -0.2155
13932TIP3    H163287   2.568   1.245  11.308  1.1210  0.2362 -1.9909
13932TIP3    H263288   2.643   1.134  11.237  0.4716 -2.6335  1.5227
13933TIP3   OH263289   5.950   6.375  16.728 -0.2024  0.0870 -0.0977
13933TIP3    H163290   6.038   6.339  16.736 -0.6763 -0.7457  2.0443
13933TIP3    H263291   5.962   6.470  16.731  0.6089 -0.0242  0.2919
13934TIP3   OH263292   5.920   4.569   3.113 -0.5182 -0.6889 -0.3342
13934TIP3    H163293   5.996   4.513   3.092 -0.1148  0.4043 -2.0127
13934TIP3    H263294   5.863   4.513   3.164  0.5516 -2.1809 -0.6930
13935TIP3   OH263295   2.499   1.030  11.887 -0.2362  0.4664  0.0405
13935TIP3    H163296   2.536   0.944  11.903  0.6460  0.5240 -1.4609
13935TIP3    H263297   2.499   1.038  11.791 -0.8188  1.9081  0.1354
13936TIP3   OH263298   4.152   1.090  11.414  0.1183 -0.9035  0.2383
13936TIP3    H163299   4.089   1.038  11.463  0.3272 -0.5251  0.9144
13936TIP3    H263300   4.175   1.035  11.339 -1.6492 -0.7007 -0.4937
13937TIP3   OH263301   1.990   6.164   1.056  0.6001  0.1652  0.5627
13937TIP3    H163302   1.921   6.220   1.020  0.4862 -0.1703  0.2547
13937TIP3    H263303   2.063   6.224   1.074  0.4141  0.4395  0.4052
13938TIP3   OH263304   1.934   3.663  14.349 -0.7446 -0.3798 -0.7521
13938TIP3    H163305   1.943   3.623  14.435 -0.4063  0.1750 -0.5290
13938TIP3    H263306   2.020   3.652  14.308 -0.9427 -0.7642 -1.0754
13939TIP3   OH263307   4.349   4.861  13.029  0.5853  0.1709 -0.1337
13939TIP3    H163308   4.444   4.871  13.040  0.5428  0.6397 -0.1522
13939TIP3    H263309   4.316   4.851  13.118  0.6487  0.0512 -0.1237
13940TIP3   OH263310   5.324   4.072   5.440 -0.6260 -0.2510  0.7498
13940TIP3    H163311   5.245   4.070   5.385  0.0199 -0.3631 -0.2112
13940TIP3    H263312   5.336   4.164   5.460  0.2306  0.0619 -0.9956
13941TIP3   OH263313   0.489   3.502  16.577 -0.8095  0.0511  0.0837
13941TIP3    H163314   0.548   3.575  16.595 -0.2636 -0.4827  0.4890
13941TIP3    H263315   0.461   3.472  16.664 -1.7854  0.3792 -0.1049
13942TIP3   OH263316   2.632   3.925  16.108  0.0815 -0.4999  0.1064
13942TIP3    H163317   2.608   3.841  16.069  1.6238 -1.5239  1.2313
13942TIP3    H263318   2.551   3.955  16.150  0.0622 -2.7020  1.8654
13943TIP3   OH263319   2.008   1.755   4.433  0.3561 -0.2264  0.4905
13943TIP3    H163320   1.956   1.694   4.486  0.8337 -1.8359 -0.8023
13943TIP3    H263321   2.024   1.708   4.351 -0.6063  2.2630 -1.2686
13944TIP3   OH263322   4.975   5.675  11.856 -0.6494 -0.8835  0.2840
13944TIP3    H163323   4.953   5.660  11.948  0.3953  1.9435  1.1095
13944TIP3    H263324   5.071   5.674  11.854 -0.6523 -0.5393 -0.6769
13945TIP3   OH263325   4.691   4.141  11.296  0.2859  0.2355 -0.9509
13945TIP3    H163326   4.677   4.226  11.254 -1.2486  1.6594  2.0649
13945TIP3    H263327   4.766   4.154  11.354 -1.4225  0.4641  1.3799
13946TIP3   OH263328   2.645   4.329  12.193 -0.2256 -0.0438  0.4632
13946TIP3    H163329   2.621   4.286  12.111 -0.7050  0.9086  0.0911
13946TIP3    H263330   2.655   4.421  12.170  1.4786 -0.0370  1.1144
13947TIP3   OH263331   0.666   6.228  11.211 -0.4039 -0.2236 -0.2499
13947TIP3    H163332   0.683   6.227  11.305 -1.5648 -0.2288 -0.0211
13947TIP3    H263333   0.676   6.137  11.184  1.5199  0.0122 -0.4651
13948TIP3   OH263334   2.950   5.760  16.040 -0.0723 -0.1948  0.6023
13948TIP3    H163335   2.961   5.743  15.946 -1.7858  0.9680  0.1313
13948TIP3    H263336   2.874   5.706  16.065 -0.6109  0.6884  0.9231
13949TIP3   OH263337   0.949   0.013  16.191 -0.0090  0.0989  0.4735
13949TIP3    H163338   1.033  -0.000  16.235  0.1887  0.9337  0.3600
13949TIP3    H263339   0.968   0.072  16.119 -0.8085  0.8235  0.8363
13950TIP3   OH263340   3.676   5.783   1.711 -0.4273  0.2711  0.0049
13950TIP3    H163341   3.627   5.814   1.635  0.0807 -0.8852 -0.8224
13950TIP3    H263342   3.663   5.688   1.711  1.1334  0.0409  0.2463
13951TIP3   OH263343   6.866   6.602   4.056 -0.3956  0.1928  0.3506
13951TIP3    H163344   6.924   6.660   4.006  2.9682 -2.4146  0.8817
13951TIP3    H263345   6.840   6.535   3.994 -2.5606  1.0192  0.2780
13952TIP3   OH263346   3.105   2.214  13.104 -0.1909 -0.1173 -0.1079
13952TIP3    H163347   3.140   2.125  13.111  0.7463  0.0520 -1.9857
13952TIP3    H263348   3.183   2.269  13.101 -0.7107  0.6034 -0.6599
13953TIP3   OH263349   0.614   4.934   3.648  0.0025  0.0088 -0.2392
13953TIP3    H163350   0.621   5.028   3.630 -0.9739 -0.0938 -1.2521
13953TIP3    H263351   0.651   4.891   3.571  0.7938 -0.4574  0.3811
13954TIP3   OH263352   2.601   4.059  14.027 -0.3758 -0.2237 -0.3178
13954TIP3    H163353   2.571   3.971  14.005  1.1107 -1.7743  3.0535
13954TIP3    H263354   2.685   4.067  13.982  0.1556 -1.1716  0.4591
13955TIP3   OH263355   0.394   1.798  13.307 -0.1055  0.1066  0.3998
13955TIP3    H163356   0.339   1.855  13.254  2.1049 -0.2436 -2.5587
13955TIP3    H263357   0.349   1.714  13.306 -0.1863  0.1415 -0.8916
13956TIP3   OH263358   5.510   4.416  12.313  0.2280 -0.1105 -0.3445
13956TIP3    H163359   5.561   4.338  12.333  1.5163  0.4264 -1.4356
13956TIP3    H263360   5.426   4.401  12.356  0.8336 -1.6050  0.3725
13957TIP3   OH263361   6.628   0.917  15.500  0.0761  0.1374  0.2848
13957TIP3    H163362   6.616   1.012  15.503 -0.2471  0.1653 -1.1774
13957TIP3    H263363   6.675   0.896  15.580  1.0836  1.6750  0.1331
13958TIP3   OH263364   1.289   5.691   2.398  0.1819 -0.7546  0.3514
13958TIP3    H163365   1.269   5.704   2.305  2.0129  1.2382  0.1663
13958TIP3    H263366   1.373   5.645   2.399  1.3037  1.1975  0.9342
13959TIP3   OH263367   2.094   0.358  14.835  0.1490 -0.2389  0.1365
13959TIP3    H163368   2.090   0.263  14.848 -2.1258 -0.1338  0.5453
13959TIP3    H263369   2.028   0.376  14.769  1.4413  0.9617 -0.8934
13960TIP3   OH263370   6.062   0.369  11.180 -0.4371  0.3893 -0.0845
13960TIP3    H163371   6.129   0.423  11.139  2.0713 -1.8326  0.8022
13960TIP3    H263372   6.015   0.329  11.107  1.4181 -0.5358 -0.8430
13961TIP3   OH263373   3.392   2.290  11.682 -0.3236 -0.0419 -0.1344
13961TIP3    H163374   3.469   2.347  11.684 -0.3379 -0.0383  1.4564
13961TIP3    H263375   3.336   2.324  11.752 -1.0571 -1.0272 -0.2242
13962TIP3   OH263376   2.331   0.054  16.797 -0.0757  0.4378 -0.1986
13962TIP3    H163377   2.369   0.096  16.874  1.0445  1.7687 -1.4143
13962TIP3    H263378   2.263   0.115  16.768  0.6319  0.7974 -1.1850
13963TIP3   OH263379   0.810   2.788   5.281  0.1437  0.1744 -0.1801
13963TIP3    H163380   0.836   2.723   5.216  1.8185  0.4959  0.1288
13963TIP3    H263381   0.788   2.866   5.230 -0.4539 -0.1737 -0.4635
13964TIP3   OH263382   6.183   3.569   2.557 -0.0488  0.5085  0.4373
13964TIP3    H163383   6.177   3.497   2.494 -1.8564  0.5832  0.4868
13964TIP3    H263384   6.121   3.546   2.625  0.8190  1.1627  1.4725
13965TIP3   OH263385   6.007   4.870   1.654  0.1372  0.1041 -0.4596
13965TIP3    H163386   6.010   4.811   1.729 -0.4009  1.2311  0.4768
13965TIP3    H263387   5.936   4.931   1.674 -0.2621  0.2050 -2.0664
13966TIP3   OH263388   4.723   6.014   4.272  0.2109 -0.9462 -0.1419
13966TIP3    H163389   4.709   6.008   4.178  1.4520  0.6651 -0.4657
13966TIP3    H263390   4.806   6.060   4.282  0.0015 -0.8718  1.7458
13967TIP3   OH263391   0.323   1.953  11.383 -0.2281 -0.3659 -0.1702
13967TIP3    H163392   0.337   1.917  11.470  0.2576 -2.1160 -0.9132
13967TIP3    H263393   0.374   2.034  11.382  0.1676 -0.5806  0.9968
13968TIP3   OH263394   0.380   6.281  11.509 -0.0548  0.7491 -0.3325
13968TIP3    H163395   0.315   6.295  11.578 -0.7219 -0.5471 -0.6693
13968TIP3    H263396   0.366   6.353  11.448  0.8673  2.1947  1.0792
13969TIP3   OH263397   2.592   5.893   2.917 -0.1840  0.7341  0.2668
13969TIP3    H163398   2.625   5.848   2.839  1.8151  1.5790  0.5533
13969TIP3    H263399   2.498   5.902   2.902 -0.6091 -2.9648 -0.0574
13970TIP3   OH263400   2.423   1.343   3.097  0.1125 -0.6718 -0.5182
13970TIP3    H163401   2.368   1.308   3.167 -2.3629  2.5481 -0.6269
13970TIP3    H263402   2.373   1.329   3.017  0.1913  0.7438 -0.8502
13971TIP3   OH263403   5.088   0.663  15.978 -0.0758 -0.1414 -0.2447
13971TIP3    H163404   5.088   0.681  16.072 -0.5705 -0.0798 -0.2530
13971TIP3    H263405   5.109   0.747  15.938  0.1639 -0.1738 -0.1911
13972TIP3   OH263406   2.710   2.428   0.142 -0.1646 -0.4707  0.1007
13972TIP3    H163407   2.784   2.443   0.201 -1.0860  1.3774  0.8450
13972TIP3    H263408   2.732   2.477   0.063 -1.0952  1.1948  0.8045
13973TIP3   OH263409   6.245   5.381  16.439 -0.2469  0.1270  0.0181
13973TIP3    H163410   6.202   5.435  16.505 -0.8591 -0.4119  0.0659
13973TIP3    H263411   6.192   5.391  16.361  0.7355  1.1291 -0.5493
13974TIP3   OH263412   6.046   3.868   2.197 -0.5030  0.3669 -0.2766
13974TIP3    H163413   6.128   3.912   2.175 -0.6336 -0.2386 -2.1090
13974TIP3    H263414   5.985   3.939   2.218 -0.0673  0.9348 -0.9002
13975TIP3   OH263415   5.911   5.185   1.800 -0.1559 -0.3838  0.1827
13975TIP3    H163416   5.834   5.233   1.769 -0.0409  0.8522  1.6896
13975TIP3    H263417   5.974   5.253   1.825  0.6156 -1.3399  0.9467
13976TIP3   OH263418   2.831   1.526  13.188  0.5859 -0.0379 -0.1190
13976TIP3    H163419   2.864   1.585  13.120  0.1184 -0.3604 -0.6358
13976TIP3    H263420   2.886   1.545  13.265 -0.9863  2.6898  0.4656
13977TIP3   OH263421   6.645   1.100   2.950  0.2732  0.5315 -0.4534
13977TIP3    H163422   6.611   1.090   3.039  0.0205 -1.1402 -0.7244
13977TIP3    H263423   6.567   1.110   2.895  0.3986  0.8072 -0.5840
13978TIP3   OH263424   0.892   4.889  15.354  0.0500 -0.0017 -0.4915
13978TIP3    H163425   0.861   4.801  15.332  1.0210 -0.0687 -1.7031
13978TIP3    H263426   0.863   4.944  15.281 -1.2526  0.8792  0.6377
13979TIP3   OH263427   4.538   4.285   2.575  0.3391 -0.3920 -0.1899
13979TIP3    H163428   4.568   4.260   2.662  0.5377 -1.4557 -0.5501
13979TIP3    H263429   4.504   4.204   2.537 -0.7634  0.2821 -0.6943
13980TIP3   OH263430   0.222   4.044   3.682  0.2418  0.4536 -0.3130
13980TIP3    H163431   0.168   4.015   3.755  0.5160 -2.3561 -1.1176
13980TIP3    H263432   0.183   4.003   3.605  0.8645  2.0867 -1.5601
13981TIP3   OH263433   6.739   5.156  16.697 -0.2746 -0.3974 -0.1941
13981TIP3    H163434   6.808   5.207  16.740 -0.9799  0.5333 -0.1363
13981TIP3    H263435   6.675   5.221  16.669 -1.6153 -1.3261  0.6231
13982TIP3   OH263436   0.811   6.682  11.738  0.1129  0.6275  0.2837
13982TIP3    H163437   0.716   6.668  11.730  0.0789  0.9723  0.0891
13982TIP3    H263438   0.823   6.776  11.722  0.6467  0.3495 -1.1058
13983TIP3   OH263439   3.825   4.973  10.669  0.3189  0.0557 -0.2529
13983TIP3    H163440   3.875   4.956  10.749 -1.0491 -3.0918  0.0725
13983TIP3    H263441   3.890   5.002  10.606  2.0458 -0.8386  1.0283
13984TIP3   OH263442   5.241   5.511   2.534  0.0663  0.2281  0.2654
13984TIP3    H163443   5.205   5.518   2.446  2.3012  0.5518 -0.6866
13984TIP3    H263444   5.258   5.602   2.560 -0.2105  0.1073  0.8889
13985TIP3   OH263445   4.053   6.551  13.771 -0.0738  0.0003 -0.2687
13985TIP3    H163446   3.959   6.542  13.788  0.1668  1.2348  2.2087
13985TIP3    H263447   4.082   6.462  13.752 -1.7303 -0.3988 -1.1453
13986TIP3   OH263448   0.793   3.972  12.629 -0.3678 -0.0599 -0.0695
13986TIP3    H163449   0.866   4.012  12.675  0.3188 -1.7122  0.3407
13986TIP3    H263450   0.768   3.897  12.683 -2.0322  0.1640 -0.4680
13987TIP3   OH263451   1.691   2.249   3.853 -0.6532  0.6125  0.1533
13987TIP3    H163452   1.716   2.192   3.781  0.5487  1.8555 -0.4791
13987TIP3    H263453   1.595   2.245   3.856 -0.5906 -2.0245  0.6933
13988TIP3   OH263454   4.388   0.294   1.007 -0.5041  0.7448 -0.4464
13988TIP3    H163455   4.361   0.381   1.037  0.8905  1.1964 -0.4310
13988TIP3    H263456   4.327   0.234   1.049 -2.7271  1.8046 -1.9598
13989TIP3   OH263457   1.485   0.306  12.359  0.5093 -0.0101 -1.0123
13989TIP3    H163458   1.495   0.392  12.317  0.4320  1.0696  1.0066
13989TIP3    H263459   1.396   0.279  12.336  0.7524  0.1404 -2.1895
13990TIP3   OH263460   4.150   5.107  14.821  0.0824  0.4977  0.0889
13990TIP3    H163461   4.125   5.015  14.817 -0.5977  0.7160 -1.8748
13990TIP3    H263462   4.212   5.118  14.749  0.5015  1.4819  0.5840
13991TIP3   OH263463   2.257   5.162  12.462  0.0723 -0.0504 -0.1688
13991TIP3    H163464   2.182   5.107  12.438 -1.1654  1.4897 -0.0108
13991TIP3    H263465   2.293   5.190  12.378  0.6617 -0.9886 -0.2501
13992TIP3   OH263466   0.809   0.159  12.724  0.1721 -0.1019 -0.1107
13992TIP3    H163467   0.728   0.188  12.683  1.0140  0.2185 -1.6387
13992TIP3    H263468   0.784   0.085  12.778 -1.1921  0.2261 -0.2689
13993TIP3   OH263469   1.599   4.703  13.793  0.3057 -0.2296 -0.0038
13993TIP3    H163470   1.515   4.702  13.746 -0.8426 -0.6182  1.9075
13993TIP3    H263471   1.614   4.612  13.817  1.0303 -0.0891  0.0909
13994TIP3   OH263472   6.288   0.012   6.000 -0.2620 -0.9332 -0.6519
13994TIP3    H163473   6.379  -0.007   5.976 -0.3670  0.4336 -2.3815
13994TIP3    H263474   6.248  -0.074   6.015  1.0783 -1.5979 -0.7321
13995TIP3   OH263475   5.034   3.099   3.591 -0.2527 -0.6167  0.3017
13995TIP3    H163476   5.059   3.007   3.604  1.0826 -0.3395 -0.2247
13995TIP3    H263477   4.972   3.116   3.662 -1.2333 -2.1707 -0.1235
13996TIP3   OH263478   3.686   0.013  14.270  0.0386  0.4397 -0.4913
13996TIP3    H163479   3.717  -0.045  14.201  0.9525  0.9701 -0.5511
13996TIP3    H263480   3.766   0.051  14.307 -0.5393  1.9211 -0.6869
13997TIP3   OH263481   2.353   1.714  11.386  0.4746  0.1843  0.5012
13997TIP3    H163482   2.350   1.629  11.343 -1.8161  1.2982 -1.8392
13997TIP3    H263483   2.298   1.704  11.464 -0.7587 -0.2120 -0.3965
13998TIP3   OH263484   5.711   4.742   1.741  0.4045  0.3512 -0.2856
13998TIP3    H163485   5.621   4.763   1.768 -0.4858 -1.5619 -1.5958
13998TIP3    H263486   5.750   4.702   1.819  0.2813  1.5493  0.4170
13999TIP3   OH263487   0.261   6.811  14.060  0.0303  0.5143  0.3305
13999TIP3    H163488   0.354   6.790  14.073  0.1971  0.4803 -0.8600
13999TIP3    H263489   0.248   6.893  14.108  0.1472 -0.5280  2.2826
14000TIP3   OH263490   4.625   5.854   4.485 -0.0848 -0.3544  0.0752
14000TIP3    H163491   4.659   5.877   4.398  0.6654 -1.6016  0.0091
14000TIP3    H263492   4.700   5.866   4.543 -0.4478 -0.0001  0.4686
14001TIP3   OH263493   6.234   3.211  11.905  0.0729  0.1554  0.5883
14001TIP3    H163494   6.213   3.299  11.935  0.1266 -0.2696  1.9310
14001TIP3    H263495   6.285   3.172  11.976  3.2756  0.2672 -1.4560
14002TIP3   OH263496   3.924   6.516  10.815 -0.4363  1.1137 -0.3273
14002TIP3    H163497   3.831   6.494  10.804  0.1195 -0.7972 -1.9044
14002TIP3    H263498   3.932   6.604  10.780 -1.1126 -0.0508 -3.8534
14003TIP3   OH263499   4.150   5.050   2.585  0.7758 -0.3673 -0.1626
14003TIP3    H163500   4.180   5.137   2.558 -1.5018  0.5788  0.1328
14003TIP3    H263501   4.146   5.055   2.681  2.0191 -1.3189 -0.0410
14004TIP3   OH263502   2.682   2.174   6.368  0.3990 -0.1735 -0.1721
14004TIP3    H163503   2.743   2.100   6.366  0.5735 -0.1086  1.5919
14004TIP3    H263504   2.599   2.135   6.396  0.2716  0.1554 -0.0946
14005TIP3   OH263505   5.611   4.836   5.353  0.1006  0.0783 -0.3133
14005TIP3    H163506   5.546   4.900   5.324 -0.5390 -0.5160 -0.2221
14005TIP3    H263507   5.675   4.832   5.281 -0.3371  0.1629 -0.7150
14006TIP3   OH263508   6.154   1.999  13.305 -0.0941  0.3329  0.1546
14006TIP3    H163509   6.166   2.091  13.278 -2.1552  0.7641  0.5604
14006TIP3    H263510   6.062   1.980  13.285 -0.3300 -0.9258  2.2107
14007TIP3   OH263511   0.937   1.612   4.029  0.2571  0.0227  0.3613
14007TIP3    H163512   0.858   1.617   3.975 -1.2991 -1.0741  2.3916
14007TIP3    H263513   0.998   1.673   3.987 -1.1570 -0.0904 -2.0567
14008TIP3   OH263514   4.494   5.001  14.880  0.3488 -0.0408  0.3725
14008TIP3    H163515   4.414   5.036  14.840  1.4151  2.2217  0.0553
14008TIP3    H263516   4.562   5.064  14.855  1.8978 -0.9371  2.1152
14009TIP3   OH263517   2.890   0.481  14.240 -0.2824 -0.1142 -0.8700
14009TIP3    H163518   2.870   0.485  14.146  1.0527 -1.0321 -1.2161
14009TIP3    H263519   2.828   0.542  14.280  0.6391  2.0827 -2.6047
14010TIP3   OH263520   1.808   6.476  15.402 -0.2441  0.4159 -0.3150
14010TIP3    H163521   1.804   6.503  15.494  2.5746 -2.9386  1.0376
14010TIP3    H263522   1.719   6.449  15.381 -0.8585  0.7459  1.6316
14011TIP3   OH263523   1.461   4.960  11.818  0.7670 -0.1362  0.0774
14011TIP3    H163524   1.479   4.950  11.911  3.0201 -1.2028 -0.4319
14011TIP3    H263525   1.537   5.006  11.783 -0.4142  0.9945 -1.1312
14012TIP3   OH263526   2.724   2.111  14.050  0.3765 -0.1905 -0.2472
14012TIP3    H163527   2.755   2.081  13.964  1.7498 -1.0293  0.4938
14012TIP3    H263528   2.630   2.124  14.038  0.8073  1.6950 -2.4125
14013TIP3   OH263529   3.814   4.558   3.611  0.2305 -0.3197 -0.0429
14013TIP3    H163530   3.853   4.630   3.561 -0.6438  2.1844  2.6441
14013TIP3    H263531   3.747   4.600   3.666 -1.4343 -3.4426  0.5398
14014TIP3   OH263532   1.302   0.002  12.592 -0.1117  0.6285  0.4525
14014TIP3    H163533   1.339   0.017  12.505  0.8936 -1.3567  0.4674
14014TIP3    H263534   1.243   0.076  12.606 -0.7539  0.7322 -2.1544
14015TIP3   OH263535   4.023   4.156   2.265  0.5318  0.2597  0.1447
14015TIP3    H163536   4.018   4.213   2.342  0.0056  0.2981  0.0831
14015TIP3    H263537   3.944   4.176   2.215 -0.8625 -2.1271  1.2379
14016TIP3   OH263538   6.640   0.711   2.474 -0.4488  0.3868 -0.1518
14016TIP3    H163539   6.560   0.702   2.422 -1.5849  0.6570  1.4616
14016TIP3    H263540   6.658   0.623   2.506  0.6640  0.0806 -1.5199
14017TIP3   OH263541   6.789   5.635   1.357  0.2249  0.2644 -0.0792
14017TIP3    H163542   6.741   5.690   1.295 -1.5750 -0.1024  0.9218
14017TIP3    H263543   6.747   5.550   1.352  0.7118 -0.0570  0.9076
14018TIP3   OH263544   0.302   0.373  10.800  0.0575  0.2336 -0.1093
14018TIP3    H163545   0.267   0.381  10.712  2.2212  1.3987 -0.9402
14018TIP3    H263546   0.396   0.360  10.788  0.4621  0.7487  2.0144
14019TIP3   OH263547   4.641   6.483   3.060  1.1108 -0.5711  0.0923
14019TIP3    H163548   4.681   6.562   3.026  2.2522 -1.2678 -0.2459
14019TIP3    H263549   4.548   6.492   3.039  1.3359  0.3499 -0.5592
14020TIP3   OH263550   4.665   0.854   4.027 -0.1881 -0.2145 -0.0384
14020TIP3    H163551   4.575   0.829   4.007 -0.5667  0.9668  0.0911
14020TIP3    H263552   4.719   0.798   3.971 -1.0248 -0.5743 -0.5033
14021TIP3   OH263553   5.953   3.389  12.757 -0.0099 -0.1210 -0.5785
14021TIP3    H163554   5.980   3.385  12.665 -1.2757 -0.9581 -0.9436
14021TIP3    H263555   5.976   3.304  12.793  0.1302  0.0663 -0.2267
14022TIP3   OH263556   1.150   6.191   1.787  0.3958 -0.1504 -0.3203
14022TIP3    H163557   1.099   6.271   1.783 -0.9294 -0.9771 -0.6736
14022TIP3    H263558   1.174   6.173   1.697  0.7230 -0.1246 -0.2378
14023TIP3   OH263559   2.749   0.091   1.434  0.4228 -0.6359  0.0629
14023TIP3    H163560   2.776   0.163   1.490 -3.7435  0.4317  1.0735
14023TIP3    H263561   2.657   0.076   1.456 -0.8103 -1.9041 -4.6490
14024TIP3   OH263562   3.877   2.499  11.575  0.0753  0.2300  0.3522
14024TIP3    H163563   3.919   2.416  11.551 -0.5889  0.0004 -0.0297
14024TIP3    H263564   3.832   2.527  11.496 -2.8109 -0.9373  1.4598
14025TIP3   OH263565   2.438   4.977  11.117  0.2582 -0.1657  0.3065
14025TIP3    H163566   2.524   5.009  11.090  0.4379 -0.4398  0.5414
14025TIP3    H263567   2.416   5.027  11.195  0.0904  0.0816  0.1012
14026TIP3   OH263568   2.356   4.229  15.616  0.1887 -0.0678  0.0571
14026TIP3    H163569   2.419   4.300  15.611  1.4341 -1.0775  0.8669
14026TIP3    H263570   2.337   4.219  15.710  1.0837 -1.6570  0.1103
14027TIP3   OH263571   2.349   6.117   1.313 -0.5804  0.3535 -0.0370
14027TIP3    H163572   2.422   6.064   1.283 -1.0613 -0.0651 -0.4911
14027TIP3    H263573   2.354   6.197   1.260 -0.2300  0.4928  0.2034
14028TIP3   OH263574   1.128   3.071   4.861 -0.1694 -0.0594 -0.3921
14028TIP3    H163575   1.211   3.116   4.877  0.0643  0.2188 -2.1922
14028TIP3    H263576   1.136   3.036   4.773 -1.9884  0.0340 -0.6306
14029TIP3   OH263577   5.774   5.205   3.086 -0.0392 -0.1724 -0.0123
14029TIP3    H163578   5.835   5.202   3.012 -0.5203 -2.4249 -0.3952
14029TIP3    H263579   5.831   5.202   3.163  0.3919 -0.2162 -0.3254
14030TIP3   OH263580   3.650   1.621   0.284 -0.0789 -0.2829  0.0972
14030TIP3    H163581   3.637   1.534   0.324 -0.0174  0.0141  0.7693
14030TIP3    H263582   3.741   1.642   0.302  0.2451 -0.5684 -1.0712
14031TIP3   OH263583   1.379   6.858   0.361 -0.8824  0.0947 -0.1792
14031TIP3    H163584   1.409   6.783   0.308 -1.2875  0.8313 -1.5118
14031TIP3    H263585   1.460   6.906   0.381 -0.9425  1.9630 -3.5871
14032TIP3   OH263586   2.612   0.918   4.871 -0.4014  0.6288 -0.1231
14032TIP3    H163587   2.520   0.944   4.879 -0.2727  1.0736 -0.0287
14032TIP3    H263588   2.611   0.822   4.872 -0.8593  0.6336 -0.0855
14033TIP3   OH263589   5.053   5.969  16.252 -0.2493 -0.2843 -0.8629
14033TIP3    H163590   5.059   6.034  16.181  3.2448 -0.6413 -1.0653
14033TIP3    H263591   5.063   5.885  16.208  0.2315 -0.6103 -0.1425
14034TIP3   OH263592   5.561   3.035   3.502  0.0116  0.5918 -0.2510
14034TIP3    H163593   5.577   3.045   3.596  3.9370  2.0998 -0.8755
14034TIP3    H263594   5.643   3.060   3.461 -0.8100 -2.0362 -4.0790
14035TIP3   OH263595   2.961   0.413   1.856  0.0225 -0.3230 -0.6621
14035TIP3    H163596   2.878   0.369   1.876 -1.4990  2.3183 -0.5642
14035TIP3    H263597   2.943   0.461   1.775  0.7003  1.9343  0.4363
14036TIP3   OH263598   1.429   2.743  14.573 -0.2927  0.2008  0.0441
14036TIP3    H163599   1.335   2.726  14.569 -0.4195  0.8086  0.4720
14036TIP3    H263600   1.469   2.656  14.568 -0.8114  0.0267 -1.9069
14037TIP3   OH263601   1.168   6.388  11.230 -0.5065  0.2056 -0.2033
14037TIP3    H163602   1.089   6.338  11.250  0.9279 -1.2598  2.3050
14037TIP3    H263603   1.151   6.475  11.266 -0.8981 -0.1768  0.5622
14038TIP3   OH263604   4.844   5.235  11.680 -0.0339 -0.3120  0.1034
14038TIP3    H163605   4.888   5.318  11.664 -1.6760  0.7150  0.6300
14038TIP3    H263606   4.758   5.245  11.639 -1.0741 -0.8908  1.9976
14039TIP3   OH263607   2.515   1.213  16.931 -0.3041  0.2904 -0.4493
14039TIP3    H163608   2.493   1.124  16.906  1.5481 -0.1573 -0.5886
14039TIP3    H263609   2.454   1.268  16.881 -1.0395 -0.8415 -0.8344
14040TIP3   OH263610   0.392   5.210  12.866  0.6382  0.7382  0.0830
14040TIP3    H163611   0.399   5.134  12.924 -1.3004  0.5996  0.2147
14040TIP3    H263612   0.309   5.250  12.889  0.3918  1.3990 -1.7509
14041TIP3   OH263613   1.037   3.980   0.184  0.1368 -0.4316 -0.2117
14041TIP3    H163614   1.089   3.983   0.103  0.5331 -0.6349  0.0282
14041TIP3    H263615   0.995   3.894   0.181  0.2588 -0.4938 -0.1361
14042TIP3   OH263616   3.320   0.057  11.017 -0.0948 -0.6606 -0.3133
14042TIP3    H163617   3.233   0.068  10.978  0.4288  0.3895 -1.2273
14042TIP3    H263618   3.376   0.030  10.944  1.1435  2.4099 -0.6334
14043TIP3   OH263619   0.220   5.381   5.543 -0.0947 -0.0712  0.0789
14043TIP3    H163620   0.166   5.352   5.469  0.0036  0.3132 -0.1444
14043TIP3    H263621   0.268   5.302   5.569 -2.1906 -0.9393  1.5461
14044TIP3   OH263622   6.047   4.341   2.999 -0.1106 -0.0736 -0.4349
14044TIP3    H163623   6.081   4.292   3.073  0.4016 -0.2975 -0.8074
14044TIP3    H263624   6.044   4.278   2.927  0.0586  0.3102 -0.7868
14045TIP3   OH263625   3.657   4.307  16.146 -0.2315  0.2173 -0.6848
14045TIP3    H163626   3.577   4.262  16.175  0.5102 -0.7585 -0.1086
14045TIP3    H263627   3.726   4.270  16.200  0.3455  2.5118  0.2701
14046TIP3   OH263628   4.677   0.872  11.294 -0.3376 -0.4849  1.0888
14046TIP3    H163629   4.698   0.779  11.279 -0.3827 -0.8951  3.3116
14046TIP3    H263630   4.619   0.895  11.222  1.7346 -1.4164 -1.0256
14047TIP3   OH263631   3.846   0.792   3.776 -0.6297  0.2914  0.2164
14047TIP3    H163632   3.922   0.757   3.728 -1.5040 -0.9018 -0.3654
14047TIP3    H263633   3.856   0.887   3.771  1.7040  0.1966  1.6245
14048TIP3   OH263634   2.955   3.244  12.420 -0.1854  0.3725  0.0404
14048TIP3    H163635   2.958   3.150  12.404 -0.4589  0.1863  1.0329
14048TIP3    H263636   2.863   3.264  12.434 -0.5513  1.3026 -2.8869
14049TIP3   OH263637   0.811   2.522   2.796  0.5394 -0.7473  0.1204
14049TIP3    H163638   0.787   2.614   2.796 -1.0842 -1.0913 -2.6139
14049TIP3    H263639   0.906   2.522   2.787  0.7066  0.6082  1.4844
14050TIP3   OH263640   2.537   0.596  13.301  0.2342 -0.1429  0.1346
14050TIP3    H163641   2.568   0.565  13.216 -0.6082  2.1433 -1.1106
14050TIP3    H263642   2.473   0.530  13.328 -0.7923 -0.0638 -1.8986
14051TIP3   OH263643   5.254   5.275  14.316 -0.0726 -0.1678 -0.1873
14051TIP3    H163644   5.229   5.186  14.341 -0.3046 -0.2840 -0.8097
14051TIP3    H263645   5.177   5.309  14.271  0.5725 -0.2138 -1.3608
14052TIP3   OH263646   0.845   3.434  12.691 -0.2344 -0.3947  0.9513
14052TIP3    H163647   0.932   3.397  12.675 -0.4064 -0.0003 -1.2168
14052TIP3    H263648   0.785   3.362  12.674 -0.3761 -1.2464  4.3295
14053TIP3   OH263649   5.800   2.536   3.643 -0.0044 -0.5180 -0.1242
14053TIP3    H163650   5.825   2.537   3.550  0.5625  0.1622  0.0253
14053TIP3    H263651   5.877   2.502   3.688 -1.0207 -2.9867 -0.0699
14054TIP3   OH263652   3.540   4.226   0.485 -0.1595 -0.5815  0.0496
14054TIP3    H163653   3.446   4.227   0.504 -0.3061 -1.3936 -0.5788
14054TIP3    H263654   3.578   4.171   0.553 -0.2878 -1.0900 -0.2805
14055TIP3   OH263655   5.572   5.549  10.618  0.0229  0.1622  0.3867
14055TIP3    H163656   5.568   5.562  10.523  0.7620 -0.7727  0.2051
14055TIP3    H263657   5.617   5.465  10.628 -1.5377 -0.5806  1.5136
14056TIP3   OH263658   2.448   5.224   0.106 -0.2817 -0.5602 -0.3630
14056TIP3    H163659   2.420   5.271   0.185 -0.5834 -0.5535 -0.4716
14056TIP3    H263660   2.391   5.259   0.037  2.0114  1.7378 -1.2441
14057TIP3   OH263661   3.916   2.583   0.393 -0.2041 -0.4612 -0.4884
14057TIP3    H163662   3.950   2.593   0.304 -0.1798 -1.7763 -0.6433
14057TIP3    H263663   3.826   2.550   0.381  0.6279 -3.1225 -0.0579
14058TIP3   OH263664   5.620   4.600  16.834  0.0382  0.6591  0.2792
14058TIP3    H163665   5.575   4.637  16.910 -0.4678 -0.8786  0.7762
14058TIP3    H263666   5.567   4.626  16.759 -0.8833  0.1006  0.7195
14059TIP3   OH263667   3.078   6.575   5.445 -0.6869 -0.2113  0.7095
14059TIP3    H163668   3.054   6.659   5.484 -2.2161 -0.3606  0.1922
14059TIP3    H263669   3.050   6.510   5.509 -0.7608 -0.3644  0.5215
14060TIP3   OH263670   3.481   2.207  16.029  0.1789 -0.3860  0.4098
14060TIP3    H163671   3.418   2.237  15.963  1.0461  1.8471  0.5179
14060TIP3    H263672   3.464   2.263  16.105  1.0174 -1.0545  1.1001
14061TIP3   OH263673   6.120   4.526  10.532 -0.1391 -0.3170  0.6835
14061TIP3    H163674   6.073   4.443  10.539 -0.5912 -0.2357 -0.9143
14061TIP3    H263675   6.211   4.500  10.521 -0.4401 -0.6960 -1.2139
14062TIP3   OH263676   4.407   6.797  15.351  0.0281  0.1232 -0.0173
14062TIP3    H163677   4.375   6.716  15.392  1.0142 -0.5038 -0.4504
14062TIP3    H263678   4.502   6.794  15.364  0.2979  0.2505 -1.7332
14063TIP3   OH263679   5.873   1.987   3.695 -0.0749 -0.1090  0.0893
14063TIP3    H163680   5.796   1.953   3.649 -0.2403 -0.7172  0.8026
14063TIP3    H263681   5.885   2.075   3.659 -0.3281 -0.4888 -0.9535
14064TIP3   OH263682   4.491   3.527   5.758  0.1383 -0.1825  0.7789
14064TIP3    H163683   4.551   3.455   5.736  0.3796  0.0033  0.8179
14064TIP3    H263684   4.473   3.515   5.852  0.6355  0.1405  0.9185
14065TIP3   OH263685   4.088   6.711  11.870  0.8858 -0.1399  0.2613
14065TIP3    H163686   4.143   6.787  11.892  1.3592 -0.3213 -0.2485
14065TIP3    H263687   4.151   6.640  11.854  0.4524 -0.5995  0.5931
14066TIP3   OH263688   1.732   3.105   3.144  0.5743  0.5035 -0.6481
14066TIP3    H163689   1.783   3.151   3.211  0.4303 -0.8797  0.4654
14066TIP3    H263690   1.788   3.105   3.067  1.9671 -0.2751  0.3031
14067TIP3   OH263691   1.019   2.740   2.220  0.5698 -0.0940  0.0891
14067TIP3    H163692   1.108   2.707   2.209 -0.1469 -1.5845 -2.0766
14067TIP3    H263693   0.993   2.711   2.307  1.5857 -1.2837  0.0291
14068TIP3   OH263694   3.187   5.543  16.398 -0.4591 -0.1230  0.2464
14068TIP3    H163695   3.250   5.549  16.325 -0.1787  1.4369  0.5881
14068TIP3    H263696   3.181   5.632  16.432 -2.6370 -0.3052  0.4351
14069TIP3   OH263697   4.490   3.075  15.858 -0.1925  0.0417  0.3234
14069TIP3    H163698   4.575   3.030  15.863  0.0989  0.4746 -0.5140
14069TIP3    H263699   4.426   3.004  15.858  0.2744 -0.4355 -1.3605
14070TIP3   OH263700   4.287   5.817  16.371  0.1842 -0.0357 -0.1737
14070TIP3    H163701   4.219   5.878  16.341 -1.7376 -1.6036  0.7871
14070TIP3    H263702   4.303   5.760  16.296 -0.7513 -0.6624  0.0943
14071TIP3   OH263703   4.502   6.492   4.870  0.1567  0.0022 -0.1211
14071TIP3    H163704   4.535   6.582   4.878 -1.3353  0.6429 -0.7162
14071TIP3    H263705   4.510   6.456   4.958  1.1478  0.5817  0.0412
14072TIP3   OH263706   6.108   6.187  10.102 -0.1396 -0.0892 -0.4848
14072TIP3    H163707   6.017   6.217  10.110  0.5896  1.8921  1.8158
14072TIP3    H263708   6.105   6.095  10.129 -1.4566 -0.0397 -0.3951
14073TIP3   OH263709   4.946   3.122  12.472 -0.5649 -0.5553 -0.1688
14073TIP3    H163710   4.937   3.141  12.566  0.2475 -0.9032 -0.0079
14073TIP3    H263711   4.935   3.207  12.430  2.0410  0.1960  0.4753
14074TIP3   OH263712   3.808   1.975  14.509  0.7069  0.0218 -0.3630
14074TIP3    H163713   3.766   1.958  14.594 -0.2615 -0.2210 -0.8874
14074TIP3    H263714   3.743   1.949  14.444  1.8871 -0.9429 -1.2002
14075TIP3   OH263715   4.699   5.489   3.015  0.3643 -0.0953  0.2985
14075TIP3    H163716   4.768   5.455   3.073  0.9333  0.6580  0.0755
14075TIP3    H263717   4.746   5.541   2.950 -0.3673 -0.0639 -0.2170
14076TIP3   OH263718   0.211   5.831  12.275  0.1719  0.2781 -0.3273
14076TIP3    H163719   0.298   5.829  12.315  0.2633 -0.1804 -0.5416
14076TIP3    H263720   0.213   5.909  12.218  0.5097  0.1652 -0.4756
14077TIP3   OH263721   6.058   3.986   0.306  0.4484 -0.1645  0.0649
14077TIP3    H163722   6.049   3.999   0.212  0.2478  3.0212  0.3985
14077TIP3    H263723   5.968   3.984   0.339  0.5369  0.0772  0.3255
14078TIP3   OH263724   0.547   5.849  14.437 -0.2396 -0.0816 -0.1687
14078TIP3    H163725   0.563   5.876  14.528  0.5744 -0.0766 -0.3076
14078TIP3    H263726   0.470   5.900  14.410 -0.8239 -0.4795  0.6869
14079TIP3   OH263727   5.225   5.076   6.452  0.3942 -0.5110  1.1360
14079TIP3    H163728   5.230   5.131   6.531  0.3458 -0.5969  1.2000
14079TIP3    H263729   5.316   5.060   6.428  0.5457  2.5773 -0.9958
14080TIP3   OH263730   0.575   0.659   1.865 -0.0161 -0.0730 -0.0166
14080TIP3    H163731   0.618   0.625   1.787  1.3549 -1.2765  1.2169
14080TIP3    H263732   0.623   0.740   1.885  0.1083 -0.1467 -0.0137
14081TIP3   OH263733   6.700   6.603  11.287 -0.1463 -0.3714 -0.2758
14081TIP3    H163734   6.667   6.650  11.363  1.5449  0.1244  0.2068
14081TIP3    H263735   6.704   6.511  11.314  1.1788 -0.0959  0.5441
14082TIP3   OH263736   4.957   1.284  12.788 -0.4041  0.3855  0.3926
14082TIP3    H163737   5.002   1.200  12.795 -2.6246 -0.8511  0.8248
14082TIP3    H263738   4.949   1.315  12.879 -0.8227  0.3614  0.3674
14083TIP3   OH263739   1.125   3.927   3.141  0.0899  0.2008 -0.1133
14083TIP3    H163740   1.134   3.951   3.233  1.5250 -0.7106  0.0205
14083TIP3    H263741   1.097   3.836   3.143  0.7369 -0.0143 -0.5593
14084TIP3   OH263742   6.083   5.099  12.176 -0.5027  0.8444 -0.1556
14084TIP3    H163743   6.141   5.028  12.148 -1.1093 -0.2994  1.3295
14084TIP3    H263744   6.014   5.101  12.110 -0.0061  0.6498 -0.6869
14085TIP3   OH263745   6.152   5.493   1.064 -0.4572  0.2692  0.1790
14085TIP3    H163746   6.102   5.444   1.130 -1.0000  1.2308  0.5030
14085TIP3    H263747   6.094   5.564   1.038 -0.1056  0.1146 -1.0937
14086TIP3   OH263748   3.672   6.455   5.574 -0.5267 -0.1613 -0.0583
14086TIP3    H163749   3.709   6.407   5.648  2.3843  0.2963 -1.0533
14086TIP3    H263750   3.663   6.545   5.607  0.3256 -0.0550 -0.0812
14087TIP3   OH263751   1.076   0.191  12.672 -0.5452  0.2285  0.9620
14087TIP3    H163752   0.997   0.145  12.701 -1.0905  0.5049 -0.0340
14087TIP3    H263753   1.049   0.239  12.594  0.8467 -0.4477  0.0128
14088TIP3   OH263754   0.644   2.032  15.995  0.1913  0.8505  0.3474
14088TIP3    H163755   0.579   1.963  16.008  2.2078 -0.9103  1.7312
14088TIP3    H263756   0.593   2.112  15.987 -2.1098 -0.3322  2.0993
14089TIP3   OH263757   5.205   6.282  13.304  0.0438  0.0593  0.9219
14089TIP3    H163758   5.285   6.274  13.356  0.0190 -0.8603  0.8234
14089TIP3    H263759   5.185   6.193  13.275 -0.8519  0.3188  0.6983
14090TIP3   OH263760   6.104   5.465  15.322 -0.0393 -0.8698 -0.4559
14090TIP3    H163761   6.072   5.548  15.358  1.0022  0.4302 -2.3417
14090TIP3    H263762   6.200   5.473  15.327  0.0815 -1.6263 -1.3385
14091TIP3   OH263763   2.078   6.501   3.106  0.1162 -0.7622  0.1945
14091TIP3    H163764   2.067   6.594   3.126 -0.7222 -0.7400 -0.3272
14091TIP3    H263765   2.108   6.499   3.015  1.4778 -0.9631  0.6254
14092TIP3   OH263766   4.713   6.643  16.670 -0.6940 -0.2563 -0.6560
14092TIP3    H163767   4.627   6.669  16.702  0.2601  0.2170  1.7736
14092TIP3    H263768   4.750   6.723  16.632 -0.1520  0.4380  1.2074
14093TIP3   OH263769   5.492   0.287  15.805  0.1492 -0.0089 -0.3070
14093TIP3    H163770   5.492   0.226  15.732 -0.1943 -0.4821  0.0803
14093TIP3    H263771   5.413   0.339  15.792 -0.5051 -0.8207  0.3115
14094TIP3   OH263772   1.142   6.422   4.622 -0.5491 -0.1348  0.2175
14094TIP3    H163773   1.115   6.359   4.689 -0.0427 -1.4943 -0.8115
14094TIP3    H263774   1.136   6.374   4.540 -0.4445  1.2714 -0.6507
14095TIP3   OH263775   1.719   5.523   2.112 -0.7938 -0.0760  0.2332
14095TIP3    H163776   1.751   5.533   2.202 -0.2809 -1.7321  0.2683
14095TIP3    H263777   1.720   5.612   2.076  1.8718  0.2783  0.9244
14096TIP3   OH263778   1.967   2.933   6.423  0.0268 -0.0408  0.5102
14096TIP3    H163779   2.048   2.884   6.417  0.8799  1.4894 -1.8425
14096TIP3    H263780   1.988   3.009   6.477 -0.2698 -0.3611  1.0904
14097TIP3   OH263781   4.745   2.961   5.812 -0.6559  0.0773  0.2173
14097TIP3    H163782   4.727   2.993   5.900 -0.6031  1.4541 -0.2574
14097TIP3    H263783   4.663   2.919   5.785 -1.5131  1.7765  0.0296
14098TIP3   OH263784   1.746   2.010  13.031 -0.2547 -0.1017 -0.4594
14098TIP3    H163785   1.786   2.059  13.103  0.4228  0.5598 -1.2599
14098TIP3    H263786   1.796   1.928  13.027  0.1577  0.1492 -0.5930
14099TIP3   OH263787   4.774   5.210  12.020 -0.8874 -0.1785  0.2198
14099TIP3    H163788   4.717   5.261  12.078 -2.5101 -0.5304 -0.9836
14099TIP3    H263789   4.843   5.271  11.993 -2.3842  1.2104 -0.6351
14100TIP3   OH263790   4.215   6.611  15.113 -0.2547  0.2002  0.6017
14100TIP3    H163791   4.260   6.587  15.194 -0.5735 -0.3387  0.6237
14100TIP3    H263792   4.189   6.527  15.074  0.6397  0.4043 -0.4885
14101TIP3   OH263793   5.546   0.299   2.295 -0.0393  0.4344 -0.1655
14101TIP3    H163794   5.544   0.391   2.319  0.2149  0.8026 -1.4879
14101TIP3    H263795   5.455   0.275   2.278 -0.0070  0.6990 -0.7264
14102TIP3   OH263796   1.777   4.917   5.383 -0.1452 -0.2569 -0.0196
14102TIP3    H163797   1.808   4.893   5.470  0.5573  1.2424  0.1782
14102TIP3    H263798   1.682   4.925   5.393  0.1204  2.3046  1.3127
14103TIP3   OH263799   6.151   0.712  14.839  0.4930 -0.4534 -0.0478
14103TIP3    H163800   6.055   0.715  14.834  0.5117  2.9500 -0.3240
14103TIP3    H263801   6.169   0.679  14.927 -1.0007  1.1341  0.9170
14104TIP3   OH263802   0.318   5.153   3.578 -0.1972  0.1689  0.0266
14104TIP3    H163803   0.353   5.199   3.655  0.8730 -1.0552  0.2947
14104TIP3    H263804   0.355   5.200   3.503 -0.9956  1.1720  0.2347
14105TIP3   OH263805   4.508   3.367  11.162  0.1355  0.0411  0.3899
14105TIP3    H163806   4.602   3.379  11.149  0.3006 -0.5570  0.9696
14105TIP3    H263807   4.494   3.273  11.153 -0.4344  0.1481  0.1342
14106TIP3   OH263808   5.944   5.345  15.965 -0.0170 -0.1751 -0.7188
14106TIP3    H163809   5.993   5.263  15.953 -0.7696 -0.5127 -1.5795
14106TIP3    H263810   5.862   5.318  16.005  0.4256  0.3769  0.5976
14107TIP3   OH263811   4.567   3.525   1.823  0.0441 -0.1545 -0.0865
14107TIP3    H163812   4.565   3.462   1.896  0.3470 -0.8201 -0.6377
14107TIP3    H263813   4.477   3.555   1.814 -0.0142 -0.1400  0.4970
14108TIP3   OH263814   5.511   3.061   0.214  0.3563  0.2368 -0.4122
14108TIP3    H163815   5.426   3.103   0.226  1.1920  2.1808 -0.8090
14108TIP3    H263816   5.514   3.038   0.121 -0.5780 -1.9528  0.0268
14109TIP3   OH263817   3.621   4.162   1.200 -0.1705  0.3277  0.7746
14109TIP3    H163818   3.547   4.187   1.255 -0.4282  1.2153  0.0412
14109TIP3    H263819   3.698   4.198   1.244 -0.2021 -0.2692  1.3362
14110TIP3   OH263820   2.552   1.535  11.682 -0.7600  0.0597 -0.4153
14110TIP3    H163821   2.486   1.466  11.685 -0.1249 -0.5774  3.6956
14110TIP3    H263822   2.636   1.489  11.686 -0.2229  0.9973 -0.4843
14111TIP3   OH263823   5.071   0.208  12.634  0.6249 -0.1543  0.1729
14111TIP3    H163824   5.159   0.181  12.660  0.1382 -0.0979  2.0599
14111TIP3    H263825   5.042   0.265  12.705 -1.2061 -0.7502 -0.0382
14112TIP3   OH263826   4.026   3.994  10.832 -0.1177  0.5205 -0.5532
14112TIP3    H163827   4.077   3.920  10.798  0.2037  1.6365 -2.6398
14112TIP3    H263828   3.939   3.982  10.795 -0.9386 -0.3291  1.4635
14113TIP3   OH263829   1.962   2.510   1.559  0.0364 -0.2285  0.3952
14113TIP3    H163830   1.990   2.434   1.610 -0.7641  0.3067  1.6752
14113TIP3    H263831   1.867   2.503   1.555  0.0518 -0.0417 -0.7194
14114TIP3   OH263832   3.329   6.214   4.256  0.0519 -0.1947  0.3579
14114TIP3    H163833   3.277   6.270   4.314  1.2746  0.7294  0.6026
14114TIP3    H263834   3.273   6.138   4.239  0.0142 -1.0505  3.6029
14115TIP3   OH263835   2.083   3.243   6.243  0.5261  0.0181 -0.1530
14115TIP3    H163836   2.153   3.299   6.278  0.4226  0.0620 -0.0165
14115TIP3    H263837   2.044   3.202   6.320  0.7013 -0.3608 -0.2646
14116TIP3   OH263838   2.917   4.336   3.179  0.4682 -0.3535 -0.2829
14116TIP3    H163839   2.873   4.338   3.264  0.3453 -0.0894 -0.3529
14116TIP3    H263840   3.008   4.357   3.198  1.1283 -3.1602  0.2000
14117TIP3   OH263841   1.403   4.346   2.509 -0.3046 -0.5051 -0.1880
14117TIP3    H163842   1.342   4.291   2.559  0.8082 -2.8897 -1.3009
14117TIP3    H263843   1.489   4.325   2.546 -0.0078  2.5961  1.1700
14118TIP3   OH263844   4.314   3.839  14.085 -0.0941  0.6275  0.3872
14118TIP3    H163845   4.319   3.750  14.051 -1.7729  0.7146 -0.2211
14118TIP3    H263846   4.401   3.857  14.120  0.6644 -0.7602 -0.6840
14119TIP3   OH263847   0.424   1.861  15.989 -0.5120  0.2925 -0.2564
14119TIP3    H163848   0.368   1.790  16.020  0.4736 -1.1180 -1.5792
14119TIP3    H263849   0.371   1.907  15.924 -0.9695  0.4721  0.2329
14120TIP3   OH263850   0.543   4.127  13.168 -0.3880 -0.7665  0.3029
14120TIP3    H163851   0.621   4.073  13.158 -2.1032 -3.8860  1.8816
14120TIP3    H263852   0.547   4.160  13.258  0.6465  1.9225 -0.6547
14121TIP3   OH263853   4.492   6.433   6.054  0.4905  0.6761 -0.2593
14121TIP3    H163854   4.500   6.338   6.051  0.3163  0.5514  2.0737
14121TIP3    H263855   4.569   6.465   6.006  1.7543 -0.6370  0.8251
14122TIP3   OH263856   2.807   4.450  15.096 -0.0235  0.0879 -0.1007
14122TIP3    H163857   2.827   4.526  15.040  0.7408 -0.3466 -0.4316
14122TIP3    H263858   2.893   4.420  15.127 -0.4881  1.2870  2.6388
14123TIP3   OH263859   0.927   4.891   0.805  0.1980  0.1714 -0.6040
14123TIP3    H163860   1.011   4.866   0.767  0.5472  0.9981 -0.3856
14123TIP3    H263861   0.877   4.809   0.807  1.8095 -0.8529  1.4157
14124TIP3   OH263862   6.001   1.320  12.979  0.0593  0.4511 -1.0029
14124TIP3    H163863   6.076   1.287  12.930  0.9387 -0.7284  0.9988
14124TIP3    H263864   6.032   1.326  13.070 -1.8387  1.3225 -0.3471
14125TIP3   OH263865   0.047   1.801  13.407  0.1274  0.0056  0.2631
14125TIP3    H163866  -0.007   1.728  13.377  1.4196 -0.9668  0.1857
14125TIP3    H263867   0.067   1.780  13.499 -1.8361  1.7505  1.1640
14126TIP3   OH263868   3.735   2.379   3.182 -0.5200 -0.0485 -0.0619
14126TIP3    H163869   3.721   2.308   3.120  0.3372  1.0965 -1.6355
14126TIP3    H263870   3.646   2.409   3.205 -0.8491 -0.0569 -1.2746
14127TIP3   OH263871   6.067   3.172  11.453 -0.0032  0.2420  0.1191
14127TIP3    H163872   6.108   3.095  11.493 -1.3245  0.7634  2.6476
14127TIP3    H263873   5.980   3.142  11.427  0.3349  0.2967 -1.1718
14128TIP3   OH263874   5.692   0.947   5.772 -0.5815  0.5294 -0.0756
14128TIP3    H163875   5.759   0.956   5.704  1.0479 -1.6716  1.1243
14128TIP3    H263876   5.636   0.875   5.741 -1.7031  1.5356 -0.4744
14129TIP3   OH263877   3.518   6.507  13.061 -0.4914 -0.1079 -0.0447
14129TIP3    H163878   3.481   6.484  13.146 -1.5076 -1.1929 -0.7468
14129TIP3    H263879   3.601   6.459  13.057 -0.1135  0.4753  0.5850
14130TIP3   OH263880   1.711   6.431   4.655 -0.1206  0.1839 -0.1856
14130TIP3    H163881   1.664   6.509   4.686  0.4483  1.0155 -1.3066
14130TIP3    H263882   1.802   6.447   4.679  0.0249 -0.0609 -0.5667
14131TIP3   OH263883   2.480   3.258  12.313  0.3924  0.1290  0.0085
14131TIP3    H163884   2.437   3.337  12.344 -0.6260 -0.8364  1.1594
14131TIP3    H263885   2.547   3.289  12.251 -0.0768  1.8490  0.3268
14132TIP3   OH263886   4.323   0.189  13.054  0.0518  0.0419  0.3846
14132TIP3    H163887   4.410   0.175  13.018  0.7164  1.9773  1.1257
14132TIP3    H263888   4.272   0.227  12.983 -0.7795 -2.6410 -0.5913
14133TIP3   OH263889   4.244   4.519  12.297  0.5450 -0.4259 -0.3685
14133TIP3    H163890   4.189   4.597  12.298  0.2532 -0.6124 -1.1647
14133TIP3    H263891   4.333   4.551  12.310  0.2664 -0.1206  0.9368
14134TIP3   OH263892   2.504   0.103   0.969 -0.1542 -0.1555 -0.0906
14134TIP3    H163893   2.464   0.108   0.882 -1.5180 -0.5923  0.4897
14134TIP3    H263894   2.433   0.126   1.029  1.1086  1.5081  0.8507
14135TIP3   OH263895   0.453   1.860   2.164 -0.1903 -0.2837  0.2740
14135TIP3    H163896   0.439   1.767   2.150  0.4559 -0.5068  1.0133
14135TIP3    H263897   0.545   1.875   2.144 -0.2224  0.1422  0.4121
14136TIP3   OH263898   1.701   6.647  12.198  0.4706 -0.1478  0.5254
14136TIP3    H163899   1.766   6.577  12.204  1.1138  0.4828  1.1372
14136TIP3    H263900   1.618   6.602  12.181  1.1301 -0.9468 -0.8193
14137TIP3   OH263901   6.495   2.844   0.773 -0.0090  0.1286  0.5964
14137TIP3    H163902   6.524   2.847   0.682 -1.6439  1.6501  0.0760
14137TIP3    H263903   6.484   2.936   0.798 -2.1009 -0.2943  1.4506
14138TIP3   OH263904   4.246   3.573  11.751 -1.1211 -0.2430  0.1859
14138TIP3    H163905   4.275   3.601  11.837  0.0403 -0.8201 -0.0013
14138TIP3    H263906   4.180   3.637  11.725  0.3132  1.3859  0.4398
14139TIP3   OH263907   6.231   6.600  13.960 -0.1750 -0.2137 -0.3768
14139TIP3    H163908   6.232   6.694  13.976  1.2672 -0.5571  2.1907
14139TIP3    H263909   6.228   6.591  13.865  1.4700  2.4360 -0.7843
14140TIP3   OH263910   6.303   5.604  13.675  0.0075  0.3815  1.0322
14140TIP3    H163911   6.235   5.650  13.724 -0.7405  1.8151 -1.1768
14140TIP3    H263912   6.329   5.666  13.607  0.2893 -1.7838 -0.9480
14141TIP3   OH263913   1.664   0.274   3.813 -0.3963  0.4569  0.3710
14141TIP3    H163914   1.632   0.250   3.726  0.0003 -0.0091  0.3531
14141TIP3    H263915   1.600   0.339   3.844 -0.0631  1.2768 -0.6058
14142TIP3   OH263916   2.608   6.238  11.456 -0.0143  0.1729 -0.5656
14142TIP3    H163917   2.598   6.330  11.478  0.7012  0.0382  0.3926
14142TIP3    H263918   2.549   6.224  11.382 -0.4606  1.2900 -0.4346
14143TIP3   OH263919   1.903   0.777  14.800 -0.1477 -0.4938  0.4098
14143TIP3    H163920   1.981   0.819  14.836  0.0138 -1.2928  1.0323
14143TIP3    H263921   1.854   0.848  14.760 -0.0477  0.3681  1.7321
14144TIP3   OH263922   4.171   0.182   3.972 -0.2978 -0.0283 -0.3371
14144TIP3    H163923   4.107   0.114   3.953 -0.7149 -0.1431  1.3385
14144TIP3    H263924   4.248   0.134   4.002 -0.3198  0.2074  0.0993
14145TIP3   OH263925   4.983   1.785  13.051 -0.1382 -0.3646 -0.4566
14145TIP3    H163926   5.057   1.788  12.991  0.4493  0.1574  0.2643
14145TIP3    H263927   4.917   1.841  13.011  0.9444  1.4934  0.2411
14146TIP3   OH263928   2.754   0.628   5.524 -0.2271  0.0909 -0.1348
14146TIP3    H163929   2.720   0.700   5.577 -0.3609  0.2511 -0.4369
14146TIP3    H263930   2.682   0.605   5.466  0.3145  0.7185 -1.0803
14147TIP3   OH263931   0.520   4.453   3.880  0.4854  0.3265  0.1550
14147TIP3    H163932   0.445   4.413   3.925  0.4825 -1.6162 -1.4497
14147TIP3    H263933   0.484   4.531   3.839 -0.1674  0.5223  1.0539
14148TIP3   OH263934   0.237   1.027  11.029  0.7527  0.1792  0.1481
14148TIP3    H163935   0.198   1.014  10.942  2.5309 -1.4970 -0.4764
14148TIP3    H263936   0.170   1.072  11.079 -1.0801 -0.5457 -1.5257
14149TIP3   OH263937   5.541   1.043   5.158  0.4711  0.6431 -0.1791
14149TIP3    H163938   5.480   1.013   5.224  1.9886  0.4604  1.2130
14149TIP3    H263939   5.489   1.050   5.078 -1.3045  0.3948  0.9055
14150TIP3   OH263940   1.739   4.724  11.482  0.0845 -0.0072  0.0446
14150TIP3    H163941   1.824   4.699  11.445  0.2420  1.1609 -0.4036
14150TIP3    H263942   1.757   4.736  11.576 -0.1306 -2.1157  0.4057
14151TIP3   OH263943   2.273   5.378   6.103  0.2429  0.2720  0.1463
14151TIP3    H163944   2.287   5.315   6.174 -0.1655  0.5939  0.5206
14151TIP3    H263945   2.246   5.458   6.148 -0.5978  0.3065 -0.4084
14152TIP3   OH263946   5.728   1.009  13.215 -0.1736 -0.1101  0.3284
14152TIP3    H163947   5.675   0.996  13.294 -0.7874  2.3534  0.4089
14152TIP3    H263948   5.719   0.927  13.166 -1.4360 -0.9358  1.8625
14153TIP3   OH263949   3.057   4.118   2.426 -0.0774 -0.2113  0.2391
14153TIP3    H163950   3.090   4.206   2.443  0.7560 -0.6323  0.8650
14153TIP3    H263951   3.040   4.117   2.332  2.8842 -0.3490 -0.3828
14154TIP3   OH263952   5.830   6.808   5.324  0.0812 -0.4461 -0.3550
14154TIP3    H163953   5.887   6.741   5.287  0.1686  0.0651 -1.1728
14154TIP3    H263954   5.862   6.821   5.413  1.5732  0.1908 -0.9544
14155TIP3   OH263955   5.876   2.008  12.056  0.5194 -0.0783 -0.1644
14155TIP3    H163956   5.935   2.070  12.013 -0.9746  0.4036 -1.6267
14155TIP3    H263957   5.844   1.952  11.986 -0.8306 -0.2646  0.5600
14156TIP3   OH263958   4.165   4.499   1.101  0.9509 -0.1245  0.1095
14156TIP3    H163959   4.149   4.410   1.071  0.7375 -0.2573  0.6099
14156TIP3    H263960   4.255   4.517   1.075  0.8482 -0.3158 -0.4029
14157TIP3   OH263961   2.731   4.248  13.225  0.7759  0.1757  0.3311
14157TIP3    H163962   2.718   4.246  13.130  1.8532 -0.3435  0.1837
14157TIP3    H263963   2.697   4.165  13.256  0.6192  0.2549  0.3720
14158TIP3   OH263964   6.559   5.519  12.997  0.5221 -0.3378 -0.1267
14158TIP3    H163965   6.512   5.459  13.055  1.7479 -0.5148  0.7212
14158TIP3    H263966   6.618   5.567  13.055  1.2532  0.0142 -1.1272
14159TIP3   OH263967   6.264   6.621   4.801 -0.0048 -0.4019  0.3431
14159TIP3    H163968   6.320   6.544   4.809 -1.1155 -1.6666 -2.6043
14159TIP3    H263969   6.319   6.687   4.758 -0.1637 -0.9770 -0.7792
14160TIP3   OH263970   4.201   1.634  16.437  0.1169 -0.4411  0.0336
14160TIP3    H163971   4.143   1.685  16.380 -1.5749 -1.8417  0.3955
14160TIP3    H263972   4.230   1.561  16.383  1.7799  0.3472 -0.2011
14161TIP3   OH263973   4.191   3.256  12.120 -0.1134  0.1393 -0.4594
14161TIP3    H163974   4.266   3.204  12.090  1.3181  2.3995 -1.0567
14161TIP3    H263975   4.223   3.298  12.200 -0.5496  1.5281 -0.9968
14162TIP3   OH263976   6.035   1.741   0.970 -0.2166  0.1690 -0.0978
14162TIP3    H163977   6.107   1.790   1.011 -0.8471 -0.2370  1.5551
14162TIP3    H263978   6.062   1.649   0.975 -0.2712  0.1141 -0.6908
14163TIP3   OH263979   2.987   3.549  12.484 -0.0096  0.0817 -0.9987
14163TIP3    H163980   2.937   3.630  12.472  0.5704  0.8472  1.2794
14163TIP3    H263981   2.927   3.479  12.459 -1.5430  1.0762 -0.2269
14164TIP3   OH263982   2.929   6.315  12.290  0.0288 -0.1329  0.6085
14164TIP3    H163983   2.886   6.295  12.373 -1.0987 -1.4534 -0.2752
14164TIP3    H263984   3.020   6.335  12.315 -0.7940  1.7292  2.3858
14165TIP3   OH263985   3.628   3.178  10.538  0.0234 -0.0705  0.3418
14165TIP3    H163986   3.575   3.239  10.590 -1.2974  1.2917 -2.3703
14165TIP3    H263987   3.717   3.213  10.545  0.0747 -0.5003  2.3866
14166TIP3   OH263988   3.353   2.131   3.015 -0.0037  0.4859 -0.6260
14166TIP3    H163989   3.399   2.046   3.018 -1.2174 -0.1980 -0.8879
14166TIP3    H263990   3.348   2.152   2.922  1.4868  1.5519 -0.5132
14167TIP3   OH263991   2.848   4.192   1.017  0.0391 -0.0481  0.2904
14167TIP3    H163992   2.829   4.098   1.015  0.3648 -0.1100 -0.4214
14167TIP3    H263993   2.811   4.222   1.100 -1.6901 -0.4627 -0.2838
14168TIP3   OH263994   3.508   0.084   4.396  0.1444 -0.3950  0.1152
14168TIP3    H163995   3.528   0.021   4.465 -2.1843  1.1140  2.3649
14168TIP3    H263996   3.568   0.157   4.411  0.5002 -0.5945 -0.3054
14169TIP3   OH263997   3.087   6.104   6.680  0.1699 -0.2361 -0.1694
14169TIP3    H163998   3.010   6.081   6.733  0.8704  0.5846  1.2675
14169TIP3    H263999   3.107   6.194   6.707  2.1820 -0.7498  0.1731
14170TIP3   OH264000   6.045   5.889  10.810 -0.2280  0.8804 -0.5875
14170TIP3    H164001   5.952   5.884  10.790 -0.4527  1.0660  0.4029
14170TIP3    H264002   6.061   5.982  10.827 -0.1866  0.6400  0.7594
14171TIP3   OH264003   6.062   1.686  11.766 -0.0643  0.0049  0.0957
14171TIP3    H164004   6.146   1.669  11.723  0.2516  1.3061  0.1402
14171TIP3    H264005   6.086   1.728  11.849 -0.7586  0.6633 -0.0253
14172TIP3   OH264006   0.893   0.965  11.787 -0.0961 -0.0334 -0.0190
14172TIP3    H164007   0.870   0.890  11.734 -0.0306 -0.5971  0.7316
14172TIP3    H264008   0.824   0.971  11.853 -1.8179  2.4239 -1.8416
14173TIP3   OH264009   5.158   4.997  12.861  0.4302  0.3863  0.1646
14173TIP3    H164010   5.220   4.967  12.794  0.5225 -2.9916  1.5702
14173TIP3    H264011   5.072   4.972  12.826  0.1577  1.5806 -0.0700
14174TIP3   OH264012   6.088   4.345  12.185  0.1624  0.2177  0.3529
14174TIP3    H164013   6.042   4.285  12.126  0.7910 -0.5213  0.5913
14174TIP3    H264014   6.120   4.289  12.256  0.0350  0.9826  1.0248
14175TIP3   OH264015   0.444   1.443  12.393 -0.4572 -0.0434 -0.8632
14175TIP3    H164016   0.479   1.473  12.477  1.0245  0.4552 -1.6172
14175TIP3    H264017   0.366   1.393  12.415  0.1707 -0.3226  0.8520
14176TIP3   OH264018   2.261   1.562  13.400 -0.1271  0.1040 -0.1086
14176TIP3    H164019   2.237   1.548  13.308  1.2577 -1.5643 -0.2611
14176TIP3    H264020   2.288   1.476  13.431  2.4209  1.1955  0.9566
14177TIP3   OH264021   6.630   2.552  11.442 -0.5738 -0.1946 -0.4980
14177TIP3    H164022   6.537   2.565  11.426 -0.4657 -0.5573 -1.5265
14177TIP3    H264023   6.642   2.457  11.435 -0.0686 -0.1144 -0.7347
14178TIP3   OH264024   6.029   1.479   2.824 -0.0629 -0.3728 -0.4983
14178TIP3    H164025   6.002   1.565   2.793 -1.7358 -0.5390  0.3596
14178TIP3    H264026   6.025   1.423   2.746  0.2713  0.1593 -0.8984
14179TIP3   OH264027   4.836   6.423  15.396  0.2904 -0.5987 -0.5606
14179TIP3    H164028   4.840   6.327  15.389  0.0848 -0.6598  0.0778
14179TIP3    H264029   4.902   6.454  15.334 -0.7708 -1.0897 -1.9870
14180TIP3   OH264030   5.166   6.509  12.982 -0.5304  0.2485  0.9410
14180TIP3    H164031   5.181   6.414  12.987  1.2959  0.4542  0.2100
14180TIP3    H264032   5.131   6.523  12.894  0.7200  0.4046  0.4536
14181TIP3   OH264033   4.944   3.704  11.174  0.2096 -0.3185 -0.4268
14181TIP3    H164034   4.900   3.624  11.201  0.3946 -0.6351 -1.0589
14181TIP3    H264035   4.956   3.753  11.256  1.0392 -1.3951  0.1363
14182TIP3   OH264036   5.972   1.672  14.309  0.2465 -0.1652 -0.2875
14182TIP3    H164037   5.924   1.609  14.255 -0.2312  1.4491 -1.8425
14182TIP3    H264038   6.064   1.652  14.292  0.1098 -0.8952 -0.2091
14183TIP3   OH264039   5.461   4.371  13.665  0.1447 -0.4687 -0.0842
14183TIP3    H164040   5.527   4.370  13.734 -0.5778  0.3120  0.6383
14183TIP3    H264041   5.387   4.323  13.703 -0.6399  0.8516  0.0925
14184TIP3   OH264042   4.751   5.376   5.968 -0.8634 -0.0339  0.7625
14184TIP3    H164043   4.748   5.371   6.064 -0.5167  1.2278  0.8476
14184TIP3    H264044   4.678   5.434   5.945  0.5544  1.6951  0.4472
14185TIP3   OH264045   3.414   5.710  16.509  0.1381 -0.2159 -0.2217
14185TIP3    H164046   3.428   5.673  16.422  0.4343  1.3880 -0.8765
14185TIP3    H264047   3.332   5.759  16.502  0.7574  0.8902  0.0476
14186TIP3   OH264048   1.999   3.718  13.801 -0.4485  0.3864  0.1003
14186TIP3    H164049   1.983   3.663  13.725 -0.3832  0.0896  0.3007
14186TIP3    H264050   2.088   3.752  13.789 -0.2181 -0.1232  0.3298
14187TIP3   OH264051   2.547   5.267  14.758  0.4392 -0.0441  0.4079
14187TIP3    H164052   2.525   5.200  14.694  1.7307  0.5091 -0.6594
14187TIP3    H264053   2.464   5.286  14.803 -0.6888  0.1195 -1.6481
14188TIP3   OH264054   0.502   2.521   2.409  0.4170  0.2647  0.3685
14188TIP3    H164055   0.591   2.501   2.439 -0.1441 -1.3847  1.0093
14188TIP3    H264056   0.453   2.441   2.423 -1.1421  1.0760 -0.2060
14189TIP3   OH264057   2.831   0.315  12.104  0.4427  0.6545  0.1654
14189TIP3    H164058   2.786   0.327  12.020  3.0325  1.7229 -1.1877
14189TIP3    H264059   2.903   0.378  12.101  1.9591 -0.8856  2.2236
14190TIP3   OH264060   1.828   3.951  11.801  0.2444  0.5641  0.3938
14190TIP3    H164061   1.848   3.874  11.853  2.1248  1.0848  0.5150
14190TIP3    H264062   1.818   3.917  11.712 -1.8644 -0.1729  0.8670
14191TIP3   OH264063   4.926   1.898  12.595 -0.0060  0.4440 -0.0608
14191TIP3    H164064   4.904   1.943  12.514  0.6761 -0.8054 -0.9601
14191TIP3    H264065   4.999   1.841  12.572 -1.3229 -1.7088  0.8349
14192TIP3   OH264066   0.694   4.560  11.515  0.4382  0.2543  0.0306
14192TIP3    H164067   0.698   4.633  11.576  0.3035 -1.0849  1.7042
14192TIP3    H264068   0.784   4.552  11.481  0.8055  0.2567  0.9886
14193TIP3   OH264069   1.412   6.486   3.352 -0.2446 -0.2228  0.2957
14193TIP3    H164070   1.366   6.403   3.342 -2.1596  0.7569  0.5295
14193TIP3    H264071   1.376   6.541   3.282  1.0793  0.3845  0.0692
14194TIP3   OH264072   5.820   6.410  17.014 -0.5627 -0.4405  0.0402
14194TIP3    H164073   5.767   6.454  17.080  0.3909  0.8232  0.0067
14194TIP3    H264074   5.896   6.468  17.002  1.0059 -2.3090  0.3390
14195TIP3   OH264075   6.686   4.089  15.549  0.0534 -0.3023 -0.1146
14195TIP3    H164076   6.628   4.165  15.558  2.0183  1.3777 -1.0455
14195TIP3    H264077   6.677   4.063  15.457  0.3521 -0.4060 -0.1143
14196TIP3   OH264078   6.858   1.802   1.643 -0.2427 -0.0541 -0.1887
14196TIP3    H164079   6.862   1.709   1.623 -1.0238 -0.6458  2.1541
14196TIP3    H264080   6.837   1.844   1.559  0.0578 -1.9594 -1.2676
14197TIP3   OH264081   3.963   4.364   0.292 -0.7351 -0.4135 -0.5560
14197TIP3    H164082   3.962   4.459   0.284 -1.2990 -0.2954  0.7011
14197TIP3    H264083   3.977   4.332   0.203  5.8520  0.8934 -0.4335
14198TIP3   OH264084   5.470   5.071   4.923  0.1760  0.5385 -0.4296
14198TIP3    H164085   5.415   4.992   4.929 -0.2952  0.8336 -0.7741
14198TIP3    H264086   5.559   5.038   4.921 -0.0344 -0.0227 -1.1191
14199TIP3   OH264087   2.565   5.878  14.794 -0.4915  0.1929  0.1340
14199TIP3    H164088   2.488   5.859  14.740  1.3194 -0.4233 -2.4448
14199TIP3    H264089   2.603   5.792  14.812 -0.3012  0.4970  1.2563
14200TIP3   OH264090   6.657   4.689  13.120 -0.1867 -0.5400  0.5285
14200TIP3    H164091   6.722   4.638  13.072  1.2168  2.0187 -0.5157
14200TIP3    H264092   6.630   4.757  13.058  0.6738  2.0809  2.8500
14201TIP3   OH264093   2.905   1.921   5.298  0.2268 -0.0102  0.1040
14201TIP3    H164094   2.895   1.986   5.228 -1.9729 -1.1161 -0.6807
14201TIP3    H264095   2.904   1.837   5.253 -0.3135 -0.7160  1.3835
14202TIP3   OH264096   5.546   0.482  13.420 -0.2250  1.0985 -0.1821
14202TIP3    H164097   5.459   0.444  13.403 -1.0908  2.0351  1.7326
14202TIP3    H264098   5.539   0.517  13.509  1.9691  1.6962 -0.1862
14203TIP3   OH264099   5.982   3.415  14.740 -0.0500  0.3459  0.5096
14203TIP3    H164100   6.019   3.457  14.663 -2.1690 -0.6082 -1.1421
14203TIP3    H264101   5.973   3.486  14.804  0.6113  1.4274 -0.5506
14204TIP3   OH264102   4.034   6.209   3.337  0.0988  0.6056  0.0655
14204TIP3    H164103   4.061   6.239   3.250  0.4596  0.3048  0.0700
14204TIP3    H264104   4.072   6.274   3.397  0.2496  0.5533  0.0277
14205TIP3   OH264105   5.534   3.751   2.406 -0.2714  0.4301  0.3503
14205TIP3    H164106   5.463   3.688   2.415  1.3400 -1.2455  2.7734
14205TIP3    H264107   5.564   3.742   2.316 -3.1231  1.3309 -0.8030
14206TIP3   OH264108   0.816   6.755   1.832 -0.0946  0.5190 -0.1216
14206TIP3    H164109   0.730   6.761   1.874 -0.4135 -1.8822 -0.2733
14206TIP3    H264110   0.798   6.720   1.744  0.7345  3.6847 -1.7150
14207TIP3   OH264111   1.407   6.577  12.463  0.9179 -0.3293 -0.2847
14207TIP3    H164112   1.417   6.672  12.467 -3.2160  0.3749 -1.3600
14207TIP3    H264113   1.385   6.551  12.553 -0.3106  0.2186 -0.3941
14208TIP3   OH264114   1.508   1.694  15.070  0.7504 -0.2878  0.4999
14208TIP3    H164115   1.571   1.642  15.120  1.6137  1.1718  0.9868
14208TIP3    H264116   1.562   1.752  15.017 -0.1836  0.7911  0.7005
14209TIP3   OH264117   1.453   6.343  11.645  0.8780 -0.1296 -0.1235
14209TIP3    H164118   1.395   6.415  11.671 -0.5736 -1.3271  0.0860
14209TIP3    H264119   1.487   6.369  11.559  2.0363  1.7218  0.8255
14210TIP3   OH264120   5.265   6.128  14.248 -0.7972 -0.4574  0.3600
14210TIP3    H164121   5.277   6.190  14.319 -0.9699 -0.4152  0.3542
14210TIP3    H264122   5.256   6.043  14.291  1.5485 -0.8090  0.2813
14211TIP3   OH264123   6.695   6.371  16.628  0.4249 -0.5386 -0.5974
14211TIP3    H164124   6.624   6.320  16.668  0.8885 -0.2837  0.6008
14211TIP3    H264125   6.751   6.395  16.702  1.7281 -0.6833 -1.5133
14212TIP3   OH264126   5.337   4.087  12.154  0.2925 -0.4364  0.1792
14212TIP3    H164127   5.381   4.043  12.082  0.0074  0.2865 -0.4493
14212TIP3    H264128   5.368   4.041  12.233  1.8020 -0.2612 -0.2678
14213TIP3   OH264129   2.997   5.484   5.296 -0.6873 -0.2448 -0.0094
14213TIP3    H164130   3.072   5.516   5.246  0.1433 -1.2974  0.5128
14213TIP3    H264131   2.988   5.548   5.367 -0.4514  0.0253 -0.2156
14214TIP3   OH264132   1.554   6.579  16.757  0.2209 -0.0295  0.1696
14214TIP3    H164133   1.617   6.646  16.732  0.0840  0.6071  1.4215
14214TIP3    H264134   1.533   6.599  16.848 -0.0296 -1.6164  0.4980
14215TIP3   OH264135   3.511   5.253  10.845  0.1464 -0.4162 -0.9278
14215TIP3    H164136   3.435   5.221  10.894  0.0570 -1.2130 -1.5535
14215TIP3    H264137   3.583   5.251  10.907 -0.1286 -0.6557 -0.6116
14216TIP3   OH264138   6.846   3.749   3.118 -0.9575 -0.0902  0.0887
14216TIP3    H164139   6.899   3.794   3.184 -0.2542 -0.3281 -0.3042
14216TIP3    H264140   6.893   3.668   3.101 -1.2946 -0.1678 -0.4923
14217TIP3   OH264141   3.327   1.372   1.167  0.1469 -0.0563  0.3877
14217TIP3    H164142   3.285   1.445   1.122  2.2964  0.2322 -1.3218
14217TIP3    H264143   3.263   1.344   1.232 -2.4799  0.5862 -1.7335
14218TIP3   OH264144   2.887   3.694   6.396 -0.3792  0.0785 -0.1697
14218TIP3    H164145   2.943   3.745   6.338 -2.0384  2.0001 -0.1711
14218TIP3    H264146   2.856   3.756   6.462  1.0224 -1.9101  2.5866
14219TIP3   OH264147   2.707   1.861   3.434  1.1618  0.1271 -0.3899
14219TIP3    H164148   2.735   1.787   3.380  1.8850  0.8570 -1.0313
14219TIP3    H264149   2.774   1.927   3.420 -1.1601  2.2326 -2.5328
14220TIP3   OH264150   2.786   2.609   0.726  0.1720  0.0589  0.1941
14220TIP3    H164151   2.868   2.566   0.747  0.3041  0.3713  0.3390
14220TIP3    H264152   2.775   2.674   0.796 -1.0668 -1.1366  1.1735
14221TIP3   OH264153   5.180   3.264   2.061 -0.4611  0.3558  0.2243
14221TIP3    H164154   5.148   3.240   2.148 -0.2503 -2.0080 -0.2636
14221TIP3    H264155   5.124   3.214   2.000  1.9256 -1.2756 -0.7749
14222TIP3   OH264156   2.371   6.383   2.221 -0.2317 -0.4610 -0.3291
14222TIP3    H164157   2.355   6.292   2.246 -0.1216 -0.6695 -0.9957
14222TIP3    H264158   2.432   6.378   2.147  0.5439  0.2013  0.2434
14223TIP3   OH264159   6.251   2.648  11.948  0.6585 -0.2056 -0.0872
14223TIP3    H164160   6.256   2.603  11.863 -1.7593  2.7159 -1.9825
14223TIP3    H264161   6.169   2.617  11.986  0.9000 -0.2400  0.4118
14224TIP3   OH264162   5.265   3.541   5.407  0.1432 -0.2672 -0.5268
14224TIP3    H164163   5.220   3.467   5.448  0.9347  0.0262  0.9077
14224TIP3    H264164   5.358   3.520   5.416  0.3530  0.1890 -1.4931
14225TIP3   OH264165   6.538   3.268  16.074 -0.2549 -0.3107 -0.0318
14225TIP3    H164166   6.556   3.279  15.981 -0.7013  1.7366  0.0647
14225TIP3    H264167   6.565   3.178  16.094 -1.0898 -1.1436 -2.3258
14226TIP3   OH264168   3.553   4.107  13.574  0.5114 -0.3196 -0.6211
14226TIP3    H164169   3.467   4.076  13.602  1.1012 -2.1974 -0.7065
14226TIP3    H264170   3.602   4.118  13.655  0.0044  1.4670 -0.5235
14227TIP3   OH264171   1.700   2.596   1.441 -0.2791  0.3354 -0.1354
14227TIP3    H164172   1.666   2.544   1.368  1.6595 -0.6228 -0.4280
14227TIP3    H264173   1.624   2.641   1.476 -2.2723 -3.2151  0.5747
14228TIP3   OH264174   2.613   0.610  11.891 -0.2947 -0.2894  0.7974
14228TIP3    H164175   2.530   0.591  11.935 -0.1274 -2.5704  0.2958
14228TIP3    H264176   2.589   0.666  11.817 -1.2614 -0.1567  1.1969
14229TIP3   OH264177   0.901   3.488  15.896  0.2200  0.2012  0.6300
14229TIP3    H164178   0.975   3.455  15.845 -1.5585  1.6432 -3.3745
14229TIP3    H264179   0.849   3.410  15.914  0.1504 -0.2833 -1.3461
14230TIP3   OH264180   4.420   6.079  12.104 -0.2172 -0.8190 -0.2833
14230TIP3    H164181   4.492   6.087  12.167 -0.0633  0.6085 -0.6146
14230TIP3    H264182   4.341   6.077  12.159 -0.2216  2.1804  0.0041
14231TIP3   OH264183   1.192   6.372  12.317 -0.0018 -0.6506 -0.6176
14231TIP3    H164184   1.106   6.395  12.281  0.9319 -0.3157 -2.7846
14231TIP3    H264185   1.254   6.412  12.257  1.7470  0.7493  1.9134
14232TIP3   OH264186   6.461   3.227   3.237  0.7092  0.1898  0.5686
14232TIP3    H164187   6.549   3.208   3.270  0.4033 -0.2004  1.1609
14232TIP3    H264188   6.459   3.185   3.151  0.9863 -0.0934  0.6961
14233TIP3   OH264189   5.551   0.238  14.421  0.0917  0.6579  0.1552
14233TIP3    H164190   5.507   0.184  14.486  0.2924  0.6450  0.2797
14233TIP3    H264191   5.644   0.229  14.441  0.2468 -0.3827 -0.9376
14234TIP3   OH264192   4.905   5.519  14.007 -0.2178 -0.1091  0.0287
14234TIP3    H164193   4.970   5.588  13.999  2.4657 -2.5486 -0.7461
14234TIP3    H264194   4.945   5.455  14.065 -1.1649 -2.4799 -1.7661
14235TIP3   OH264195   5.057   4.094   4.919  0.0007  0.3626 -0.0131
14235TIP3    H164196   5.126   4.063   4.861  0.0525  0.4458  0.0030
14235TIP3    H264197   5.036   4.018   4.974  2.0159  1.0503  1.8752
14236TIP3   OH264198   0.694   1.026  13.223  0.1138  0.1751  0.0827
14236TIP3    H164199   0.635   1.095  13.253 -1.8213 -1.6631  0.8298
14236TIP3    H264200   0.685   0.957  13.290  0.9329 -1.3063 -1.2766
14237TIP3   OH264201   3.385   2.688   3.639 -0.0001 -0.3648 -0.1814
14237TIP3    H164202   3.406   2.781   3.637 -1.4260 -0.0203  0.2910
14237TIP3    H264203   3.290   2.684   3.643  0.0517 -1.7663  2.8522
14238TIP3   OH264204   1.088   6.550   1.509 -0.1180 -0.2245  0.0527
14238TIP3    H164205   1.052   6.559   1.421 -0.1436  0.8849  0.1687
14238TIP3    H264206   1.127   6.635   1.529  0.4343 -0.6516  0.8770
14239TIP3   OH264207   4.274   1.903  15.137 -0.0738  1.1246  0.0133
14239TIP3    H164208   4.257   1.862  15.222 -0.4138  0.9391 -0.1421
14239TIP3    H264209   4.268   1.997  15.154 -0.7927  1.0713  0.0582
14240TIP3   OH264210   3.633   5.598  10.630 -0.8634  0.1608 -0.5789
14240TIP3    H164211   3.543   5.591  10.597 -0.5656 -0.3574 -1.3323
14240TIP3    H264212   3.687   5.604  10.550 -0.1490 -0.6776 -0.1863
14241TIP3   OH264213   2.371   6.105   2.133  0.1389  0.5785 -0.5967
14241TIP3    H164214   2.460   6.097   2.166 -0.4649  0.6321  1.1329
14241TIP3    H264215   2.316   6.067   2.201 -1.1668  0.3742 -1.7062
14242TIP3   OH264216   6.081   2.697  12.215 -0.6228 -0.3248  0.4724
14242TIP3    H164217   6.161   2.704  12.268 -0.8335  0.4789  0.6878
14242TIP3    H264218   6.067   2.602  12.206  0.9040 -0.4977 -0.4185
14243TIP3   OH264219   3.347   6.416  12.186  0.3946  0.4171 -0.4882
14243TIP3    H164220   3.411   6.488  12.182  0.2404  0.4965 -2.1850
14243TIP3    H264221   3.317   6.406  12.096 -0.5394 -0.9413 -0.0487
14244TIP3   OH264222   6.310   4.506  14.659  0.2060 -0.7472  0.4956
14244TIP3    H164223   6.392   4.511  14.709  0.0550  0.3197  0.6483
14244TIP3    H264224   6.338   4.484  14.570  0.7850  0.8900  0.2470
14245TIP3   OH264225   1.637   0.472  15.679  0.0535 -0.4413  0.2617
14245TIP3    H164226   1.547   0.468  15.711 -0.7543  1.5188 -1.5327
14245TIP3    H264227   1.642   0.406  15.610  0.1997 -0.9325  0.7277
14246TIP3   OH264228   3.533   0.442  13.402 -0.1949 -0.7356 -0.0340
14246TIP3    H164229   3.544   0.420  13.494  2.0583 -1.0891 -0.3444
14246TIP3    H264230   3.614   0.413  13.360 -0.6363  0.5620 -1.9120
14247TIP3   OH264231   3.151   5.883  13.357  0.3800 -0.4492  0.1712
14247TIP3    H164232   3.154   5.798  13.402  0.3066 -1.1906 -1.1865
14247TIP3    H264233   3.234   5.925  13.380 -0.2213 -0.1872  2.1098
14248TIP3   OH264234   4.784   1.416   2.448 -0.4135  0.4779  0.3207
14248TIP3    H164235   4.776   1.323   2.470 -1.1367  0.2459 -0.8402
14248TIP3    H264236   4.862   1.445   2.496  0.0711 -0.8273  0.3718
14249TIP3   OH264237   5.487   2.687   1.862  0.5357  0.2208 -0.1257
14249TIP3    H164238   5.558   2.659   1.804  0.5635  0.0485 -0.0098
14249TIP3    H264239   5.463   2.608   1.910 -0.8485 -0.1209 -1.3173
14250TIP3   OH264240   5.718   3.786   0.771  0.1300  0.6865 -0.2516
14250TIP3    H164241   5.678   3.811   0.688  1.6384 -0.9432 -1.5568
14250TIP3    H264242   5.812   3.800   0.758  0.5670 -1.2313  0.5159
14251TIP3   OH264243   3.292   0.791   2.576 -0.2290 -0.2008  0.0441
14251TIP3    H164244   3.207   0.819   2.610  0.2876 -0.0678  1.2484
14251TIP3    H264245   3.316   0.859   2.513  0.2302  1.2403  1.6978
14252TIP3   OH264246   5.469   4.181   2.113 -0.1188 -0.1495  0.1947
14252TIP3    H164247   5.546   4.234   2.133  0.5471 -0.7438 -0.7549
14252TIP3    H264248   5.411   4.241   2.066 -0.3739  0.3768  1.1555
14253TIP3   OH264249   2.862   5.828   0.122  0.0442  0.1914 -0.0270
14253TIP3    H164250   2.802   5.903   0.124  0.6619  0.8278 -2.4010
14253TIP3    H264251   2.943   5.862   0.161  0.0105  0.4738 -0.1968
14254TIP3   OH264252   2.190   4.994   0.141  0.2024 -0.1206  0.1781
14254TIP3    H164253   2.211   5.027   0.229  0.9798  0.3038 -0.1560
14254TIP3    H264254   2.142   5.066   0.100  0.7284  0.0804 -0.0909
14255TIP3   OH264255   4.056   3.531   5.120 -0.1298  0.2471  0.1623
14255TIP3    H164256   3.978   3.565   5.164  0.7767  0.2655  1.8707
14255TIP3    H264257   4.036   3.439   5.102 -0.3648  0.0939  1.1224
14256TIP3   OH264258   1.797   2.282  14.314 -0.2916  0.7048 -0.7149
14256TIP3    H164259   1.810   2.263  14.407  0.8036 -2.5080 -1.4225
14256TIP3    H264260   1.816   2.376  14.307  0.7064  0.8194  2.1064
14257TIP3   OH264261   2.478   2.308   4.654 -0.1412  0.7356  0.4305
14257TIP3    H164262   2.393   2.275   4.625  0.2177  1.4574 -1.5742
14257TIP3    H264263   2.540   2.239   4.630  0.2221  1.5396 -1.0401
14258TIP3   OH264264   5.488   2.675   0.808  0.3318 -0.3424 -0.6832
14258TIP3    H164265   5.478   2.581   0.819  0.1759 -0.1479  1.1892
14258TIP3    H264266   5.580   2.692   0.828  0.3259 -0.0813 -0.8707
14259TIP3   OH264267   0.126   6.414  15.510  0.0187 -0.1652  0.0045
14259TIP3    H164268   0.069   6.338  15.517 -0.1242  0.1222  3.2130
14259TIP3    H264269   0.067   6.489  15.524  0.3852  0.5128 -1.7771
14260TIP3   OH264270   3.808   6.786  14.607  0.0085 -0.8206 -0.0544
14260TIP3    H164271   3.782   6.715  14.547  3.0369 -3.3220  1.2973
14260TIP3    H264272   3.845   6.741  14.682  3.5611  2.1646  0.2608
14261TIP3   OH264273   1.477   4.956  16.249 -0.6412 -0.3372  0.2392
14261TIP3    H164274   1.459   4.870  16.211  1.9881 -0.1906 -1.6363
14261TIP3    H264275   1.391   4.997  16.259 -1.7807 -2.2568 -1.1064
14262TIP3   OH264276   0.566   6.029  16.504  0.3458  0.4844  0.2708
14262TIP3    H164277   0.511   5.968  16.456  0.6090  0.2943  0.2098
14262TIP3    H264278   0.524   6.114  16.492  0.6058  0.4986 -0.5884
14263TIP3   OH264279   4.589   2.099  12.959 -0.0698 -0.3557  0.4773
14263TIP3    H164280   4.664   2.052  12.923  0.2554  1.2910 -1.0983
14263TIP3    H264281   4.570   2.168  12.895 -1.7305  0.4644  1.7718
14264TIP3   OH264282   4.734   3.696   1.211  0.1151  0.2904  0.2403
14264TIP3    H164283   4.749   3.759   1.282 -0.0249  1.3750 -0.6600
14264TIP3    H264284   4.639   3.694   1.202  0.1756  2.2045 -1.6274
14265TIP3   OH264285   0.206   6.670   6.684 -0.4025  0.2113  0.1486
14265TIP3    H164286   0.279   6.608   6.688 -0.6815 -0.1423 -0.2142
14265TIP3    H264287   0.220   6.718   6.602  0.2117  1.1395  0.7626
14266TIP3   OH264288   1.153   6.700  13.758  0.8464  0.6343 -0.0789
14266TIP3    H164289   1.248   6.692  13.745  0.9237  2.0460 -0.5501
14266TIP3    H264290   1.137   6.795  13.756 -0.5598  0.4125  0.1308
14267TIP3   OH264291   5.943   1.129  16.232 -0.1010  0.3823  0.4342
14267TIP3    H164292   5.976   1.103  16.318  1.7833  1.0959 -0.0257
14267TIP3    H264293   5.992   1.076  16.170 -0.3185  0.9731 -0.2588
14268TIP3   OH264294   5.692   4.700  14.234  0.8224 -0.0031 -0.0723
14268TIP3    H164295   5.654   4.741  14.157  0.3138  2.9270  1.6017
14268TIP3    H264296   5.786   4.718  14.226  1.1032 -1.6858 -1.0488
14269TIP3   OH264297   0.486   1.949   5.073 -0.3426  0.4198  0.2287
14269TIP3    H164298   0.575   1.973   5.045 -1.1521  0.7721 -2.2510
14269TIP3    H264299   0.498   1.869   5.124  1.6049  1.7590  2.0730
14270TIP3   OH264300   3.980   2.132   0.580 -0.2359  0.0543  0.4888
14270TIP3    H164301   3.919   2.143   0.507  1.2699 -0.1453 -0.8740
14270TIP3    H264302   4.030   2.214   0.582  0.0879 -0.1511  0.9598
14271TIP3   OH264303   3.738   0.840  13.239  0.3138  0.5187 -0.0057
14271TIP3    H164304   3.754   0.927  13.275  0.5972  0.4879 -0.0586
14271TIP3    H264305   3.642   0.836  13.228  0.3504  1.0829 -0.6537
14272TIP3   OH264306   2.431   6.186   4.003  0.1760  0.6770 -0.3754
14272TIP3    H164307   2.494   6.146   4.063 -0.8518 -1.8731 -0.8845
14272TIP3    H264308   2.355   6.206   4.058 -0.6260 -1.3274 -0.6752
14273TIP3   OH264309   0.831   3.411   1.408 -0.3193 -0.2757  0.1180
14273TIP3    H164310   0.914   3.395   1.452 -0.8621 -2.2357  0.5397
14273TIP3    H264311   0.844   3.378   1.319 -0.6942 -0.7666  0.2407
14274TIP3   OH264312   5.808   5.911  14.456  0.0193  0.4517 -0.1057
14274TIP3    H164313   5.801   5.818  14.478  1.7801  0.5707  1.1848
14274TIP3    H264314   5.768   5.956  14.531  1.2589  0.7679  0.3771
14275TIP3   OH264315   4.171   6.614  14.032 -0.4240 -0.4875 -0.0225
14275TIP3    H164316   4.142   6.702  14.057  0.6450 -0.3447  0.7789
14275TIP3    H264317   4.152   6.609  13.938 -1.3915  0.2263  0.1136
14276TIP3   OH264318   1.093   5.207  15.439  0.0278 -0.7284 -0.0142
14276TIP3    H164319   1.003   5.196  15.409 -0.8331  2.2621  1.1708
14276TIP3    H264320   1.146   5.188  15.361 -1.6812 -1.0005 -1.1773
14277TIP3   OH264321   2.475   2.282   0.522 -0.2942  0.4388 -0.4109
14277TIP3    H164322   2.495   2.368   0.559  0.0482  0.1517  0.0762
14277TIP3    H264323   2.389   2.293   0.482 -0.4933  0.8606  0.1179
14278TIP3   OH264324   3.636   0.604   1.641  0.5208 -0.3167 -0.4844
14278TIP3    H164325   3.689   0.560   1.575 -0.0813  0.0285 -1.2085
14278TIP3    H264326   3.546   0.596   1.609  0.3376  0.8909 -0.3059
14279TIP3   OH264327   1.060   5.616  15.846 -0.1349 -0.2123 -0.3250
14279TIP3    H164328   0.976   5.661  15.849  0.0012  0.0224  2.0059
14279TIP3    H264329   1.051   5.544  15.909  1.5960  0.2076  0.4734
14280TIP3   OH264330   0.236   0.772   3.373 -0.2181 -0.4075  0.2377
14280TIP3    H164331   0.176   0.799   3.443  0.2175  0.5169  0.2682
14280TIP3    H264332   0.187   0.706   3.325 -0.4885 -1.1419  1.4727
14281TIP3   OH264333   6.857   0.837   2.554  0.4152  0.4889  0.3462
14281TIP3    H164334   6.925   0.771   2.567  1.6007  1.5947 -0.1066
14281TIP3    H264335   6.794   0.795   2.495  1.9163  0.2576 -1.1705
14282TIP3   OH264336   1.778   3.541  12.615  0.3526 -0.1326 -0.3468
14282TIP3    H164337   1.842   3.505  12.553 -0.5764 -0.6438 -1.0417
14282TIP3    H264338   1.720   3.467  12.635 -0.5514  0.5231 -0.4450
14283TIP3   OH264339   5.892   2.241  14.341 -0.4690 -0.7951 -0.2637
14283TIP3    H164340   5.852   2.248  14.428  1.5399 -1.8820  0.8186
14283TIP3    H264341   5.875   2.151  14.314 -2.0156 -0.1672 -1.5409
14284TIP3   OH264342   2.940   1.880  16.555 -0.6247 -1.0229 -0.6089
14284TIP3    H164343   2.886   1.838  16.623 -1.4216 -2.1160 -1.8503
14284TIP3    H264344   2.976   1.807  16.505  2.1572 -0.3312  0.2052
14285TIP3   OH264345   0.995   2.258  17.008  0.7484 -0.0483 -0.1651
14285TIP3    H164346   0.955   2.174  17.032  1.7333 -0.5859 -0.3499
14285TIP3    H264347   0.979   2.314  17.084  0.0710 -0.4016 -0.0403
14286TIP3   OH264348   6.480   0.146   0.056 -0.3990 -0.4748 -0.1281
14286TIP3    H164349   6.471   0.241   0.047 -1.6349 -0.5853 -0.1392
14286TIP3    H264350   6.569   0.134   0.091 -0.8451  0.7823  1.5647
14287TIP3   OH264351   1.411   1.378   4.960 -0.3266  0.1984 -0.2812
14287TIP3    H164352   1.423   1.325   4.882 -0.9399  0.5461 -0.6192
14287TIP3    H264353   1.455   1.461   4.940 -0.6799  0.3720 -0.3547
14288TIP3   OH264354   1.839   0.028  13.928  0.2546 -0.0225  0.3699
14288TIP3    H164355   1.746   0.052  13.933 -0.0803 -0.8274 -1.2251
14288TIP3    H264356   1.880   0.102  13.882  0.0808 -0.4034 -0.4121
14289TIP3   OH264357   5.676   5.811   4.407  0.0926  0.1508 -0.5438
14289TIP3    H164358   5.623   5.775   4.336 -0.0689 -0.0164 -0.3403
14289TIP3    H264359   5.766   5.788   4.384 -0.0408 -0.7133 -0.2286
14290TIP3   OH264360   1.569   5.846  14.790  0.1631 -0.2555  0.0956
14290TIP3    H164361   1.486   5.805  14.764 -1.1909  1.6286  1.1570
14290TIP3    H264362   1.581   5.820  14.881  1.5893 -1.7624 -0.4922
14291TIP3   OH264363   2.590   4.882   3.498 -0.7130 -0.0323 -0.2826
14291TIP3    H164364   2.606   4.934   3.577 -0.1451  0.7992 -0.9278
14291TIP3    H264365   2.496   4.865   3.501 -0.6519 -0.2827  0.7275
14292TIP3   OH264366   3.575   4.281   1.695 -0.9501  0.2918  0.5249
14292TIP3    H164367   3.544   4.314   1.779 -0.9178  0.0274  0.6439
14292TIP3    H264368   3.600   4.190   1.714 -4.7828 -1.2083 -0.6453
14293TIP3   OH264369   2.135   2.902  14.296  0.0025  0.4748  0.2978
14293TIP3    H164370   2.201   2.853  14.247  0.5425  0.5214  0.9630
14293TIP3    H264371   2.161   2.892  14.388 -0.2562  1.4449  0.4881
14294TIP3   OH264372   5.725   4.199   3.042  0.5696 -0.4665  0.7711
14294TIP3    H164373   5.752   4.255   2.969  2.4496 -0.0578  1.7409
14294TIP3    H264374   5.721   4.257   3.117  0.8619 -1.3047  1.4553
14295TIP3   OH264375   0.924   2.616   5.923  0.1683 -0.1136  0.4627
14295TIP3    H164376   0.954   2.526   5.928 -0.8726 -0.7436 -2.5115
14295TIP3    H264377   0.862   2.626   5.995  0.2594 -1.7850  0.7964
14296TIP3   OH264378   1.233   6.606   6.594 -0.0358 -0.3838 -0.5175
14296TIP3    H164379   1.316   6.588   6.551  0.5950 -0.3992  0.6652
14296TIP3    H264380   1.203   6.688   6.556  1.0133  0.1298 -0.2641
14297TIP3   OH264381   0.701   5.784  14.700  0.2595  0.1798 -0.0001
14297TIP3    H164382   0.750   5.816  14.775  0.7232 -4.0512  1.8208
14297TIP3    H264383   0.610   5.806  14.720  0.5013  0.1266  1.2740
14298TIP3   OH264384   1.064   3.959  13.618 -0.0047 -0.1425  0.6553
14298TIP3    H164385   1.015   4.039  13.636 -0.2112  0.0031 -0.4696
14298TIP3    H264386   1.026   3.925  13.536 -2.3095 -3.2546  2.7771
14299TIP3   OH264387   0.826   2.824   5.548  0.3762 -0.4436 -0.4937
14299TIP3    H164388   0.840   2.834   5.454  1.4863  1.2459 -0.1908
14299TIP3    H264389   0.869   2.741   5.570  1.5769 -0.0348 -1.2092
14300TIP3   OH264390   5.965   6.828   3.769  0.4393 -0.0963  0.2289
14300TIP3    H164391   5.894   6.875   3.813 -1.0829 -2.0783  0.0588
14300TIP3    H264392   5.959   6.857   3.678 -0.9250 -1.0176 -0.0161
14301TIP3   OH264393   6.878   2.286  15.552  1.0331 -0.7659  0.0670
14301TIP3    H164394   6.826   2.209  15.529  1.0904 -0.4595 -1.1334
14301TIP3    H264395   6.904   2.271  15.643 -0.7188 -1.1572  0.5325
14302TIP3   OH264396   1.597   3.559  12.051 -0.0995 -0.0835 -0.6070
14302TIP3    H164397   1.594   3.633  11.991  0.4613 -0.1702 -0.7456
14302TIP3    H264398   1.687   3.529  12.048 -0.8152 -2.3753 -2.5320
14303TIP3   OH264399   5.424   3.232  12.816 -0.1011  0.0819 -0.4668
14303TIP3    H164400   5.457   3.168  12.753 -1.7017 -1.0710 -0.2028
14303TIP3    H264401   5.390   3.303  12.762 -1.1384 -0.7377 -0.9278
14304TIP3   OH264402   5.312   5.086  10.783 -0.7389 -0.3485  0.2592
14304TIP3    H164403   5.236   5.070  10.728  0.9928 -1.3951 -2.0316
14304TIP3    H264404   5.311   5.015  10.848 -1.7040 -0.3291  0.2730
14305TIP3   OH264405   4.822   2.170  10.550 -0.2902  0.3823 -0.3612
14305TIP3    H164406   4.849   2.259  10.526  3.9440 -0.4690  0.3833
14305TIP3    H264407   4.873   2.114  10.492 -1.6095 -1.5917  0.3142
14306TIP3   OH264408   3.763   3.661  16.026  0.4019 -0.1439  0.1841
14306TIP3    H164409   3.685   3.685  15.976  0.2328 -3.9094 -1.7308
14306TIP3    H264410   3.827   3.635  15.959  2.5308  0.6094  1.7998
14307TIP3   OH264411   2.861   3.753  10.903 -0.0412  0.1199  0.0839
14307TIP3    H164412   2.819   3.826  10.857  0.8334 -0.1606 -1.2093
14307TIP3    H264413   2.915   3.711  10.836  1.1831 -0.3859  1.3564
14308TIP3   OH264414   2.121   5.473  16.807  0.3621  0.1418  0.9069
14308TIP3    H164415   2.044   5.510  16.851 -0.3675 -0.5522  0.2442
14308TIP3    H264416   2.121   5.516  16.721  1.6592  1.3384  1.4613
14309TIP3   OH264417   1.807   3.112   1.024 -0.0947 -0.0031  0.3567
14309TIP3    H164418   1.748   3.143   1.093  2.4872  2.2349  1.7744
14309TIP3    H264419   1.813   3.017   1.038 -2.8480 -0.2672  0.4141
14310TIP3   OH264420   2.659   4.213  15.099  0.4504 -0.4891  0.5145
14310TIP3    H164421   2.596   4.223  15.171 -2.2571 -1.1189 -1.5960
14310TIP3    H264422   2.706   4.296  15.097 -2.8593  1.5682  0.0185
14311TIP3   OH264423   5.413   5.341  14.721  0.5502  0.6142  0.2808
14311TIP3    H164424   5.319   5.323  14.725  0.8894 -1.9899 -1.0681
14311TIP3    H264425   5.419   5.433  14.698 -1.7936  0.3092 -2.0086
14312TIP3   OH264426   5.924   3.975  13.555  0.2631 -0.2073  0.1605
14312TIP3    H164427   6.019   3.969  13.566  0.1343 -0.7771  1.0503
14312TIP3    H264428   5.905   4.068  13.567  0.6134 -0.2209  0.8983
14313TIP3   OH264429   3.721   5.555   2.516 -0.2368 -0.0324 -0.4226
14313TIP3    H164430   3.759   5.641   2.499  1.3513 -0.3666  1.1201
14313TIP3    H264431   3.718   5.548   2.612 -0.7011 -1.5307 -0.5184
14314TIP3   OH264432   1.940   4.063  11.091  0.1285  0.0706  0.0487
14314TIP3    H164433   1.891   4.139  11.123  0.5218 -0.0037  0.8587
14314TIP3    H264434   2.030   4.095  11.082 -0.1807  0.4397 -2.2202
14315TIP3   OH264435   4.768   4.640  11.661 -0.2994 -0.6798  0.4182
14315TIP3    H164436   4.736   4.673  11.745 -0.4236 -1.8920  0.8648
14315TIP3    H264437   4.864   4.642  11.670 -0.2766  0.5037  0.0517
14316TIP3   OH264438   6.326   4.247   2.819  0.2619 -0.0925  0.4173
14316TIP3    H164439   6.397   4.185   2.802  1.3748  0.9281  1.2247
14316TIP3    H264440   6.247   4.193   2.821  0.8426 -1.1193 -1.5407
14317TIP3   OH264441   6.075   0.906   5.307  0.9024 -0.1647  0.0506
14317TIP3    H164442   6.119   0.990   5.290 -1.6132  0.9995 -1.2330
14317TIP3    H264443   6.105   0.881   5.395  2.7830  1.3354 -0.0792
14318TIP3   OH264444   1.024   1.242   1.710  0.0328 -0.4000  0.7060
14318TIP3    H164445   1.034   1.334   1.731 -0.6379  0.5389 -2.4887
14318TIP3    H264446   0.929   1.228   1.709 -0.0484 -0.2291 -1.6532
14319TIP3   OH264447   0.523   4.994  11.492  0.6495  0.2761  0.1520
14319TIP3    H164448   0.478   5.003  11.408  0.2197  1.9769  0.5397
14319TIP3    H264449   0.613   5.020  11.474  0.6579  0.2428  0.1447
14320TIP3   OH264450   5.667   1.828  13.744  0.4073 -0.4959  0.1459
14320TIP3    H164451   5.694   1.763  13.679  1.6459  0.4793 -0.3510
14320TIP3    H264452   5.683   1.785  13.829  1.0891 -0.8794 -0.1734
14321TIP3   OH264453   4.097   1.736  14.274 -0.3018  0.3614  0.4896
14321TIP3    H164454   4.006   1.707  14.282 -0.7389  1.1942 -1.0343
14321TIP3    H264455   4.091   1.827  14.245  1.0333  0.8335  1.6200
14322TIP3   OH264456   0.031   5.815  16.165 -0.1610  0.1379 -0.0831
14322TIP3    H164457   0.095   5.809  16.093  0.1912  1.0817  0.1318
14322TIP3    H264458   0.055   5.895  16.211  0.1563 -0.9094  1.6313
14323TIP3   OH264459   2.615   1.613   5.604  0.1575  0.1260 -0.0355
14323TIP3    H164460   2.611   1.556   5.527 -1.5868 -2.5462  1.8338
14323TIP3    H264461   2.544   1.582   5.661  1.7374  1.5033  2.9543
14324TIP3   OH264462   2.179   4.523   5.591  0.4430  0.3812 -0.0575
14324TIP3    H164463   2.259   4.505   5.640 -1.5370 -2.9353  2.3521
14324TIP3    H264464   2.135   4.593   5.640  1.4673  1.7821 -1.0492
14325TIP3   OH264465   5.778   5.423  14.986 -0.1322 -0.3239 -1.0566
14325TIP3    H164466   5.787   5.507  14.942  0.6217 -1.4179 -3.0819
14325TIP3    H264467   5.695   5.387  14.954 -0.0290 -0.7311 -0.8825
14326TIP3   OH264468   0.448   0.821  13.930  0.1857 -0.0457 -0.0661
14326TIP3    H164469   0.394   0.788  14.001 -1.6919 -1.5460 -2.0521
14326TIP3    H264470   0.413   0.909  13.912  1.8281  1.1078  1.8798
14327TIP3   OH264471   3.732   1.778   0.898  0.1661  0.5736 -0.2435
14327TIP3    H164472   3.758   1.711   0.962  1.0226  0.0919 -1.0564
14327TIP3    H264473   3.800   1.845   0.904 -0.3896  1.1052  0.1757
14328TIP3   OH264474   6.809   6.705   2.841  0.0299 -0.6125  0.0788
14328TIP3    H164475   6.740   6.693   2.906  0.7823 -3.0145  0.5286
14328TIP3    H264476   6.822   6.800   2.838 -2.1757 -0.1999  1.1074
14329TIP3   OH264477   1.320   5.856  16.765 -0.5057 -0.1584  0.0972
14329TIP3    H164478   1.306   5.920  16.835 -1.7028 -2.2658  1.8751
14329TIP3    H264479   1.387   5.797  16.799  1.3912  0.6172 -1.9557
14330TIP3   OH264480   2.452   0.063   1.284  0.2997  0.0412  0.3206
14330TIP3    H164481   2.491   0.005   1.219  1.9552  1.0322  0.3503
14330TIP3    H264482   2.461   0.015   1.367 -0.9572 -0.8230 -0.0154
14331TIP3   OH264483   2.246   2.659   1.525  0.1325  0.2111 -0.0075
14331TIP3    H164484   2.175   2.601   1.495  0.4432 -0.2026  0.0376
14331TIP3    H264485   2.325   2.604   1.521  0.3173  0.4079  0.7484
14332TIP3   OH264486   5.816   4.408  16.782  0.1636 -0.1024  0.2852
14332TIP3    H164487   5.753   4.369  16.721  0.4983  0.2673 -0.3094
14332TIP3    H264488   5.767   4.475  16.829 -0.3248 -0.9904  1.0588
14333TIP3   OH264489   6.771   5.269  10.552  0.9973  0.0905 -0.1833
14333TIP3    H164490   6.737   5.336  10.610  0.0252  0.6239 -1.3407
14333TIP3    H264491   6.795   5.197  10.610  0.8943  0.9471  0.9493
14334TIP3   OH264492   5.328   1.117   4.609 -0.1734 -1.0134  1.1846
14334TIP3    H164493   5.338   1.058   4.534 -2.3906 -1.1605  0.9386
14334TIP3    H264494   5.413   1.161   4.616  0.6811 -2.3214 -0.2573
14335TIP3   OH264495   2.091   6.329   3.945 -0.0599 -0.2421  0.5536
14335TIP3    H164496   2.162   6.362   4.000 -0.0382  0.1361  0.2956
14335TIP3    H264497   2.048   6.263   4.000 -0.1542  0.2607  1.0983
14336TIP3   OH264498   4.804   0.975   3.559 -0.5795 -0.0276 -0.3918
14336TIP3    H164499   4.886   0.940   3.593  0.3709  2.0426 -0.4114
14336TIP3    H264500   4.807   0.959   3.465  0.0831  0.5331 -0.4722
14337TIP3   OH264501   5.422   1.286  15.891  0.1579  0.4589 -0.1948
14337TIP3    H164502   5.514   1.307  15.911 -0.3569  2.1825  0.5889
14337TIP3    H264503   5.372   1.341  15.951 -1.3978 -0.1980 -0.8562
14338TIP3   OH264504   6.126   5.002  14.277  0.2227  0.2276  0.8758
14338TIP3    H164505   6.209   5.047  14.289 -0.8586  1.8972  2.6626
14338TIP3    H264506   6.078   5.016  14.359 -0.9158 -2.7408  0.8494
14339TIP3   OH264507   0.070   6.834  11.604 -0.2827 -0.0723 -0.3589
14339TIP3    H164508   0.057   6.807  11.513  1.3692 -0.0180 -0.6419
14339TIP3    H264509   0.100   6.925  11.598 -2.3542  0.7326  0.4055
14340TIP3   OH264510   3.496   6.630  12.410  0.1077 -0.0112 -0.2766
14340TIP3    H164511   3.505   6.645  12.316  0.1161  1.9344 -0.0036
14340TIP3    H264512   3.465   6.714  12.445  2.2040  0.0178  1.7394
14341TIP3   OH264513   6.483   6.767  11.113 -0.0759 -0.3714 -0.3133
14341TIP3    H164514   6.407   6.782  11.057 -0.2040  0.1693 -0.0017
14341TIP3    H264515   6.552   6.740  11.053  0.2422  1.7303 -0.9672
14342TIP3   OH264516   4.242   5.164   1.806  0.1369 -0.2582  0.0800
14342TIP3    H164517   4.242   5.259   1.819  0.2980 -0.4138  1.3704
14342TIP3    H264518   4.232   5.128   1.894  0.5667 -1.4492 -0.3397
14343TIP3   OH264519   2.527   4.333   2.137 -0.9714 -0.1237 -0.1433
14343TIP3    H164520   2.478   4.289   2.068  0.1241 -0.2993 -0.8218
14343TIP3    H264521   2.586   4.393   2.091 -0.3089 -0.1543  0.6379
14344TIP3   OH264522   0.061   2.511   1.206  0.1440 -0.3729  0.0834
14344TIP3    H164523   0.014   2.436   1.170  0.0429  0.0144 -0.6046
14344TIP3    H264524   0.148   2.477   1.227  0.4109 -0.4658 -1.0990
14345TIP3   OH264525   4.246   4.258   1.290 -0.4037  0.4798  0.0629
14345TIP3    H164526   4.269   4.289   1.377 -2.0032 -0.7992  1.0040
14345TIP3    H264527   4.151   4.271   1.285 -1.0331 -3.1590  0.1531
14346TIP3   OH264528   0.862   0.838   0.347 -0.0830  0.4678 -0.7527
14346TIP3    H164529   0.772   0.868   0.364  0.0923  0.1451  0.8895
14346TIP3    H264530   0.852   0.767   0.285 -1.1328 -0.5612  0.5471
14347TIP3   OH264531   4.327   0.786  14.327  0.3346  0.1135 -0.2432
14347TIP3    H164532   4.396   0.839  14.365  0.1556  0.0255  0.2155
14347TIP3    H264533   4.256   0.789  14.391  1.0814 -2.3923  0.8598
14348TIP3   OH264534   1.662   5.418  15.624  0.6354 -0.5662 -0.1462
14348TIP3    H164535   1.743   5.460  15.650  0.2438 -1.7902  3.5599
14348TIP3    H264536   1.688   5.330  15.597  0.6048 -0.8516  0.7311
14349TIP3   OH264537   5.739   5.230   2.691  0.6145 -0.1445  0.4997
14349TIP3    H164538   5.649   5.261   2.690  0.7935  0.3989 -0.4348
14349TIP3    H264539   5.791   5.308   2.672  1.3048 -0.4018  1.2662
14350TIP3   OH264540   4.123   4.377   3.445 -0.2482 -0.1463 -0.5450
14350TIP3    H164541   4.055   4.415   3.389 -0.5518 -0.0767 -0.1333
14350TIP3    H264542   4.184   4.449   3.460 -1.3071  0.4723  0.9996
14351TIP3   OH264543   4.245   0.219   1.226 -0.1181 -0.3718  0.6091
14351TIP3    H164544   4.158   0.240   1.260 -0.4764 -1.6244  0.5305
14351TIP3    H264545   4.291   0.179   1.300 -0.3331 -1.6002  0.1043
14352TIP3   OH264546   4.368   1.165  11.600 -0.2187 -0.0075 -0.0353
14352TIP3    H164547   4.354   1.097  11.535  1.1014  0.3280 -0.7129
14352TIP3    H264548   4.358   1.247  11.552  1.3827  0.2393  0.0039
14353TIP3   OH264549   0.960   4.500  15.183 -1.1073 -0.5240  0.1472
14353TIP3    H164550   0.922   4.547  15.257 -2.9098 -1.0820 -0.3677
14353TIP3    H264551   0.890   4.442  15.153  1.2699 -4.3497  1.3281
14354TIP3   OH264552   0.565   4.692  16.533  0.4178  0.4662 -0.3868
14354TIP3    H164553   0.589   4.602  16.553  0.7554  0.1369 -2.1103
14354TIP3    H264554   0.635   4.744  16.573 -0.6864  0.1497  2.1402
14355TIP3   OH264555   2.377   5.689   6.271 -0.3369 -0.3760  0.1476
14355TIP3    H164556   2.380   5.784   6.283 -0.1196 -0.3115 -0.3656
14355TIP3    H264557   2.436   5.673   6.198  0.9511 -1.0945  1.3092
14356TIP3   OH264558   3.766   4.528  13.321 -0.1127 -0.4510 -0.6482
14356TIP3    H164559   3.707   4.482  13.382 -0.5872  0.2068 -0.5966
14356TIP3    H264560   3.791   4.608  13.368  0.6623 -0.6198 -0.7563
14357TIP3   OH264561   1.701   4.196  15.003 -0.2659  0.5567 -0.3249
14357TIP3    H164562   1.744   4.124  14.957  0.1282  0.4463  0.2126
14357TIP3    H264563   1.642   4.234  14.938 -0.9016 -0.6118 -0.4532
14358TIP3   OH264564   5.867   4.645   4.643  0.2185  0.6038 -0.1493
14358TIP3    H164565   5.920   4.720   4.618 -0.5378  0.6021 -1.9420
14358TIP3    H264566   5.930   4.574   4.658  0.8186  1.0676 -0.4504
14359TIP3   OH264567   0.249   1.641   0.073 -0.2856 -0.0155  0.1806
14359TIP3    H164568   0.186   1.633   0.002 -0.2334  0.7691  0.0416
14359TIP3    H264569   0.198   1.623   0.153 -0.5884  0.1835  0.0338
14360TIP3   OH264570   6.554   2.694  14.351 -0.1060 -0.2621 -0.0676
14360TIP3    H164571   6.476   2.697  14.295 -0.7792  1.2994  0.8510
14360TIP3    H264572   6.531   2.632  14.420  1.0231 -2.7784 -1.8428
14361TIP3   OH264573   3.563   5.629   0.666  0.5229  0.0323 -0.4496
14361TIP3    H164574   3.601   5.658   0.749  1.7665  1.9112 -1.5853
14361TIP3    H264575   3.611   5.548   0.645 -0.2098 -0.7891  0.8868
14362TIP3   OH264576   5.496   0.493   2.826 -0.4831 -0.3120  0.4046
14362TIP3    H164577   5.459   0.436   2.759 -0.5407  0.5733 -0.3223
14362TIP3    H264578   5.579   0.450   2.850 -1.2968 -1.5786  1.0826
14363TIP3   OH264579   1.040   2.285  16.075 -0.2961  0.4680 -0.6329
14363TIP3    H164580   1.012   2.285  15.984  1.5801  0.9410 -1.2629
14363TIP3    H264581   0.972   2.236  16.122 -1.4578  0.5054 -2.2180
14364TIP3   OH264582   2.064   1.119   2.963 -0.0757  0.1823 -0.0991
14364TIP3    H164583   1.995   1.074   3.012 -0.6545 -0.1237 -1.1728
14364TIP3    H264584   2.122   1.049   2.934 -0.2955  0.2489 -0.7130
14365TIP3   OH264585   1.782   2.440  15.799 -0.3764  0.0768 -0.2095
14365TIP3    H164586   1.766   2.441  15.893 -1.2952 -0.0708 -0.3543
14365TIP3    H264587   1.852   2.375  15.787 -1.1484 -0.8681  0.2483
14366TIP3   OH264588   2.948   5.039  12.526  0.8519 -0.4051  0.1398
14366TIP3    H164589   2.990   4.969  12.575 -0.5026 -0.0573  1.9112
14366TIP3    H264590   2.859   5.043  12.561  0.2976  0.8981 -1.3010
14367TIP3   OH264591   4.657   1.860   2.469  0.4185 -0.0189 -0.4153
14367TIP3    H164592   4.665   1.954   2.453  2.1874 -0.3528 -1.7950
14367TIP3    H264593   4.742   1.834   2.505  1.2396 -1.6392 -3.2529
14368TIP3   OH264594   2.279   5.579   2.769 -0.4282  0.5310 -0.1985
14368TIP3    H164595   2.221   5.503   2.759  0.8943 -0.2573 -2.7325
14368TIP3    H264596   2.326   5.562   2.850 -1.4709 -0.4198  0.2389
14369TIP3   OH264597   0.518   0.400  16.405  0.0160 -0.0934  0.0425
14369TIP3    H164598   0.488   0.489  16.423 -0.7281 -0.2796 -0.2531
14369TIP3    H264599   0.595   0.412  16.350 -0.6042  0.3590 -0.7502
14370TIP3   OH264600   6.576   0.261  12.896 -0.2109 -0.1506 -0.5459
14370TIP3    H164601   6.487   0.292  12.912  0.2089  0.5696  0.4619
14370TIP3    H264602   6.568   0.166  12.893 -0.9117 -0.1253  0.2518
14371TIP3   OH264603   4.061   0.491  11.352 -0.4052 -0.0194  0.6138
14371TIP3    H164604   4.070   0.531  11.266  1.0349 -1.8659 -0.1594
14371TIP3    H264605   4.135   0.527  11.402  0.1124 -0.6580  0.3292
14372TIP3   OH264606   2.735   2.848   2.132  0.3070 -0.5909  0.2442
14372TIP3    H164607   2.790   2.870   2.207  3.4870 -1.6412 -1.6137
14372TIP3    H264608   2.781   2.884   2.056 -1.5209 -1.6473 -1.4811
14373TIP3   OH264609   5.275   3.406   4.037  0.0038  0.2706  0.2694
14373TIP3    H164610   5.210   3.430   4.103 -0.0572  0.5070  0.1216
14373TIP3    H264611   5.256   3.462   3.962  0.2786  0.2310  0.1678
14374TIP3   OH264612   3.257   0.125  16.453 -0.6143 -0.1283 -0.0056
14374TIP3    H164613   3.187   0.061  16.461 -1.4407  0.5949 -1.0929
14374TIP3    H264614   3.305   0.099  16.374 -0.0520 -0.2392  0.3639
14375TIP3   OH264615   6.656   3.771  16.946  0.5714 -0.2377  0.2878
14375TIP3    H164616   6.600   3.730  17.012  0.1300 -1.1946 -0.6541
14375TIP3    H264617   6.745   3.755  16.977  0.3546  0.2320  1.1758
14376TIP3   OH264618   6.731   2.180   5.822  0.1479  0.5585  0.5979
14376TIP3    H164619   6.669   2.225   5.765  0.7509  1.4464  0.6275
14376TIP3    H264620   6.695   2.189   5.910 -0.1774  0.2142  0.5036
14377TIP3   OH264621   2.607   3.487   3.921  0.4630 -0.0096 -0.0916
14377TIP3    H164622   2.647   3.570   3.948 -0.5508  0.0892  1.2629
14377TIP3    H264623   2.654   3.420   3.970  0.3087 -0.0866 -0.0459
14378TIP3   OH264624   2.872   2.115  16.222 -0.6076  0.1427  0.8818
14378TIP3    H164625   2.834   2.126  16.309 -2.7690  0.6030 -0.0572
14378TIP3    H264626   2.914   2.199  16.203 -0.8693  0.3316  1.1349
14379TIP3   OH264627   3.347   3.769  15.493 -0.0004  0.3665 -0.4673
14379TIP3    H164628   3.425   3.808  15.454 -0.2687  0.8793 -0.4938
14379TIP3    H264629   3.377   3.732  15.576  0.3202  0.3374 -0.5964
14380TIP3   OH264630   2.837   2.709   3.086  0.3486 -0.2111 -0.0921
14380TIP3    H164631   2.883   2.788   3.114 -1.5668  0.8283  0.2801
14380TIP3    H264632   2.806   2.669   3.167 -0.5514 -0.1488 -0.3957
14381TIP3   OH264633   3.893   0.093  12.964  0.1096  0.1229  0.3582
14381TIP3    H164634   3.804   0.063  12.983  0.6624 -0.5314  2.0806
14381TIP3    H264635   3.934   0.102  13.050  1.0320  2.6268 -0.2697
14382TIP3   OH264636   2.214   1.976   3.791  0.2618 -0.3424 -0.1416
14382TIP3    H164637   2.211   2.054   3.847  0.4746  0.4711 -1.2201
14382TIP3    H264638   2.296   1.985   3.742  0.2601 -1.2246 -0.3260
14383TIP3   OH264639   4.010   0.290   2.794  0.9046 -1.0693  0.7043
14383TIP3    H164640   4.042   0.308   2.706 -0.6140 -0.7299  0.1819
14383TIP3    H264641   3.998   0.195   2.797 -0.2030 -0.9583  0.1016
14384TIP3   OH264642   3.173   4.365  12.791 -0.3279 -0.1073 -0.0164
14384TIP3    H164643   3.139   4.451  12.769  0.4227  0.6427  1.6042
14384TIP3    H264644   3.227   4.341  12.715 -1.2063  0.4477 -0.8458
14385TIP3   OH264645   6.853   1.889   5.931  1.0459  0.0003  0.0970
14385TIP3    H164646   6.785   1.956   5.934  0.3497 -0.7383  1.9157
14385TIP3    H264647   6.903   1.901   6.011  1.3042 -1.2640  0.1406
14386TIP3   OH264648   5.380   1.202  10.401  0.8693  0.2168 -0.6919
14386TIP3    H164649   5.476   1.208  10.396  1.0288 -1.0044  0.4912
14386TIP3    H264650   5.363   1.117  10.441 -0.7416  0.2530 -1.2333
14387TIP3   OH264651   6.674   5.329  11.577 -0.3566  0.0746  0.4934
14387TIP3    H164652   6.630   5.292  11.654 -0.0097  2.3195  1.8785
14387TIP3    H264653   6.733   5.260  11.547 -0.5933 -0.9147  2.1890
14388TIP3   OH264654   6.404   6.676  11.407  0.6625  0.2241 -0.7664
14388TIP3    H164655   6.440   6.665  11.320  1.6084 -3.1079 -0.0805
14388TIP3    H264656   6.316   6.639  11.402  0.3661  0.8541 -0.4769
14389TIP3   OH264657   4.877   0.394   0.342  0.0490  0.1128  0.1084
14389TIP3    H164658   4.889   0.396   0.437 -3.2812  0.7058  0.6372
14389TIP3    H264659   4.892   0.484   0.313  0.6164  0.0260  0.1235
14390TIP3   OH264660   1.767   2.173  12.573  0.0208 -0.3500 -0.1354
14390TIP3    H164661   1.774   2.101  12.636 -2.3595  0.7444  1.5559
14390TIP3    H264662   1.832   2.236  12.602  1.7637 -1.5125 -1.3191
14391TIP3   OH264663   2.076   4.912  10.828 -0.4919 -0.3101 -0.1800
14391TIP3    H164664   2.151   4.972  10.828  0.0532 -0.9521  1.3749
14391TIP3    H264665   2.014   4.952  10.766  0.7295  0.7258 -0.7829
14392TIP3   OH264666   2.744   1.700   3.669  0.3209 -0.1693 -0.9036
14392TIP3    H164667   2.753   1.780   3.618  3.5335 -0.0728 -0.3955
14392TIP3    H264668   2.716   1.634   3.605 -3.6350  1.4488 -1.0965
14393TIP3   OH264669   1.962   0.990   0.791 -0.6319 -0.0746  0.6655
14393TIP3    H164670   1.997   0.961   0.707 -1.0656 -0.9918  0.7874
14393TIP3    H264671   1.900   0.922   0.816 -0.4589  0.1461  1.7634
14394TIP3   OH264672   4.204   2.938   2.850  0.2167  0.0501 -0.0330
14394TIP3    H164673   4.272   2.926   2.916 -0.3230 -1.1521  0.3283
14394TIP3    H264674   4.139   2.995   2.892  0.0649 -0.3909  0.3338
14395TIP3   OH264675   2.003   4.024   3.835 -0.2469 -0.2618  0.1946
14395TIP3    H164676   1.958   3.940   3.844 -0.2565 -0.2892 -0.1156
14395TIP3    H264677   1.934   4.089   3.848 -0.5064 -0.3006 -0.8820
14396TIP3   OH264678   3.246   1.452   3.890 -0.3285 -0.2463  0.2952
14396TIP3    H164679   3.154   1.476   3.879 -0.8531 -1.8802  0.9171
14396TIP3    H264680   3.264   1.391   3.818  0.6167  0.9021 -0.4921
14397TIP3   OH264681   2.581   0.606  16.804  0.7211 -0.4896  0.0416
14397TIP3    H164682   2.626   0.530  16.768  1.4245  1.0667 -2.7070
14397TIP3    H264683   2.650   0.673  16.812 -0.4636  0.9791 -1.2772
14398TIP3   OH264684   1.002   4.078   0.920  0.7544 -0.2393 -0.0676
14398TIP3    H164685   0.911   4.088   0.893  0.5725 -3.4090 -1.0238
14398TIP3    H264686   1.053   4.108   0.844  0.5287  0.8211  0.1828
14399TIP3   OH264687   2.825   5.215   3.980  0.1911 -0.3420  0.2526
14399TIP3    H164688   2.820   5.128   4.021 -0.2169 -0.2375  0.4289
14399TIP3    H264689   2.734   5.244   3.974  0.3976  0.5703  1.2843
14400TIP3   OH264690   0.515   0.228   3.224 -0.1536  1.1663  0.0864
14400TIP3    H164691   0.454   0.172   3.272  0.4502  0.2202 -0.2251
14400TIP3    H264692   0.562   0.277   3.291  1.5105 -0.9934  0.5995
14401TIP3   OH264693   6.014   2.196   2.740  0.0551 -0.4253 -0.2652
14401TIP3    H164694   6.105   2.223   2.725 -0.3906  1.2264 -0.1649
14401TIP3    H264695   5.962   2.248   2.678 -0.9739  0.0627  0.9500
14402TIP3   OH264696   4.218   4.434   2.333  0.9640  0.1044 -0.0262
14402TIP3    H164697   4.159   4.460   2.262  0.4413 -1.1887 -0.0853
14402TIP3    H264698   4.303   4.425   2.291  0.8443  0.2297 -0.2994
14403TIP3   OH264699   0.280   0.428   0.453 -0.5153 -0.2317 -0.5065
14403TIP3    H164700   0.356   0.455   0.504 -1.6228 -0.8114  1.6051
14403TIP3    H264701   0.305   0.442   0.362  0.8718  2.7787  0.2129
14404TIP3   OH264702   6.383   0.298   2.790 -0.0849 -0.3686  0.3626
14404TIP3    H164703   6.406   0.207   2.810  0.0928 -0.2199  0.8548
14404TIP3    H264704   6.329   0.326   2.864 -2.0775 -0.7728 -0.8527
14405TIP3   OH264705   1.459   2.778   1.848 -0.0189  0.0643 -0.0886
14405TIP3    H164706   1.420   2.858   1.882 -1.9340 -0.3214 -1.2382
14405TIP3    H264707   1.488   2.731   1.926  0.0758  1.3214  0.6705
14406TIP3   OH264708   4.067   4.521   2.885  0.6805  0.3833  0.3531
14406TIP3    H164709   4.081   4.432   2.919  1.9865  0.3907 -0.0982
14406TIP3    H264710   4.155   4.559   2.882  0.5341  0.6837 -2.1428
14407TIP3   OH264711   0.647   5.689  15.399 -0.1126  0.8160  0.3131
14407TIP3    H164712   0.711   5.737  15.346  1.2698  0.2720  1.4361
14407TIP3    H264713   0.694   5.665  15.478 -1.0899 -1.4292  0.2936
14408TIP3   OH264714   5.063   2.539  13.411 -0.4472 -0.3013  0.1004
14408TIP3    H164715   5.098   2.509  13.327  0.3412  1.5787 -0.3010
14408TIP3    H264716   4.997   2.603  13.387  0.0429  0.5196  0.9003
14409TIP3   OH264717   1.309   4.003   1.226  0.5501  0.0805  0.4879
14409TIP3    H164718   1.339   4.046   1.146  1.9894 -0.9612  0.4325
14409TIP3    H264719   1.250   3.934   1.194  1.4976 -0.6447  0.2673
14410TIP3   OH264720   4.925   6.381   1.554 -0.3765  0.1402 -0.1286
14410TIP3    H164721   4.969   6.347   1.632  0.4904 -1.3150 -1.1882
14410TIP3    H264722   4.996   6.415   1.499 -0.9558  1.0071 -0.3638
14411TIP3   OH264723   6.312   1.907  14.095 -0.5065  0.1023 -0.3466
14411TIP3    H164724   6.282   1.975  14.035  1.3526  1.7452  0.4567
14411TIP3    H264725   6.395   1.878  14.059 -0.1960 -0.1181  0.5187
14412TIP3   OH264726   3.211   2.234   2.089  0.2675 -0.2389  0.3322
14412TIP3    H164727   3.269   2.241   2.013  1.6421 -0.7406  1.3040
14412TIP3    H264728   3.225   2.314   2.138  0.2913 -0.4530  0.6788
14413TIP3   OH264729   1.448   2.474   6.497 -0.0909 -0.1885 -0.1509
14413TIP3    H164730   1.507   2.400   6.478  0.5812  0.6200 -1.3386
14413TIP3    H264731   1.404   2.449   6.578  0.4710 -1.6830 -0.2723
14414TIP3   OH264732   5.080   1.422   4.319  0.0279 -0.1648  0.2296
14414TIP3    H164733   5.073   1.486   4.391  2.8236  0.0920  0.3789
14414TIP3    H264734   5.089   1.338   4.363  0.5499 -0.1466  0.1632
14415TIP3   OH264735   1.258   1.916   4.875 -0.1408 -0.1377 -0.5791
14415TIP3    H164736   1.181   1.900   4.819 -0.1728  2.1999 -1.3262
14415TIP3    H264737   1.222   1.960   4.952  0.3389  0.2763 -0.5852
14416TIP3   OH264738   2.195   2.190  16.863 -0.4131  0.7316  0.0496
14416TIP3    H164739   2.121   2.240  16.898 -1.6373 -0.5298 -0.6176
14416TIP3    H264740   2.261   2.256  16.842 -0.5844  1.7504  2.3468
14417TIP3   OH264741   2.476   4.624   3.211 -0.2064  0.3691  0.7958
14417TIP3    H164742   2.501   4.642   3.120  0.8824 -0.0134  1.0031
14417TIP3    H264743   2.509   4.536   3.228 -2.5560 -0.5983  0.8219
14418TIP3   OH264744   4.889   0.809   4.227  0.0315  0.4529 -0.4180
14418TIP3    H164745   4.936   0.732   4.196 -1.7709 -0.2747 -1.4506
14418TIP3    H264746   4.797   0.785   4.222 -0.5139  2.1356  0.7426
14419TIP3   OH264747   1.346   0.230   1.315  0.3763 -0.2030 -0.1683
14419TIP3    H164748   1.361   0.146   1.271  2.0510 -0.2004  0.3118
14419TIP3    H264749   1.315   0.288   1.245  3.2125 -0.1353 -1.5354
14420TIP3   OH264750   4.600   6.242  10.247 -0.6199  0.3414 -0.1605
14420TIP3    H164751   4.627   6.280  10.331  0.4552 -0.4266 -0.1267
14420TIP3    H264752   4.597   6.316  10.186  1.0074  0.5828 -0.0040
14421TIP3   OH264753   4.998   3.076  15.729 -0.2225  0.0609  0.5119
14421TIP3    H164754   4.989   2.984  15.706  0.2296 -0.0332  0.6838
14421TIP3    H264755   4.980   3.079  15.823 -1.2825  0.3188  0.3073
14422TIP3   OH264756   4.554   3.164   1.278 -0.2501 -0.3169 -0.1329
14422TIP3    H164757   4.549   3.150   1.373  0.0207  1.4727  0.1702
14422TIP3    H264758   4.615   3.236   1.268 -1.1385  0.2567 -1.6111
14423TIP3   OH264759   2.367   3.699   0.112 -0.0242 -0.1606 -0.4672
14423TIP3    H164760   2.416   3.728   0.035 -0.5952 -0.1651 -0.8392
14423TIP3    H264761   2.363   3.776   0.169  0.4119 -0.1625 -0.4298
14424TIP3   OH264762   0.208   5.001  12.778 -0.1032 -0.6961 -0.4335
14424TIP3    H164763   0.266   4.991  12.853  1.0828  2.0708 -0.8600
14424TIP3    H264764   0.123   4.971  12.809  0.7452 -1.3707  1.3806
14425TIP3   OH264765   3.653   0.083  11.810  0.1451  0.3100  0.0750
14425TIP3    H164766   3.607   0.001  11.824  1.3315 -0.5722 -1.0173
14425TIP3    H264767   3.623   0.140  11.882 -1.0768 -0.8772  0.5468
14426TIP3   OH264768   4.952   2.524  14.936  0.1285  0.1410 -0.0937
14426TIP3    H164769   5.041   2.489  14.933  0.3544  0.6981  0.0491
14426TIP3    H264770   4.904   2.472  14.872  0.9966  1.0641 -1.5477
14427TIP3   OH264771   6.664   6.761  10.732  0.1339  0.5320  0.0922
14427TIP3    H164772   6.616   6.798  10.658 -0.3624  0.7964  0.5443
14427TIP3    H264773   6.672   6.668  10.711 -1.4506  0.2887  0.4709
14428TIP3   OH264774   6.737   2.824   2.673  0.4232  0.2630 -0.1189
14428TIP3    H164775   6.687   2.796   2.750 -0.2981  1.7871  0.0011
14428TIP3    H264776   6.671   2.845   2.607  0.9890  0.2456 -0.6989
14429TIP3   OH264777   5.309   4.071   2.338 -0.8204 -0.5245  0.5864
14429TIP3    H164778   5.281   3.984   2.367  3.0618 -1.2451  2.9422
14429TIP3    H264779   5.375   4.055   2.270  0.6590  0.4054  1.7160
14430TIP3   OH264780   6.220   0.813  10.570 -0.2806 -0.4523 -0.2718
14430TIP3    H164781   6.260   0.887  10.525 -2.9978  1.1279 -0.2877
14430TIP3    H264782   6.150   0.851  10.622 -1.1251 -2.9237  0.5542
14431TIP3   OH264783   5.449   2.141  15.229  0.4201 -0.1854 -0.5792
14431TIP3    H164784   5.441   2.056  15.187  1.7910 -0.5524 -0.1439
14431TIP3    H264785   5.380   2.194  15.190 -0.5059 -1.5159 -0.7943
14432TIP3   OH264786   5.601   6.548  16.724 -0.7540 -0.8220 -0.0576
14432TIP3    H164787   5.521   6.597  16.742 -0.0826  0.5915 -0.7958
14432TIP3    H264788   5.665   6.614  16.699  0.9507 -1.8030  1.4380
14433TIP3   OH264789   6.321   3.971  11.444 -0.3067  0.1588 -0.1209
14433TIP3    H164790   6.271   4.037  11.397  1.8007  0.5474 -1.9609
14433TIP3    H264791   6.388   4.020  11.491 -0.6514 -0.4649  1.0685
14434TIP3   OH264792   6.615   0.455   2.633 -0.1958  0.3948  0.2218
14434TIP3    H164793   6.673   0.419   2.700  0.2084 -0.7437 -0.7029
14434TIP3    H264794   6.551   0.506   2.682 -1.2705 -2.1978  1.7344
14435TIP3   OH264795   4.881   5.814   3.231  0.2218 -0.0500 -0.1601
14435TIP3    H164796   4.846   5.851   3.312 -1.4076 -0.6586 -0.5441
14435TIP3    H264797   4.832   5.857   3.161  0.5991 -0.5755 -0.7633
14436TIP3   OH264798   5.222   3.464  15.125  0.3616  0.2042  0.2159
14436TIP3    H164799   5.155   3.530  15.142 -0.8945 -0.4929 -1.6566
14436TIP3    H264800   5.173   3.385  15.101  1.7930 -0.1004 -2.0641
14437TIP3   OH264801   2.117   4.532  11.096 -0.1949 -0.0169 -0.5625
14437TIP3    H164802   2.065   4.569  11.024 -1.5014 -0.4101  0.1404
14437TIP3    H264803   2.190   4.593  11.106 -1.2161  1.2950 -0.7492
14438TIP3   OH264804   6.808   2.167   6.410 -0.1259  0.5109  0.7534
14438TIP3    H164805   6.885   2.114   6.433  0.8513  1.6860  0.3037
14438TIP3    H264806   6.743   2.103   6.382  1.7670 -0.3725 -2.0317
14439TIP3   OH264807   2.503   0.184   2.422 -0.0554  0.1946 -0.4591
14439TIP3    H164808   2.431   0.238   2.453 -0.6813 -1.5682  1.3285
14439TIP3    H264809   2.461   0.118   2.366  0.2337 -0.4752  0.1059
14440TIP3   OH264810   4.926   1.826  11.873 -0.9254  0.3941 -0.1160
14440TIP3    H164811   4.960   1.836  11.962 -0.7834 -2.8031  0.3131
14440TIP3    H264812   4.840   1.785  11.885 -0.9504  0.0324 -1.4255
14441TIP3   OH264813   5.386   3.717   0.820 -0.1760 -0.2482  0.8027
14441TIP3    H164814   5.427   3.724   0.906 -0.6061 -1.2254  1.1071
14441TIP3    H264815   5.303   3.672   0.837 -0.3185 -0.3483 -0.1068
14442TIP3   OH264816   5.241   4.904   2.581 -0.1263 -0.0514  0.1763
14442TIP3    H164817   5.315   4.927   2.638 -1.0491  1.8048  0.7039
14442TIP3    H264818   5.281   4.886   2.496  0.8377  4.5101 -0.6245
14443TIP3   OH264819   4.710   0.280   3.173  0.9541 -0.1866  0.6758
14443TIP3    H164820   4.649   0.354   3.169  1.0885 -0.0690  0.7980
14443TIP3    H264821   4.695   0.232   3.091  1.8528  0.7565 -0.0683
14444TIP3   OH264822   1.019   4.596  15.938  0.4609 -0.4863 -0.1163
14444TIP3    H164823   1.058   4.522  15.985  0.0637  0.9943  2.7343
14444TIP3    H264824   0.968   4.643  16.004  0.6253  2.3141 -1.8002
14445TIP3   OH264825   0.604   4.795   0.587  0.0694 -0.3099  0.5151
14445TIP3    H164826   0.618   4.818   0.679 -1.1942 -2.3100  1.2610
14445TIP3    H264827   0.590   4.700   0.587 -0.1132 -0.3442 -1.7355
14446TIP3   OH264828   5.242   5.934   2.799  0.5634 -0.0863 -0.0332
14446TIP3    H164829   5.186   5.868   2.760  1.0458 -1.0381  0.8272
14446TIP3    H264830   5.184   6.007   2.819 -0.3100 -0.8971  0.4854
14447TIP3   OH264831   5.755   0.964   5.363  0.0353  0.4792 -0.2302
14447TIP3    H164832   5.676   0.924   5.327  1.3047 -2.3663 -0.0521
14447TIP3    H264833   5.811   0.978   5.287 -0.5859  2.5868 -0.3692
14448TIP3   OH264834   0.166   4.712  12.261  0.0691  0.2784  0.5550
14448TIP3    H164835   0.195   4.684  12.348 -0.1803 -0.3159  0.4519
14448TIP3    H264836   0.208   4.797  12.248 -0.1889  0.5531  1.4127
14449TIP3   OH264837   1.515   4.406   5.152 -0.1659  0.4467  0.2325
14449TIP3    H164838   1.572   4.354   5.208 -1.6522 -2.6792 -0.9728
14449TIP3    H264839   1.434   4.417   5.204 -0.6190 -0.2922 -0.3025
14450TIP3   OH264840   2.171   0.043   5.718 -0.4943 -0.0232  0.7836
14450TIP3    H164841   2.208   0.058   5.805  0.8492  0.3863  0.1671
14450TIP3    H264842   2.169   0.129   5.677  1.7618 -0.5498 -0.6554
14451TIP3   OH264843   2.402   0.525  14.055  0.1363  0.0124  0.0428
14451TIP3    H164844   2.411   0.604  14.110  1.9097 -0.7921  0.9971
14451TIP3    H264845   2.414   0.452  14.116 -1.2193 -1.0107 -0.8687
14452TIP3   OH264846   5.707   5.237   5.633 -0.1682  0.0843 -0.3527
14452TIP3    H164847   5.631   5.247   5.689  0.4008 -0.0396  0.4677
14452TIP3    H264848   5.732   5.145   5.643  0.7398  0.3773  0.2717
14453TIP3   OH264849   2.315   3.104  14.889  0.1333 -0.3367  0.0881
14453TIP3    H164850   2.353   3.192  14.892  1.3353 -0.8168 -0.5144
14453TIP3    H264851   2.249   3.104  14.959 -0.4458  1.2897 -0.4181
14454TIP3   OH264852   1.260   2.834  14.112 -0.2633  0.6798  0.3177
14454TIP3    H164853   1.239   2.923  14.082 -1.0493 -0.3010 -2.2797
14454TIP3    H264854   1.180   2.784  14.097  0.5827 -0.7619  0.4533
14455TIP3   OH264855   2.123   1.394   2.059  0.2028 -0.3461 -0.6124
14455TIP3    H164856   2.194   1.436   2.108 -0.4862 -0.5830  0.6160
14455TIP3    H264857   2.134   1.300   2.076  0.6328 -0.5424 -1.8576
14456TIP3   OH264858   5.026   2.439  14.268 -0.2106 -0.4065  0.3036
14456TIP3    H164859   4.937   2.461  14.295  0.5862  1.2083  1.7527
14456TIP3    H264860   5.083   2.478  14.334  1.6842  0.4252 -1.6561
14457TIP3   OH264861   6.764   1.230  13.873  0.2786 -0.0208 -0.3069
14457TIP3    H164862   6.685   1.209  13.824  0.0855 -3.1172  1.0952
14457TIP3    H264863   6.831   1.171  13.837  1.1890  0.5170  0.4387
14458TIP3   OH264864   6.432   1.980   6.146 -0.1222  0.3916  0.0725
14458TIP3    H164865   6.358   1.935   6.105  0.4525  1.6592 -2.5970
14458TIP3    H264866   6.395   2.061   6.180 -0.3399  0.0045  0.7739
14459TIP3   OH264867   2.071   1.577   5.398  0.4547 -0.1130 -0.0893
14459TIP3    H164868   2.165   1.580   5.381  0.3111  1.2573 -0.7613
14459TIP3    H264869   2.031   1.616   5.320 -0.7219 -1.2322 -0.0855
14460TIP3   OH264870   4.693   2.176   2.947 -0.4555 -0.0009  0.0754
14460TIP3    H164871   4.703   2.228   2.867  2.3465 -0.0515  0.2915
14460TIP3    H264872   4.685   2.086   2.917 -0.0423  0.0398 -0.1525
14461TIP3   OH264873   2.414   6.438  11.853  0.3366  0.3282  0.8501
14461TIP3    H164874   2.466   6.513  11.824 -0.7763  1.0820  0.7192
14461TIP3    H264875   2.406   6.383  11.775 -0.0394  0.8006  0.5461
14462TIP3   OH264876   2.312   1.574  16.480  0.1600 -0.5536  0.2851
14462TIP3    H164877   2.287   1.642  16.542  0.9146 -1.1895  1.3084
14462TIP3    H264878   2.373   1.617  16.420  0.5535 -0.2925  0.8682
14463TIP3   OH264879   6.364   4.752   2.550  0.3759  0.0521 -0.7304
14463TIP3    H164880   6.327   4.762   2.637  1.0469  0.1149 -0.4514
14463TIP3    H264881   6.384   4.659   2.542 -0.4073 -0.0922 -1.1168
14464TIP3   OH264882   1.246   1.485   0.146 -0.3687 -0.0795  0.2279
14464TIP3    H164883   1.208   1.517   0.227  0.0181  0.2212  0.2956
14464TIP3    H264884   1.282   1.399   0.168 -0.1083  0.0786  0.4206
14465TIP3   OH264885   4.577   5.229   1.543  0.1423  0.3133 -0.0315
14465TIP3    H164886   4.598   5.244   1.635 -0.7463 -0.0749  0.2487
14465TIP3    H264887   4.529   5.145   1.542 -1.0095  0.9475 -0.6615
14466TIP3   OH264888   4.066   4.519   3.212 -0.2175  0.1668  0.5938
14466TIP3    H164889   4.113   4.600   3.235 -0.2962  0.1116  0.9608
14466TIP3    H264890   4.108   4.488   3.133 -0.2185  0.5997  0.4210
14467TIP3   OH264891   1.091   6.275   1.218 -0.3241  0.1004  0.1406
14467TIP3    H164892   1.054   6.221   1.148 -0.8439 -0.7748  1.0681
14467TIP3    H264893   1.031   6.349   1.225 -1.1728 -0.6168  0.7086
14468TIP3   OH264894   3.113   0.584   0.450  0.1537  0.2786 -0.4357
14468TIP3    H164895   3.159   0.511   0.490  0.0720  0.3769 -0.1594
14468TIP3    H264896   3.152   0.662   0.491  0.5207  0.4109 -1.0172
14469TIP3   OH264897   4.423   3.932   4.498 -0.3137 -0.1306  0.4461
14469TIP3    H164898   4.391   4.016   4.531 -2.2954 -0.8379  0.4633
14469TIP3    H264899   4.410   3.871   4.571 -0.3004 -0.7481 -0.0569
14470TIP3   OH264900   5.090   1.733  15.071 -0.1694  0.0219 -0.0069
14470TIP3    H164901   5.040   1.785  15.008  0.5918 -0.4970 -1.0647
14470TIP3    H264902   5.056   1.760  15.156 -1.9790 -0.0380 -0.6751
14471TIP3   OH264903   4.904   1.295   4.134 -0.9394 -0.4130  0.4368
14471TIP3    H164904   4.970   1.268   4.071 -2.2472  0.3797 -1.3708
14471TIP3    H264905   4.953   1.319   4.212  0.8209 -0.5628 -0.5733
14472TIP3   OH264906   3.936   1.179  15.288  0.3314 -0.4237  0.0513
14472TIP3    H164907   3.905   1.197  15.200  2.0714 -0.6015 -0.6421
14472TIP3    H264908   3.959   1.086  15.287  0.7995 -0.3200  0.5363
14473TIP3   OH264909   1.971   6.460   6.153  0.3869  0.1695 -0.1529
14473TIP3    H164910   1.878   6.449   6.136  0.2964  0.4150  0.1888
14473TIP3    H264911   1.990   6.401   6.226  1.0648 -1.9660 -1.9174
14474TIP3   OH264912   2.164   3.436   2.599 -0.0881 -0.0530 -0.0976
14474TIP3    H164913   2.122   3.351   2.616 -0.9417  0.4313  0.2952
14474TIP3    H264914   2.237   3.415   2.541 -1.3064 -0.8532 -1.4289
14475TIP3   OH264915   6.536   3.519  13.795 -1.0993  0.4040  0.3332
14475TIP3    H164916   6.575   3.486  13.876 -1.0407 -0.7189 -0.1359
14475TIP3    H264917   6.609   3.558  13.748 -0.8338 -0.2777  0.1660
14476TIP3   OH264918   4.137   5.732   1.836 -0.1446 -0.8082 -0.2288
14476TIP3    H164919   4.213   5.679   1.814  0.9665  0.3334  0.6863
14476TIP3    H264920   4.148   5.754   1.928 -0.8033  0.5750 -0.4433
14477TIP3   OH264921   4.653   2.937  12.689  0.6160  0.6615 -0.2535
14477TIP3    H164922   4.585   2.900  12.632  0.6603 -2.4545  1.4890
14477TIP3    H264923   4.729   2.947  12.632  0.1643 -0.6882 -1.1483
14478TIP3   OH264924   0.042   2.693  15.321 -0.2370 -0.2122  0.1777
14478TIP3    H164925   0.078   2.621  15.269 -1.0154 -0.4245 -0.0771
14478TIP3    H264926   0.013   2.652  15.402 -1.3955 -0.3406 -0.2804
14479TIP3   OH264927   0.285   3.229  10.660 -0.5557 -0.1107  0.0339
14479TIP3    H164928   0.293   3.229  10.755 -0.8350  0.4316  0.0629
14479TIP3    H264929   0.342   3.300  10.631  0.1335 -0.7682 -0.2682
14480TIP3   OH264930   2.378   4.832  10.282  0.2671 -0.3839  0.4901
14480TIP3    H164931   2.433   4.756  10.296  1.2133  0.2302  0.2079
14480TIP3    H264932   2.419   4.902  10.333  1.6903  0.9384 -2.2412
14481TIP3   OH264933   5.990   4.565  16.315  0.4582  0.6119 -0.2105
14481TIP3    H164934   5.909   4.534  16.355  1.2354  0.4441  1.2981
14481TIP3    H264935   6.059   4.535  16.374  1.7547 -0.3603 -2.1096
14482TIP3   OH264936   6.253   1.644  13.011  0.0120 -0.2736  0.8152
14482TIP3    H164937   6.216   1.687  13.088 -0.0194  0.8444  0.1936
14482TIP3    H264938   6.320   1.585  13.046  1.0663  1.3260  1.6262
14483TIP3   OH264939   3.371   0.187   0.771  0.2501  0.0836  0.3091
14483TIP3    H164940   3.293   0.183   0.826 -0.7445 -0.2583 -1.0551
14483TIP3    H264941   3.444   0.167   0.830 -0.6420  0.7692  1.6913
14484TIP3   OH264942   4.793   0.962   1.756  0.3820  0.3410 -0.1983
14484TIP3    H164943   4.819   0.992   1.842 -2.0920  1.1655  0.3570
14484TIP3    H264944   4.874   0.956   1.706  1.7328  0.9943  1.8185
14485TIP3   OH264945   1.334   0.302   0.645  0.0263 -0.4590 -0.2591
14485TIP3    H164946   1.410   0.300   0.587  1.8707  0.0186  1.9925
14485TIP3    H264947   1.278   0.371   0.608  1.7154  0.6796 -0.7993
14486TIP3   OH264948   3.931   3.193  13.035 -0.2864 -0.2669  0.3272
14486TIP3    H164949   3.958   3.139  12.961  2.3771 -0.0349  1.0499
14486TIP3    H264950   3.971   3.278  13.020 -1.0988  0.3043  1.2205
14487TIP3   OH264951   6.832   1.124   5.729 -0.1009  1.1003  0.4087
14487TIP3    H164952   6.779   1.079   5.794  1.2215  1.6223  1.9148
14487TIP3    H264953   6.860   1.205   5.772  1.8044  0.8982 -0.3353
14488TIP3   OH264954   1.273   2.075   1.524  0.4178  0.4285  0.5810
14488TIP3    H164955   1.242   2.039   1.441  0.1325  1.4129  0.2516
14488TIP3    H264956   1.314   2.158   1.501 -0.7816  1.3295  1.5504
14489TIP3   OH264957   2.403   5.287   2.639 -0.1169  0.1419 -0.0051
14489TIP3    H164958   2.342   5.239   2.695  0.8044  3.4845  4.4075
14489TIP3    H264959   2.347   5.336   2.579 -1.4491 -0.8484  0.3793
14490TIP3   OH264960   3.141   6.605  16.558  0.0451  0.0891 -0.0402
14490TIP3    H164961   3.235   6.602  16.542  0.1752  1.3854  0.3278
14490TIP3    H264962   3.127   6.551  16.635  0.3691 -0.7247 -0.5435
14491TIP3   OH264963   1.586   6.326   2.379 -0.2822  0.5578 -0.2352
14491TIP3    H164964   1.497   6.293   2.366  0.5464 -2.0985  0.2463
14491TIP3    H264965   1.625   6.327   2.291  0.0691 -1.1362 -0.1409
14492TIP3   OH264966   3.689   6.736   0.159 -0.1966  0.9991  0.0109
14492TIP3    H164967   3.613   6.732   0.102 -0.2467  0.9657  0.0794
14492TIP3    H264968   3.653   6.741   0.248 -0.1221  0.3218  0.0863
14493TIP3   OH264969   1.285   0.035  15.452 -0.0035 -0.1188 -0.9945
14493TIP3    H164970   1.366   0.083  15.436 -1.2178  1.7355 -1.9012
14493TIP3    H264971   1.281   0.025  15.547  0.7957  0.6689 -0.8716
14494TIP3   OH264972   3.427   2.260   0.644 -0.5858 -0.6333  0.0037
14494TIP3    H164973   3.462   2.266   0.733 -0.9030  0.6017  0.0573
14494TIP3    H264974   3.341   2.302   0.649 -1.7115 -2.7423 -0.3565
14495TIP3   OH264975   3.613   5.799  10.927  0.0386  0.0150 -0.3521
14495TIP3    H164976   3.702   5.773  10.903  0.1789  0.5547 -0.4280
14495TIP3    H264977   3.590   5.867  10.863 -0.3713 -0.0185 -0.2404
14496TIP3   OH264978   4.062   0.375   0.249 -0.1489 -0.0984  0.3669
14496TIP3    H164979   3.967   0.367   0.261 -0.1961 -0.9520 -0.4725
14496TIP3    H264980   4.096   0.385   0.338 -0.8372 -2.0728  0.9155
14497TIP3   OH264981   5.176   0.948   4.904  0.4200 -0.1808  0.0466
14497TIP3    H164982   5.101   1.008   4.904  0.2553 -0.3831  0.0784
14497TIP3    H264983   5.188   0.925   4.996  0.8674  0.2716  0.1080
14498TIP3   OH264984   3.346   3.164   0.024  0.2619  0.4945  0.3114
14498TIP3    H164985   3.326   3.225   0.094  2.0596  1.1203  0.3412
14498TIP3    H264986   3.367   3.219  -0.051 -0.5141 -0.1489 -0.3934
14499TIP3   OH264987   2.337   2.687  15.831  0.3486  0.0119 -0.4262
14499TIP3    H164988   2.278   2.719  15.762 -2.0342 -1.3333  0.8503
14499TIP3    H264989   2.348   2.594  15.812  0.9660 -0.0277  0.1048
14500TIP3   OH264990   5.054   6.499   5.086 -0.1505 -0.1744  0.6599
14500TIP3    H164991   5.064   6.405   5.073  0.5778 -0.0313  0.1023
14500TIP3    H264992   5.143   6.534   5.080 -0.5266  0.6810 -0.3016
14501TIP3   OH264993   5.369   6.475  12.694  0.1428 -0.4973  0.9943
14501TIP3    H164994   5.310   6.466  12.620  2.1368 -0.6598 -0.6638
14501TIP3    H264995   5.351   6.562  12.729 -0.9716 -0.4988  0.4486
14502TIP3   OH264996   6.089   3.604  15.958  0.4332  0.5386  0.2295
14502TIP3    H164997   6.122   3.614  16.047 -0.1903 -1.6366  0.7577
14502TIP3    H264998   6.011   3.549  15.967  0.9720 -0.6581 -1.7461
14503TIP3   OH264999   4.517   2.330   0.489 -0.2367 -0.1140  0.2577
14503TIP3    H165000   4.516   2.345   0.584 -0.3127  0.5490  0.1591
14503TIP3    H265001   4.438   2.279   0.472  0.1594 -0.8629  0.6473
14504TIP3   OH265002   0.558   1.348  13.967  0.1098 -0.2809 -0.0595
14504TIP3    H165003   0.497   1.406  14.012  0.9351 -0.5146  1.4523
14504TIP3    H265004   0.503   1.282  13.926 -0.7681  0.8704 -0.7873
14505TIP3   OH265005   2.350   2.473   5.764  0.5815  0.6239  0.0373
14505TIP3    H165006   2.412   2.544   5.748  0.3059  0.7079 -0.6973
14505TIP3    H265007   2.287   2.480   5.693  1.1713 -1.0331 -0.6815
14506TIP3   OH265008   6.754   6.450  14.677 -0.4537 -0.1414 -0.2053
14506TIP3    H165009   6.828   6.391  14.691 -1.0513 -1.2332 -1.3374
14506TIP3    H265010   6.793   6.536  14.663  0.4716 -0.3460  1.0360
14507TIP3   OH265011   6.771   4.021  11.260  0.0580  0.1904 -0.0787
14507TIP3    H165012   6.779   3.932  11.294 -2.7853  0.3285  1.2310
14507TIP3    H265013   6.853   4.064  11.284  0.4286 -1.3438  1.5593
14508TIP3   OH265014   3.482   5.035  13.632  0.3081 -0.1468 -0.0845
14508TIP3    H165015   3.440   5.006  13.713 -0.7572  1.4883  0.0026
14508TIP3    H265016   3.439   4.983  13.564 -2.3948  1.8102 -0.0541
14509TIP3   OH265017   2.915   2.311   3.684  0.1219  0.5008  0.3103
14509TIP3    H165018   2.981   2.339   3.620 -0.5466 -1.1699 -1.1725
14509TIP3    H265019   2.965   2.267   3.753  0.6404  0.1084 -0.3129
14510TIP3   OH265020   3.568   1.930  14.291 -0.7705  0.1778 -0.3592
14510TIP3    H165021   3.574   1.835  14.279 -3.6030 -0.3022  1.0431
14510TIP3    H265022   3.511   1.940  14.367 -0.9748  3.0083 -0.7959
14511TIP3   OH265023   2.249   3.925   3.932 -0.7973  0.1763  0.4495
14511TIP3    H165024   2.309   3.927   3.857 -0.1449 -0.4091  0.9404
14511TIP3    H265025   2.164   3.948   3.895 -0.2275  1.3437 -0.2107
14512TIP3   OH265026   2.299   0.374  15.214  0.1390 -0.5060 -0.1415
14512TIP3    H165027   2.368   0.372  15.281  0.4916 -0.5766 -0.5046
14512TIP3    H265028   2.346   0.393  15.133 -0.0028 -2.3762 -0.7104
14513TIP3   OH265029   3.445   1.595  13.099 -0.1120  0.0623 -0.0577
14513TIP3    H165030   3.455   1.674  13.046  1.2994  1.5837  2.3289
14513TIP3    H265031   3.526   1.546  13.085  0.9793  1.2420  1.8009
14514TIP3   OH265032   4.764   6.732  14.281 -0.5032  0.3531 -0.2835
14514TIP3    H165033   4.686   6.702  14.328  0.1946 -0.2133  0.5403
14514TIP3    H265034   4.755   6.694  14.194 -0.6399 -0.5750  0.1255
14515TIP3   OH265035   1.183   3.035  15.210 -0.3340 -0.0505  0.5163
14515TIP3    H165036   1.172   3.108  15.148  1.6623  0.3270  0.5194
14515TIP3    H265037   1.258   2.986  15.176  0.1740 -0.4159  2.0738
14516TIP3   OH265038   3.688   2.706  15.604  0.1494  0.0575  0.1465
14516TIP3    H165039   3.633   2.745  15.672  0.0623 -0.7193  0.5341
14516TIP3    H265040   3.745   2.778  15.575 -0.8887  0.8044 -0.0932
14517TIP3   OH265041   3.239   6.367  12.826  0.6841 -0.7292 -0.5120
14517TIP3    H165042   3.267   6.437  12.767 -0.0341 -0.2159 -0.2575
14517TIP3    H265043   3.184   6.311  12.772 -0.5571  0.1304 -0.1709
14518TIP3   OH265044   3.572   0.686   3.729 -0.4420  0.3682 -0.1926
14518TIP3    H165045   3.663   0.701   3.751 -0.5783  1.6437 -0.4293
14518TIP3    H265046   3.531   0.661   3.812 -0.2921  1.8652  0.3496
14519TIP3   OH265047   1.504   1.568   0.820  0.6660  0.2100  0.7197
14519TIP3    H165048   1.502   1.662   0.802  0.2272 -0.0216 -0.5903
14519TIP3    H265049   1.431   1.554   0.880  2.0643  0.9956  2.6920
14520TIP3   OH265050   5.666   5.172   4.176 -0.8152  0.7253 -0.0730
14520TIP3    H165051   5.733   5.107   4.157  0.2272  1.4741  0.8783
14520TIP3    H265052   5.627   5.193   4.091 -1.7383 -1.6679 -0.3109
14521TIP3   OH265053   6.520   0.078  11.647  0.2770 -1.0270 -0.7936
14521TIP3    H165054   6.450   0.017  11.671 -1.5011  1.2094  0.1558
14521TIP3    H265055   6.560   0.102  11.731  0.1744 -0.0632 -1.0060
14522TIP3   OH265056   6.097   2.044   4.323  0.1219 -0.2886  0.0803
14522TIP3    H165057   6.136   2.100   4.256 -1.3974 -0.1675 -0.7428
14522TIP3    H265058   6.082   2.103   4.397 -0.2058  0.0947 -0.2862
14523TIP3   OH265059   1.099   4.728  13.182  0.1977  0.5047  0.4079
14523TIP3    H165060   1.194   4.728  13.169 -0.0106  0.2574 -1.4184
14523TIP3    H265061   1.080   4.643  13.222  0.5043 -0.6632 -1.7686
14524TIP3   OH265062   3.780   5.381  12.304 -0.4515 -1.0747 -0.1351
14524TIP3    H165063   3.808   5.401  12.393 -0.4366 -3.1498  0.3860
14524TIP3    H265064   3.734   5.460  12.275  1.4399  0.4793  0.8591
14525TIP3   OH265065   5.988   1.028  13.194 -0.6717  0.4620  0.5961
14525TIP3    H165066   5.896   1.034  13.221 -0.7333  0.7938  0.3248
14525TIP3    H265067   6.032   1.098  13.242 -0.6665  0.6594  0.3084
14526TIP3   OH265068   3.784   0.399  13.279 -0.3037  0.1432 -0.4475
14526TIP3    H165069   3.793   0.438  13.366 -1.4692 -0.4180 -0.0535
14526TIP3    H265070   3.855   0.438  13.228 -0.2188  1.2454  0.4705
14527TIP3   OH265071   1.043   0.001   2.813  0.5259  0.5091 -0.1270
14527TIP3    H165072   1.090   0.029   2.892  2.4076 -1.2356 -0.5515
14527TIP3    H265073   1.082   0.053   2.743 -0.4751  1.3614 -0.0801
14528TIP3   OH265074   4.995   2.472   3.705 -0.2659  0.7225 -0.4895
14528TIP3    H165075   5.074   2.499   3.752 -0.3995  1.1432 -0.5044
14528TIP3    H265076   5.000   2.377   3.703  1.8034  0.7565 -3.0890
14529TIP3   OH265077   0.993   2.778  14.069 -0.2467  0.5840 -0.1747
14529TIP3    H165078   0.980   2.852  14.129  0.0557 -0.2224  0.9097
14529TIP3    H265079   0.956   2.703  14.115 -0.6986  0.0663 -1.3286
14530TIP3   OH265080   3.294   5.165   5.102  0.1165 -0.3895  0.3386
14530TIP3    H165081   3.322   5.183   5.012  1.3957 -0.7895  0.6372
14530TIP3    H265082   3.349   5.221   5.156 -1.3492  0.6315  0.8523
14531TIP3   OH265083   3.082   4.534  15.070  0.9605  0.3119 -0.1612
14531TIP3    H165084   3.104   4.616  15.113  2.4483 -0.7908  1.3342
14531TIP3    H265085   3.033   4.560  14.992  0.4072  2.5337  0.8314
14532TIP3   OH265086   2.754   6.281   4.012  0.4377  0.5219  0.2871
14532TIP3    H165087   2.718   6.231   3.939  0.5414  3.1920 -1.7201
14532TIP3    H265088   2.677   6.316   4.058  0.3572 -1.4706  1.8188
14533TIP3   OH265089   0.652   3.643   2.786 -0.2617  0.0065  0.4158
14533TIP3    H165090   0.699   3.612   2.708  0.3388 -0.1699  0.8464
14533TIP3    H265091   0.613   3.565   2.824  0.1225 -0.0265  0.7447
14534TIP3   OH265092   0.595   3.039   1.417  0.4165  0.2237 -0.5601
14534TIP3    H165093   0.666   2.976   1.427 -0.5136 -0.5881  1.5358
14534TIP3    H265094   0.628   3.120   1.455  0.2234 -0.1723  0.4742
14535TIP3   OH265095   0.160   3.793  13.312  0.2831  0.1968  0.4722
14535TIP3    H165096   0.160   3.793  13.408  1.4826 -0.9904  0.4983
14535TIP3    H265097   0.198   3.878  13.288 -1.0969  0.9964  1.0088
14536TIP3   OH265098   1.349   1.647   4.058 -0.5147  0.5954 -0.1928
14536TIP3    H165099   1.336   1.554   4.073 -0.8868  0.5667 -0.6783
14536TIP3    H265100   1.318   1.688   4.139 -0.3250  0.2992  0.0310
14537TIP3   OH265101   5.312   0.278   0.093 -0.0137 -0.1850 -0.0287
14537TIP3    H165102   5.271   0.202   0.052 -1.5805  1.0630 -0.9387
14537TIP3    H265103   5.376   0.308   0.029 -0.3207  0.0081 -0.2489
14538TIP3   OH265104   2.427   2.463   1.614 -0.0954  0.2437  0.5401
14538TIP3    H165105   2.372   2.385   1.621  0.0547  0.1868  1.1160
14538TIP3    H265106   2.444   2.472   1.520  2.2450 -2.0841  0.6209
14539TIP3   OH265107   5.067   6.796  16.802 -0.1170  0.1047 -0.0577
14539TIP3    H165108   5.098   6.707  16.786 -0.9177 -0.0408 -0.8581
14539TIP3    H265109   4.989   6.785  16.857 -1.8813  0.0880 -2.4288
14540TIP3   OH265110   0.511   4.907   2.696  0.1107 -0.1360 -0.3932
14540TIP3    H165111   0.487   4.830   2.644 -0.6356  0.1478 -0.4853
14540TIP3    H265112   0.489   4.883   2.786  2.2373 -0.9693 -0.0340
14541TIP3   OH265113   0.238   2.670  12.360  0.0352  0.3687  0.1826
14541TIP3    H165114   0.172   2.681  12.292  0.8735  0.3586 -0.6578
14541TIP3    H265115   0.226   2.580  12.391 -0.3329  0.3643  0.0378
14542TIP3   OH265116   3.734   2.655  15.905  0.5137 -0.1992  0.1307
14542TIP3    H165117   3.650   2.618  15.877  0.3002 -0.5047  1.1328
14542TIP3    H265118   3.790   2.580  15.923  0.7061 -0.0158  0.3170
14543TIP3   OH265119   4.229   6.291   4.170  0.2440 -0.0102  0.1662
14543TIP3    H165120   4.201   6.352   4.239  2.2267 -1.6373  2.6042
14543TIP3    H265121   4.157   6.228   4.164 -1.1263  1.5749 -1.2783
14544TIP3   OH265122   2.378   3.605   1.435 -0.2425  0.2907  0.4852
14544TIP3    H165123   2.420   3.689   1.416  0.0079  0.0239 -0.1742
14544TIP3    H265124   2.299   3.628   1.483  1.2854  0.7538  2.9720
14545TIP3   OH265125   4.487   1.368   0.253 -0.0536  0.4351 -0.4592
14545TIP3    H165126   4.419   1.328   0.199  0.6169  1.2723 -2.0141
14545TIP3    H265127   4.484   1.461   0.231 -0.5012  1.0306  1.8600
14546TIP3   OH265128   5.145   1.525  16.983  0.7986  0.1415 -0.6932
14546TIP3    H165129   5.166   1.462  17.053  0.0785  0.3282 -0.3036
14546TIP3    H265130   5.052   1.542  16.994  0.8501  0.7699 -1.2220
14547TIP3   OH265131   1.096   2.114   0.248  0.3195  0.2187  0.2688
14547TIP3    H165132   1.158   2.056   0.291 -0.1458 -0.3943  0.1168
14547TIP3    H265133   1.151   2.186   0.215  0.6543  0.8381  2.0578
14548TIP3   OH265134   3.018   6.057  11.148 -0.7763 -0.5902  0.7969
14548TIP3    H165135   2.950   5.990  11.146 -0.6456 -0.7136 -1.5400
14548TIP3    H265136   2.970   6.140  11.147 -0.9069 -0.6350  1.9753
14549TIP3   OH265137   2.471   4.806   0.205 -0.1462  0.5953 -0.1525
14549TIP3    H165138   2.388   4.852   0.190  0.5223  2.1720  0.7565
14549TIP3    H265139   2.536   4.857   0.157  0.5386  0.2531  0.3864
14550TIP3   OH265140   1.951   6.735  13.124 -0.7316  0.7390 -0.5493
14550TIP3    H165141   1.990   6.754  13.039 -0.1459  2.6523  0.0838
14550TIP3    H265142   1.896   6.811  13.143 -0.1235  0.8054  1.1634
14551TIP3   OH265143   1.433   3.700   3.357  0.5218  0.0998 -0.3215
14551TIP3    H165144   1.339   3.708   3.374  0.6560  1.3782 -0.1057
14551TIP3    H265145   1.459   3.619   3.402  0.1100  1.3276  2.2991
14552TIP3   OH265146   0.218   1.004  12.267  0.5840 -0.6158  0.5801
14552TIP3    H165147   0.181   0.922  12.300  0.2407 -1.1760 -1.1399
14552TIP3    H265148   0.142   1.057  12.244  0.8083  0.1693  1.5467
14553TIP3   OH265149   6.211   5.803   5.463  0.1806  0.4664 -0.5996
14553TIP3    H165150   6.235   5.892   5.435  0.6402  0.5338 -0.0048
14553TIP3    H265151   6.122   5.791   5.429  0.4954  0.7656 -1.5659
14554TIP3   OH265152   4.284   1.483  10.994 -0.1041 -0.3238  0.2891
14554TIP3    H165153   4.257   1.452  10.908  1.5093 -0.1079 -0.3273
14554TIP3    H265154   4.374   1.514  10.982  0.6657 -1.5332  2.3355
14555TIP3   OH265155   2.358   3.565   0.931 -0.3457 -0.1149 -0.1914
14555TIP3    H165156   2.372   3.539   1.022  0.0007  1.8014  0.3404
14555TIP3    H265157   2.278   3.518   0.906 -0.2362 -0.9788  0.9541
14556TIP3   OH265158   6.648   6.682  14.108 -0.1301  0.0444 -0.0158
14556TIP3    H165159   6.700   6.714  14.034 -0.1813 -0.8100 -0.4326
14556TIP3    H265160   6.698   6.709  14.186  0.8313 -0.5804 -0.4041
14557TIP3   OH265161   0.951   1.301   3.282 -0.1699  0.2018 -0.3332
14557TIP3    H165162   0.967   1.207   3.276  1.7292  0.4839 -0.2464
14557TIP3    H265163   0.885   1.318   3.215  0.6577 -0.9502 -1.5025
14558TIP3   OH265164   2.402   6.836  13.679  0.9470  0.0100 -0.1503
14558TIP3    H165165   2.356   6.834  13.763  1.5390  1.1141  0.2269
14558TIP3    H265166   2.442   6.923  13.676 -0.4779  0.6686 -2.3480
14559TIP3   OH265167   1.585   2.737  11.334  0.3685  0.2921 -0.5429
14559TIP3    H165168   1.524   2.665  11.318  1.1866 -0.4944 -0.1341
14559TIP3    H265169   1.549   2.810  11.283  0.0580 -0.6641 -1.7178
14560TIP3   OH265170   2.977   0.565   3.223 -0.0104 -0.2082  0.1686
14560TIP3    H165171   2.960   0.475   3.249  1.5753 -0.5166  0.2794
14560TIP3    H265172   3.020   0.558   3.138  0.3244  0.4236  0.2782
14561TIP3   OH265173   0.443   6.659   3.458 -0.2816  0.4663 -0.3260
14561TIP3    H165174   0.368   6.705   3.498 -0.5291  1.1505 -1.5291
14561TIP3    H265175   0.513   6.725   3.457 -0.0477  0.2160 -0.3456
14562TIP3   OH265176   0.425   5.420   4.848 -0.5594 -0.1641 -0.0246
14562TIP3    H165177   0.425   5.356   4.920 -0.5800 -0.4930 -0.3120
14562TIP3    H265178   0.356   5.482   4.870  0.3753  0.5722  0.9691
14563TIP3   OH265179   2.583   0.120  14.010 -0.8373 -0.3021 -0.8409
14563TIP3    H165180   2.624   0.073  14.083 -0.2319  3.0737  1.1800
14563TIP3    H265181   2.627   0.086  13.932  0.0268 -2.4923  0.5018
14564TIP3   OH265182   5.435   0.574   0.478 -0.0109  0.2080 -0.3985
14564TIP3    H165183   5.507   0.633   0.453 -0.3179  1.2848  1.1297
14564TIP3    H265184   5.456   0.492   0.434  1.1325  1.0589 -1.5409
14565TIP3   OH265185   4.592   5.900   6.564 -0.1084  0.0491 -0.3907
14565TIP3    H165186   4.536   5.823   6.577 -2.0678  1.3809 -0.5975
14565TIP3    H265187   4.624   5.891   6.475  0.6221 -1.0930 -0.0354
14566TIP3   OH265188   0.387   3.388  11.673  0.4295  0.3485 -0.3298
14566TIP3    H165189   0.312   3.329  11.674  1.0038 -0.3994 -0.7854
14566TIP3    H265190   0.456   3.340  11.628  2.5178 -0.6706  3.4909
14567TIP3   OH265191   2.126   3.421  11.891  0.2706  0.4296  0.1908
14567TIP3    H165192   2.142   3.469  11.972  0.0046  0.4197  0.2498
14567TIP3    H265193   2.117   3.489  11.824  0.0187  0.4582  0.2525
14568TIP3   OH265194   2.569   6.506  16.331  0.0818 -0.0865  0.1541
14568TIP3    H165195   2.574   6.484  16.238 -0.3750 -0.5164  0.2270
14568TIP3    H265196   2.635   6.450  16.372 -0.5897 -0.8330  0.2463
14569TIP3   OH265197   3.340   3.054   5.720  0.2799  0.4654 -0.3044
14569TIP3    H165198   3.295   3.118   5.665 -1.6054 -0.6571 -0.1629
14569TIP3    H265199   3.292   3.056   5.803  1.0882 -0.1218  0.1917
14570TIP3   OH265200   3.992   2.185  15.173  0.1952  0.0123 -0.2593
14570TIP3    H165201   3.971   2.095  15.198  0.4863  0.3080  1.1456
14570TIP3    H265202   3.945   2.239  15.236  1.1504  0.8012 -0.1854
14571TIP3   OH265203   0.575   6.139  14.145 -0.7741  0.5805  0.0726
14571TIP3    H165204   0.654   6.092  14.118 -1.5358  0.3084 -1.8757
14571TIP3    H265205   0.592   6.230  14.123 -1.2974  0.3964 -1.1713
14572TIP3   OH265206   6.742   5.562  11.112 -0.0799  0.3588  0.2411
14572TIP3    H165207   6.829   5.565  11.152 -0.5566  0.5918  1.2954
14572TIP3    H265208   6.697   5.491  11.157  0.3870 -1.5674 -2.1182
14573TIP3   OH265209   0.024   6.474  13.451  0.0223 -0.4099  0.1047
14573TIP3    H165210   0.005   6.427  13.532 -3.7217  1.2849  0.3856
14573TIP3    H265211  -0.005   6.563  13.467  0.4067  0.3167 -2.6770
14574TIP3   OH265212   5.770   1.055  10.442  0.2943  0.1415 -0.2363
14574TIP3    H165213   5.711   1.062  10.367  0.5129 -3.5414 -0.9058
14574TIP3    H265214   5.717   1.084  10.517 -1.4290 -0.3640 -1.2017
14575TIP3   OH265215   6.657   4.538  16.655  0.3465 -0.0860  0.7404
14575TIP3    H165216   6.726   4.482  16.620  0.2931  1.3640 -1.8437
14575TIP3    H265217   6.624   4.489  16.731  2.1952 -2.1870  0.2947
14576TIP3   OH265218   2.186   3.340  10.406 -0.3472 -0.0064  0.1118
14576TIP3    H165219   2.194   3.401  10.479  1.0047 -0.0280  0.0144
14576TIP3    H265220   2.093   3.318  10.402 -0.8096  1.7778  0.3581
14577TIP3   OH265221   2.584   6.522  12.323 -0.9944 -0.2846  0.2405
14577TIP3    H165222   2.524   6.555  12.257  0.3373  1.1229 -0.3435
14577TIP3    H265223   2.645   6.595  12.338 -0.8370 -0.8042  2.5129
14578TIP3   OH265224   4.520   3.306   5.142  0.1009  0.3711 -0.1485
14578TIP3    H165225   4.545   3.223   5.101 -2.2150 -0.8532  0.7531
14578TIP3    H265226   4.603   3.353   5.151  1.4952 -1.7874 -0.7751
14579TIP3   OH265227   1.462   6.137  16.680 -0.1211 -0.2756 -0.3171
14579TIP3    H165228   1.391   6.097  16.630  0.0226  1.5445 -2.0508
14579TIP3    H265229   1.420   6.167  16.761 -0.6311 -1.9831  0.1094
14580TIP3   OH265230   5.351   6.432   1.660  0.0166  0.4816 -0.1935
14580TIP3    H165231   5.442   6.428   1.628  0.5570 -1.4475  1.4262
14580TIP3    H265232   5.322   6.341   1.661 -1.6773  1.0020  0.0810
14581TIP3   OH265233   2.569   0.346  16.427  0.4834 -0.4573  0.2037
14581TIP3    H165234   2.546   0.259  16.397 -0.6597 -0.6039  1.4116
14581TIP3    H265235   2.660   0.339  16.455  0.7918 -0.9194 -0.8659
14582TIP3   OH265236   4.245   5.630  15.657  0.4220  0.1729  0.0886
14582TIP3    H165237   4.175   5.630  15.722  1.0114  0.6177  0.7390
14582TIP3    H265238   4.215   5.569  15.589  0.8036 -2.2429  1.9247
14583TIP3   OH265239   3.108   0.986   3.800  0.0708  0.0400  0.3683
14583TIP3    H165240   3.175   1.030   3.852  0.0359 -0.2337  0.6502
14583TIP3    H265241   3.035   0.972   3.861  0.0233 -0.2697  0.2434
14584TIP3   OH265242   1.937   4.202   1.686  0.1595  0.2792 -1.0849
14584TIP3    H165243   1.930   4.290   1.723  3.3144  0.8119 -1.4544
14584TIP3    H265244   1.952   4.217   1.592 -0.7173 -0.7326 -1.3973
14585TIP3   OH265245   1.760   2.732  12.955  0.1337  0.1306 -0.1246
14585TIP3    H165246   1.801   2.755  13.038 -3.0216  2.1581  1.0630
14585TIP3    H265247   1.833   2.714  12.896  2.5341 -0.7594  2.8495
14586TIP3   OH265248   4.206   6.746   3.597 -0.4099 -0.6070  0.6386
14586TIP3    H165249   4.120   6.765   3.634  0.3597  0.2595  2.0811
14586TIP3    H265250   4.239   6.832   3.570  0.4637 -0.7521  1.2059
14587TIP3   OH265251   5.045   2.190   6.651 -0.0267 -0.1727 -0.2807
14587TIP3    H165252   5.076   2.237   6.729  0.0085 -0.4982 -0.0962
14587TIP3    H265253   5.070   2.246   6.578 -0.6075  0.4318 -0.0209
14588TIP3   OH265254   0.352   6.035   5.234 -0.0758 -0.0291 -0.3730
14588TIP3    H165255   0.331   5.985   5.313  1.5708 -1.2516 -0.6611
14588TIP3    H265256   0.304   5.989   5.164  0.6858 -0.6518 -0.4937
14589TIP3   OH265257   6.395   1.478  13.172  0.1743 -0.5369  0.0102
14589TIP3    H165258   6.477   1.466  13.220  0.3549 -1.2376 -0.4586
14589TIP3    H265259   6.340   1.405  13.199 -0.8845  0.7387  1.4719
14590TIP3   OH265260   1.875   5.044   0.904 -0.5463  0.2418  0.1686
14590TIP3    H165261   1.917   4.977   0.850  3.8194  0.9254  2.2144
14590TIP3    H265262   1.834   4.995   0.975  0.3337 -0.4094  0.2529
14591TIP3   OH265263   6.072   2.865   0.966 -0.4083  0.5207  0.4662
14591TIP3    H165264   6.090   2.903   0.880  0.0954  0.9635  0.7659
14591TIP3    H265265   6.113   2.924   1.028  0.9557 -0.8408  0.9229
14592TIP3   OH265266   5.661   5.727  16.690  0.1460  0.2863  0.0224
14592TIP3    H165267   5.752   5.755  16.700  0.4325 -0.0098 -1.5621
14592TIP3    H265268   5.666   5.631  16.684 -0.4254  0.1542  1.3118
14593TIP3   OH265269   4.635   4.421   5.507 -0.0293 -0.2671 -0.2381
14593TIP3    H165270   4.631   4.494   5.445  0.2526 -0.1966 -0.1716
14593TIP3    H265271   4.713   4.437   5.559 -0.6650  0.0688  0.6421
14594TIP3   OH265272   1.164   2.187  13.562  0.6209 -0.9176  0.4694
14594TIP3    H165273   1.170   2.279  13.535  1.0781 -1.4209 -1.2910
14594TIP3    H265274   1.193   2.187  13.653  0.5051  0.6975  0.5356
14595TIP3   OH265275   3.497   2.285  15.567 -0.2995 -0.1834 -0.2624
14595TIP3    H165276   3.489   2.220  15.497  2.1829 -1.3875  0.4681
14595TIP3    H265277   3.440   2.252  15.637 -2.0365  0.5240 -1.2700
14596TIP3   OH265278   1.708   5.938  11.794 -0.1845 -0.5078  0.0939
14596TIP3    H165279   1.677   5.987  11.719  0.4566  2.3301  1.5392
14596TIP3    H265280   1.800   5.920  11.775 -0.4008 -1.1242 -0.4056
14597TIP3   OH265281   1.141   1.347  13.674  0.2109 -0.2759  0.6881
14597TIP3    H165282   1.112   1.390  13.593 -1.6378  0.3355  1.6437
14597TIP3    H265283   1.165   1.259  13.646  1.2442  0.4220 -0.7966
14598TIP3   OH265284   3.589   3.837   3.896  0.1175  0.4349  0.2083
14598TIP3    H165285   3.509   3.891   3.890  1.1616  2.0862  0.3723
14598TIP3    H265286   3.588   3.801   3.984  0.4668  2.0221  0.8970
14599TIP3   OH265287   0.578   1.900  14.262  0.1152  0.1281  0.6981
14599TIP3    H165288   0.632   1.835  14.217 -0.1866  0.7160 -0.5559
14599TIP3    H265289   0.628   1.982  14.257 -0.0676  0.2793  1.1662
14600TIP3   OH265290   4.321   1.517  12.432  0.0598  0.2976  0.1272
14600TIP3    H165291   4.355   1.600  12.398 -0.0397  0.4254  0.3381
14600TIP3    H265292   4.253   1.542  12.495 -1.0196  0.0269 -0.9005
14601TIP3   OH265293   0.493   3.798  12.355 -0.1320 -0.0884 -0.2723
14601TIP3    H165294   0.573   3.850  12.354 -0.0891 -0.1543 -0.6938
14601TIP3    H265295   0.521   3.711  12.385 -0.1833  0.0947  0.3163
14602TIP3   OH265296   6.453   6.004  15.623 -0.2209  0.1322 -0.4075
14602TIP3    H165297   6.418   6.040  15.705 -2.4649 -0.4150 -1.0360
14602TIP3    H265298   6.508   5.931  15.650  1.4176  1.6975  0.7063
14603TIP3   OH265299   6.446   3.521   2.384 -0.2665  0.4429 -0.4760
14603TIP3    H165300   6.376   3.581   2.360  0.2319  1.1486 -0.2058
14603TIP3    H265301   6.496   3.509   2.303 -0.7205 -0.1108 -0.6848
14604TIP3   OH265302   1.502   5.802  12.835  0.5240 -0.0663 -0.4419
14604TIP3    H165303   1.454   5.810  12.917  0.8418  2.3991 -0.4287
14604TIP3    H265304   1.582   5.756  12.858 -0.6769 -2.0942 -0.0164
14605TIP3   OH265305   2.894   5.675   1.032  0.0587  0.5453 -0.0597
14605TIP3    H165306   2.963   5.611   1.043  1.0255  0.7532 -3.6387
14605TIP3    H265307   2.817   5.624   1.007 -0.1829  0.5547  0.6450
14606TIP3   OH265308   0.520   1.931   1.092 -0.0336  0.0080  0.0374
14606TIP3    H165309   0.509   1.934   1.187 -0.9263  1.3120 -0.0717
14606TIP3    H265310   0.448   1.985   1.058 -0.4325 -1.3542 -1.4406
14607TIP3   OH265311   0.300   5.103   2.663 -0.4645  0.1070 -0.2909
14607TIP3    H165312   0.364   5.033   2.653  0.5576  1.2003 -1.9174
14607TIP3    H265313   0.254   5.082   2.744  3.7853  0.6743  2.6531
14608TIP3   OH265314   4.054   6.760   4.955 -0.2598  0.5659 -0.0910
14608TIP3    H165315   4.133   6.805   4.986  0.3889 -0.2791 -0.4829
14608TIP3    H265316   4.012   6.729   5.036  0.4711 -0.0515  0.0702
14609TIP3   OH265317   2.938   3.516  16.675 -0.7976  0.4433  0.2546
14609TIP3    H165318   2.848   3.543  16.658 -0.4142  1.2664 -0.5124
14609TIP3    H265319   2.953   3.442  16.616 -1.2775 -0.3606  1.1047
14610TIP3   OH265320   0.719   3.654  13.555  0.0747  0.6140 -0.2804
14610TIP3    H165321   0.706   3.748  13.565 -1.6019  0.4082 -0.0972
14610TIP3    H265322   0.754   3.626  13.640  1.2265  1.1452 -0.5612
14611TIP3   OH265323   5.591   1.215  15.572  0.6043  0.1357  0.5668
14611TIP3    H165324   5.543   1.186  15.649  0.3199  0.3826  0.4838
14611TIP3    H265325   5.562   1.156  15.502 -1.1072  1.5110  0.0446
14612TIP3   OH265326   5.106   2.030   0.507 -0.6905  0.3796  0.0097
14612TIP3    H165327   5.059   2.059   0.429  0.1996 -0.2099 -0.7722
14612TIP3    H265328   5.049   1.965   0.548 -1.1812  0.7284 -0.1105
14613TIP3   OH265329   4.302   4.693  16.962 -0.1588 -0.5944 -0.4104
14613TIP3    H165330   4.381   4.746  16.950  2.0360 -2.9640  2.3400
14613TIP3    H265331   4.334   4.605  16.982 -3.5606 -1.9865 -0.3761
14614TIP3   OH265332   6.653   1.590  13.760 -0.1580  0.3418  0.3105
14614TIP3    H165333   6.640   1.511  13.707  1.3693  1.4309 -1.8390
14614TIP3    H265334   6.597   1.656  13.718 -0.7998  0.6409  1.5931
14615TIP3   OH265335   6.217   1.094   2.424  0.6294  0.3699  0.0172
14615TIP3    H165336   6.209   1.174   2.372  1.7908  0.8664  0.5458
14615TIP3    H265337   6.156   1.033   2.385  1.0727  0.9061 -1.5858
14616TIP3   OH265338   4.990   1.407  16.104  0.2722 -0.0743  0.2752
14616TIP3    H165339   4.959   1.494  16.080  1.5795  0.3762  0.1105
14616TIP3    H265340   4.912   1.360  16.134 -1.7088 -0.8379 -4.9998
14617TIP3   OH265341   2.019   6.503  12.858 -0.1319 -0.0676  0.4420
14617TIP3    H165342   1.988   6.594  12.862 -0.4493  0.0649 -2.6075
14617TIP3    H265343   2.113   6.509  12.873 -0.3470  0.5194  1.7838
14618TIP3   OH265344   5.114   6.714  14.647  0.3683 -0.9261  0.0026
14618TIP3    H165345   5.076   6.704  14.560  0.0643  0.1239 -0.0097
14618TIP3    H265346   5.190   6.656  14.648  1.1018 -0.0333 -1.4068
14619TIP3   OH265347   3.403   2.251  14.190 -0.1095 -0.4919  0.0733
14619TIP3    H165348   3.471   2.317  14.173 -0.0740 -0.7557 -0.8779
14619TIP3    H265349   3.324   2.289  14.152 -0.1628 -0.8373 -0.1636
14620TIP3   OH265350   4.224   0.280  16.076 -0.1217 -0.3492 -0.4171
14620TIP3    H165351   4.282   0.357  16.084 -1.8234  0.8526  1.3539
14620TIP3    H265352   4.283   0.207  16.058  1.7442  1.1118 -0.5136
14621TIP3   OH265353   4.715   2.970  15.437 -0.5651  0.0966  0.5341
14621TIP3    H165354   4.647   3.028  15.470  0.3607  0.8765  1.1405
14621TIP3    H265355   4.773   3.027  15.387 -0.1154 -0.4712  0.3930
14622TIP3   OH265356   3.016   5.251  15.990  0.8017  0.2141  0.1029
14622TIP3    H165357   3.030   5.199  16.070 -2.2078  1.7337  1.7961
14622TIP3    H265358   3.082   5.320  15.994  2.5092 -1.3181 -0.3008
14623TIP3   OH265359   3.098   0.266   2.967 -0.1325  0.4030  0.1422
14623TIP3    H165360   3.148   0.276   3.048 -2.2377  0.0537  1.5948
14623TIP3    H265361   3.157   0.293   2.898  2.2460 -0.6206  1.6559
14624TIP3   OH265362   1.655   3.480   3.051  0.5068 -0.2184 -0.1395
14624TIP3    H165363   1.644   3.449   2.961 -0.8190 -1.1681  0.3061
14624TIP3    H265364   1.571   3.519   3.073  0.4664 -0.9069  1.0061
14625TIP3   OH265365   0.242   3.286   0.726 -0.4441  0.3601 -0.2255
14625TIP3    H165366   0.183   3.356   0.754 -0.6914  0.6665 -1.4363
14625TIP3    H265367   0.266   3.309   0.636 -0.5583 -1.1123 -0.6689
14626TIP3   OH265368   1.920   1.283  13.823  0.3267  0.3989  0.4925
14626TIP3    H165369   1.853   1.325  13.877 -2.0797 -1.4320 -0.8620
14626TIP3    H265370   1.932   1.197  13.863 -2.1543 -1.3562 -2.1383
14627TIP3   OH265371   5.270   2.948   5.125 -0.0542 -0.5810 -0.1394
14627TIP3    H165372   5.332   3.003   5.174 -0.4223 -0.4556  0.1911
14627TIP3    H265373   5.204   2.924   5.189 -1.5052  1.0310 -0.9349
14628TIP3   OH265374   6.627   4.202   0.233  0.4044 -0.2094 -0.2219
14628TIP3    H165375   6.653   4.278   0.179  0.7549  0.7437  1.2302
14628TIP3    H265376   6.633   4.234   0.323 -0.2946 -1.7282  0.3876
14629TIP3   OH265377   3.509   2.570   0.761 -0.2239 -0.0818  0.3346
14629TIP3    H165378   3.566   2.540   0.690 -0.6440 -0.3259  0.1019
14629TIP3    H265379   3.505   2.496   0.822 -1.3327 -0.5537 -0.2832
14630TIP3   OH265380   4.274   2.592  12.445 -0.9130 -0.1730 -0.2174
14630TIP3    H165381   4.194   2.590  12.393  0.3884  0.1830 -2.3604
14630TIP3    H265382   4.308   2.503  12.439 -0.5853 -0.0452 -0.2932
14631TIP3   OH265383   2.420   5.598   1.294  0.2075  0.7369 -0.6464
14631TIP3    H165384   2.503   5.645   1.290  0.5188  0.1244 -1.8432
14631TIP3    H265385   2.440   5.516   1.340  0.7222 -0.2224 -2.4651
14632TIP3   OH265386   1.709   6.560  11.436 -0.2128  0.4085  0.5261
14632TIP3    H165387   1.757   6.543  11.517 -0.3189  1.3309  0.7971
14632TIP3    H265388   1.752   6.505  11.371  1.0423  0.9873  0.8217
14633TIP3   OH265389   1.106   1.689  12.780  0.6694  0.9066 -0.7723
14633TIP3    H165390   1.157   1.740  12.843  0.0928 -0.1654  0.6023
14633TIP3    H265391   1.018   1.724  12.787 -0.2413 -1.4939  1.7332
14634TIP3   OH265392   5.662   1.596   3.780  0.5121  0.4678  0.6745
14634TIP3    H165393   5.738   1.644   3.748 -0.4572  2.2928  0.9759
14634TIP3    H265394   5.619   1.564   3.701  2.3095 -1.8649  0.5414
14635TIP3   OH265395   1.665   1.668   3.046 -0.2216 -0.4480  0.3057
14635TIP3    H165396   1.686   1.700   3.134  1.1843  0.0996 -0.2112
14635TIP3    H265397   1.721   1.591   3.035  2.6170  1.6788 -1.5145
14636TIP3   OH265398   2.031   3.921  14.512  0.3263 -0.5889 -0.0536
14636TIP3    H165399   1.957   3.891  14.460  0.9361 -0.6906 -0.8916
14636TIP3    H265400   2.107   3.907  14.455  0.8194  0.9784  0.1716
14637TIP3   OH265401   4.401   1.409   6.083  0.0799 -0.1221 -0.1698
14637TIP3    H165402   4.332   1.351   6.048  0.8157 -0.2254 -1.5191
14637TIP3    H265403   4.482   1.371   6.050  1.0454 -1.3161  3.2287
14638TIP3   OH265404   5.602   3.801  11.720 -0.7201  0.0582 -0.0432
14638TIP3    H165405   5.683   3.833  11.679 -0.4333  0.6965  0.9881
14638TIP3    H265406   5.540   3.795  11.647 -0.4060  1.7843 -0.5169
14639TIP3   OH265407   3.576   6.487   1.983 -0.4234 -0.6365 -0.2240
14639TIP3    H165408   3.649   6.505   1.925 -0.4787  1.3464  0.2469
14639TIP3    H265409   3.499   6.516   1.934 -0.7196 -1.0892 -0.0371
14640TIP3   OH265410   1.163   4.760   2.929 -0.3677  0.2142  0.3911
14640TIP3    H165411   1.135   4.677   2.890 -0.6905 -0.5282  2.1034
14640TIP3    H265412   1.098   4.824   2.898 -1.3424 -0.5963  0.7019
14641TIP3   OH265413   5.651   2.382  15.151 -0.0051 -0.1085 -0.0354
14641TIP3    H165414   5.680   2.343  15.234  1.3968  0.5246 -0.2042
14641TIP3    H265415   5.623   2.470  15.174 -1.2781 -0.5065  0.0220
14642TIP3   OH265416   5.060   0.180  14.596 -0.1729 -0.1906 -0.5506
14642TIP3    H165417   5.024   0.269  14.595  0.3576  0.0916  1.4550
14642TIP3    H265418   5.142   0.187  14.546 -0.5338  0.2565 -1.0836
14643TIP3   OH265419   3.845   5.477   5.104  0.2888 -0.5373 -0.4746
14643TIP3    H165420   3.791   5.453   5.180  0.5430  1.4369  0.3939
14643TIP3    H265421   3.782   5.497   5.035  0.0374 -1.8362 -0.6283
14644TIP3   OH265422   4.065   6.481   1.145  0.0436 -0.6417  0.7056
14644TIP3    H165423   4.148   6.440   1.168  1.3274  0.1859 -2.0600
14644TIP3    H265424   4.082   6.575   1.153 -0.8735 -0.4765  0.8100
14645TIP3   OH265425   2.156   1.703   3.715 -0.4250 -0.4680 -0.7232
14645TIP3    H165426   2.190   1.641   3.780 -1.8381  0.9771  1.5302
14645TIP3    H265427   2.172   1.789   3.753 -2.1014  0.4116 -1.8784
14646TIP3   OH265428   3.330   4.638  14.905  0.8419  0.2835 -0.3979
14646TIP3    H165429   3.293   4.612  14.990  0.4674 -0.9353 -0.9121
14646TIP3    H265430   3.376   4.560  14.874  1.4533  0.8944 -1.0726
14647TIP3   OH265431   0.863   2.136  14.830  0.2744  0.0114  0.3073
14647TIP3    H165432   0.791   2.116  14.891  1.0477  0.2057  1.3025
14647TIP3    H265433   0.821   2.186  14.760 -0.3929  1.0477  1.4055
14648TIP3   OH265434   2.889   2.279   6.205 -0.0992  0.0148 -0.2072
14648TIP3    H165435   2.973   2.298   6.165 -0.6233  2.7160 -0.2340
14648TIP3    H265436   2.900   2.194   6.247  1.7616 -0.9536 -2.4712
14649TIP3   OH265437   2.931   2.534   5.712  0.2325  0.4896 -0.2079
14649TIP3    H165438   2.944   2.623   5.680  0.7907  0.1385 -0.9827
14649TIP3    H265439   2.902   2.545   5.802 -2.8105  1.5319 -1.2196
14650TIP3   OH265440   2.679   3.377  15.072 -0.2255 -0.2222 -0.0375
14650TIP3    H165441   2.664   3.396  15.165  3.0897  0.5020  0.4598
14650TIP3    H265442   2.688   3.282  15.068  3.7303 -0.0824  1.2948
14651TIP3   OH265443   5.489   3.562   4.665 -0.7349  0.6531  0.0744
14651TIP3    H165444   5.421   3.500   4.690 -1.1317  1.0303 -0.0621
14651TIP3    H265445   5.549   3.512   4.610  1.7949 -1.0966  3.9091
14652TIP3   OH265446   2.472   4.767   0.478 -0.0240  0.5848  0.5020
14652TIP3    H165447   2.392   4.815   0.499  0.2390  0.7605  1.1236
14652TIP3    H265448   2.492   4.791   0.388 -0.8430  0.2951  0.2372
14653TIP3   OH265449   3.263   6.456  15.098  0.1479  0.6840  0.1847
14653TIP3    H165450   3.233   6.473  15.008  1.7661  0.2850 -0.4754
14653TIP3    H265451   3.318   6.532  15.119 -0.0577  0.6741  0.7584
14654TIP3   OH265452   5.165   5.181   1.097  0.5096 -0.0053  0.6338
14654TIP3    H165453   5.245   5.215   1.057  0.3463 -0.9303 -0.5574
14654TIP3    H265454   5.171   5.086   1.085  0.5052 -0.3450  2.9811
14655TIP3   OH265455   6.017   0.332   5.327  0.5105 -0.2384 -0.3911
14655TIP3    H165456   5.967   0.253   5.306 -2.1802  0.6968  1.8712
14655TIP3    H265457   6.059   0.311   5.411  0.7854  0.3011 -0.3948
14656TIP3   OH265458   1.125   1.999   1.763  0.4546  0.1291 -0.0025
14656TIP3    H165459   1.180   2.039   1.695 -0.4433  1.3858 -0.0386
14656TIP3    H265460   1.181   1.996   1.840  0.8026  0.7713 -0.2164
14657TIP3   OH265461   6.708   0.726  11.909  0.4406  0.1501 -0.6822
14657TIP3    H165462   6.727   0.762  11.823 -0.3029  0.0179 -0.9044
14657TIP3    H265463   6.624   0.681  11.899  1.0080 -1.0665 -0.2481
14658TIP3   OH265464   3.284   5.207   1.593  0.0959  0.0391  1.0140
14658TIP3    H165465   3.271   5.229   1.501 -0.1078 -0.1401  0.9984
14658TIP3    H265466   3.358   5.146   1.592  1.2344  1.3734  1.1431
14659TIP3   OH265467   0.074   6.326  15.236 -0.3177  0.4789  0.3230
14659TIP3    H165468   0.051   6.323  15.329 -1.7666 -0.4848 -0.0311
14659TIP3    H265469   0.080   6.419  15.215  0.2009  0.7027  1.4132
14660TIP3   OH265470   0.402   4.258  16.347  0.2937 -0.5953 -0.1170
14660TIP3    H165471   0.327   4.248  16.288  1.7797 -1.2781 -1.9790
14660TIP3    H265472   0.378   4.332  16.403 -1.0320  0.3469 -1.8263
14661TIP3   OH265473   4.732   2.833  16.136 -0.4237 -0.1144  0.6712
14661TIP3    H165474   4.647   2.791  16.123 -0.2806 -0.2530  0.1680
14661TIP3    H265475   4.741   2.840  16.231 -0.5838 -0.9455  0.7524
14662TIP3   OH265476   4.196   3.044  11.842  0.3225  0.1892 -0.0409
14662TIP3    H165477   4.106   3.073  11.856  0.3184  0.7814 -1.1465
14662TIP3    H265478   4.247   3.125  11.836  0.6682 -0.0801 -0.9643
14663TIP3   OH265479   1.959   4.091   5.210 -0.1076  0.0354 -0.3923
14663TIP3    H165480   1.925   4.146   5.140  0.6356  2.0066  0.7201
14663TIP3    H265481   2.047   4.123   5.226  0.6788 -2.0589 -0.2240
14664TIP3   OH265482   0.558   3.875   2.519 -0.1283 -0.0445  0.5106
14664TIP3    H165483   0.527   3.811   2.455 -0.3707  0.7698 -0.2062
14664TIP3    H265484   0.653   3.875   2.508  0.0847 -1.6606  1.8677
14665TIP3   OH265485   2.361   5.744  11.678 -0.3709  0.0212  0.3534
14665TIP3    H165486   2.284   5.743  11.620  1.5311  0.2717 -2.3713
14665TIP3    H265487   2.424   5.800  11.632  2.3138 -2.0824  1.2600
14666TIP3   OH265488   0.191   1.757   3.038  0.4590  0.1678  0.1984
14666TIP3    H165489   0.251   1.825   3.009 -0.9268  1.8575  1.0743
14666TIP3    H265490   0.121   1.804   3.083 -2.1955 -1.5413 -1.8160
14667TIP3   OH265491   2.026   3.994  10.690 -0.0242  0.3115 -0.6723
14667TIP3    H165492   2.070   4.062  10.741  0.8130 -0.6934 -0.0038
14667TIP3    H265493   2.095   3.954  10.638  0.1580 -2.0391  1.2272
14668TIP3   OH265494   4.929   5.510  12.711  0.9076 -0.1908  0.5940
14668TIP3    H165495   4.969   5.499  12.624  1.9926  2.8994  0.5661
14668TIP3    H265496   5.004   5.520  12.770  0.2181  1.1403  1.2979
14669TIP3   OH265497   4.822   5.283   4.702 -0.0370  0.2367 -0.1009
14669TIP3    H165498   4.771   5.363   4.712 -0.9557 -0.2422 -0.8120
14669TIP3    H265499   4.764   5.223   4.656  0.6342 -0.8444  0.4119
14670TIP3   OH265500   5.685   1.631  11.355 -0.8641  0.0055  0.3158
14670TIP3    H165501   5.778   1.639  11.374 -1.0278 -0.1381  1.2834
14670TIP3    H265502   5.647   1.598  11.437 -1.6836 -0.4674 -0.2334
14671TIP3   OH265503   0.805   6.468  16.794  0.2156 -0.3017 -0.9798
14671TIP3    H165504   0.776   6.432  16.877  1.0968  0.1276 -0.4629
14671TIP3    H265505   0.726   6.475  16.741 -0.4304 -0.1791 -0.0243
14672TIP3   OH265506   6.475   6.545  11.796  0.0094 -0.2532  0.4699
14672TIP3    H165507   6.494   6.485  11.867 -0.7966 -2.9751 -1.4451
14672TIP3    H265508   6.405   6.502  11.746 -0.2304  2.0296 -1.3563
14673TIP3   OH265509   0.491   1.392  11.646  0.7641 -0.5519  0.0690
14673TIP3    H165510   0.503   1.386  11.740 -0.0225 -0.6171  0.1721
14673TIP3    H265511   0.546   1.322  11.610 -0.6220 -1.9657  0.6216
14674TIP3   OH265512   4.382   6.790  12.034  0.1260  0.4266  0.2904
14674TIP3    H165513   4.347   6.705  12.060 -0.5121  0.8043  0.7074
14674TIP3    H265514   4.412   6.830  12.115  0.7758  0.4483  0.0453
14675TIP3   OH265515   0.135   6.531  16.203 -0.3927 -0.2689  0.2130
14675TIP3    H165516   0.082   6.609  16.215 -0.6959 -0.1791 -1.5041
14675TIP3    H265517   0.083   6.460  16.240 -2.0926 -0.2902 -1.9889
14676TIP3   OH265518   0.873   1.436  11.936  0.3232  0.2641 -0.4377
14676TIP3    H165519   0.807   1.495  11.900  0.4459  1.7342  1.5875
14676TIP3    H265520   0.946   1.441  11.875 -0.4087  0.7159 -1.2991
14677TIP3   OH265521   6.479   4.905  13.754  0.7802 -0.2446 -0.0811
14677TIP3    H165522   6.418   4.864  13.816 -1.5061  0.4333 -1.7549
14677TIP3    H265523   6.433   4.983  13.724  2.3810  0.1529 -1.6399
14678TIP3   OH265524   2.399   4.885   3.881 -0.4199  0.0147 -0.0879
14678TIP3    H165525   2.388   4.979   3.894  1.0342  0.5442 -2.1833
14678TIP3    H265526   2.310   4.849   3.891 -0.5224  0.9307  4.6289
14679TIP3   OH265527   2.491   1.942  16.111  0.1991 -0.4638 -0.0354
14679TIP3    H165528   2.507   2.028  16.149  0.8585 -0.8665  0.6226
14679TIP3    H265529   2.397   1.928  16.121  0.2114 -0.1385  0.5455
14680TIP3   OH265530   3.228   4.942   3.326  0.2066  0.1587 -0.2588
14680TIP3    H165531   3.239   5.037   3.328 -0.0837  0.2219 -0.9690
14680TIP3    H265532   3.214   4.922   3.233 -2.2560 -0.2556  0.1121
14681TIP3   OH265533   1.773   4.585  11.092  0.3487  0.8793  0.4645
14681TIP3    H165534   1.854   4.629  11.119 -0.5888  0.9684  3.5878
14681TIP3    H265535   1.734   4.645  11.028  2.8558  0.6334 -1.4560
14682TIP3   OH265536   5.644   5.790   4.965 -0.0529 -0.1831  0.2298
14682TIP3    H165537   5.699   5.839   5.027  0.3240  0.2283 -0.4194
14682TIP3    H265538   5.697   5.785   4.885 -0.0896 -1.6279  0.2556
14683TIP3   OH265539   2.177   1.661   4.945  0.1248 -0.6803  0.0330
14683TIP3    H165540   2.204   1.586   4.998  1.1123 -1.1750 -1.1047
14683TIP3    H265541   2.083   1.647   4.929 -0.7340  0.5373  3.2236
14684TIP3   OH265542   4.518   0.462   3.214 -0.0901  0.5126  0.0434
14684TIP3    H165543   4.573   0.532   3.248  0.3805  0.7187 -1.1036
14684TIP3    H265544   4.448   0.507   3.167  1.6590  0.3161 -3.0357
14685TIP3   OH265545   4.035   2.888   1.871  0.2840  0.4480 -0.2300
14685TIP3    H165546   4.044   2.804   1.825 -0.2881  0.7789 -0.9521
14685TIP3    H265547   3.942   2.908   1.866  0.4735  1.3048 -0.3482
14686TIP3   OH265548   0.953   3.802   4.876  0.5847 -0.4755 -0.0955
14686TIP3    H165549   0.959   3.882   4.824 -2.3871  0.5078  0.9083
14686TIP3    H265550   1.014   3.741   4.833  1.5384  1.6838 -1.9950
14687TIP3   OH265551   3.051   0.798  10.870  0.4116 -0.6710  0.7508
14687TIP3    H165552   3.077   0.743  10.944  0.1354 -1.6621  0.1298
14687TIP3    H265553   3.075   0.886  10.897  1.3041 -1.1411  1.5841
14688TIP3   OH265554   1.633   5.309  14.759 -0.2317 -1.0933 -0.1832
14688TIP3    H165555   1.674   5.226  14.737 -0.3379 -1.2345  0.1407
14688TIP3    H265556   1.543   5.301  14.725 -0.0341 -0.8347 -0.7757
14689TIP3   OH265557   2.640   3.845   0.723  0.6453  0.0822 -0.3582
14689TIP3    H165558   2.585   3.922   0.739  0.5871  0.0381 -0.3468
14689TIP3    H265559   2.634   3.795   0.804  1.1003  0.3244 -0.1750
14690TIP3   OH265560   3.082   3.985  10.561  0.2615  0.2191 -0.3356
14690TIP3    H165561   3.102   3.915  10.499 -1.7742 -1.6231  0.9115
14690TIP3    H265562   3.128   3.959  10.641 -0.4395  0.3117  0.1087
14691TIP3   OH265563   1.546   4.720   5.649  0.0283  0.6015 -0.0722
14691TIP3    H165564   1.487   4.695   5.577  1.5451 -0.1581 -1.1021
14691TIP3    H265565   1.622   4.664   5.638 -0.3245 -0.7112  3.1248
14692TIP3   OH265566   6.017   6.580  16.204 -0.4196  0.4173 -0.5698
14692TIP3    H165567   5.978   6.667  16.193  0.0001  0.9617  1.6885
14692TIP3    H265568   5.949   6.528  16.246  0.2618  0.5570  0.7907
14693TIP3   OH265569   2.895   3.177   0.597 -0.6667 -0.0927  0.2777
14693TIP3    H165570   2.852   3.101   0.559 -0.7575 -0.0154  0.2244
14693TIP3    H265571   2.957   3.141   0.660  0.9689 -0.3289 -1.3840
14694TIP3   OH265572   3.016   5.091  14.778 -0.4747  0.0452 -0.0999
14694TIP3    H165573   3.042   5.147  14.851  0.4408 -0.4107 -0.0600
14694TIP3    H265574   3.008   5.150  14.703 -0.9385  0.4404  0.2608
14695TIP3   OH265575   4.241   0.976  11.162 -0.1447  0.2161 -0.1004
14695TIP3    H165576   4.289   1.023  11.093  0.9279  0.4906  0.8064
14695TIP3    H265577   4.310   0.934  11.214 -1.0278 -1.9758 -0.5688
14696TIP3   OH265578   5.869   1.653  13.139 -1.0677  0.3440  0.2114
14696TIP3    H165579   5.932   1.615  13.201 -0.4215  0.0735 -0.5825
14696TIP3    H265580   5.912   1.643  13.054 -2.1064  0.3504 -0.3243
14697TIP3   OH265581   2.901   1.817   0.591 -0.0023 -0.1707 -0.1718
14697TIP3    H165582   2.904   1.721   0.588 -3.3574 -0.4101 -2.4922
14697TIP3    H265583   2.854   1.837   0.672  0.8915 -0.4629  0.4249
14698TIP3   OH265584   1.847   6.191  12.571  0.5456  0.2748  0.1499
14698TIP3    H165585   1.857   6.126  12.501  0.1006  0.5918 -0.2084
14698TIP3    H265586   1.935   6.201  12.607  0.3966 -1.6134  1.1923
14699TIP3   OH265587   6.666   0.886  16.642  0.2014 -0.9301 -0.2263
14699TIP3    H165588   6.587   0.899  16.590  0.5355 -0.1193 -0.5549
14699TIP3    H265589   6.737   0.920  16.588  0.5207  0.2505  0.8737
14700TIP3   OH265590   6.650   2.804   3.974 -0.4632  0.0365  0.2981
14700TIP3    H165591   6.731   2.752   3.982 -0.7271 -0.5972 -0.9299
14700TIP3    H265592   6.679   2.889   3.944 -0.1979  0.0214  0.5015
14701TIP3   OH265593   4.269   4.774   5.199  1.2540  0.0896 -0.2320
14701TIP3    H165594   4.247   4.728   5.118  1.2416 -1.3024  0.5152
14701TIP3    H265595   4.185   4.800   5.236  1.1153 -1.0620  0.3048
14702TIP3   OH265596   5.200   4.692  12.320 -0.1202  0.6940 -0.0346
14702TIP3    H165597   5.149   4.626  12.274  0.3597 -1.2483  2.0784
14702TIP3    H265598   5.169   4.775  12.284 -2.4287 -0.5453 -1.1214
14703TIP3   OH265599   2.701   5.304  16.818 -0.3671  0.1929 -0.1019
14703TIP3    H165600   2.649   5.242  16.766 -1.5540  0.2425  0.9983
14703TIP3    H265601   2.648   5.383  16.821  0.8547  1.0738 -0.9473
14704TIP3   OH265602   5.730   2.015   0.579 -0.0757  0.1499 -0.0695
14704TIP3    H165603   5.723   1.991   0.486  0.7836 -2.4062  0.4496
14704TIP3    H265604   5.823   2.036   0.591 -0.5397  2.4974 -0.1617
14705TIP3   OH265605   3.098   2.286  11.513  0.3284 -0.3997  0.2208
14705TIP3    H165606   3.098   2.378  11.539 -3.3787 -0.3903  0.8390
14705TIP3    H265607   3.043   2.242  11.579 -1.1547 -2.2706 -2.0670
14706TIP3   OH265608   6.674   5.451   2.432 -0.5095  0.0602  0.0774
14706TIP3    H165609   6.593   5.480   2.390 -0.4683  0.3871  0.2206
14706TIP3    H265610   6.744   5.494   2.382 -0.3849 -0.7716 -0.4885
14707TIP3   OH265611   0.620   5.253   1.274  0.4987  0.4001  0.2207
14707TIP3    H165612   0.546   5.212   1.229  0.5313  0.1017  0.4390
14707TIP3    H265613   0.683   5.182   1.286  0.7848  0.6326  0.1157
14708TIP3   OH265614   6.111   5.690   2.677 -0.1437  0.0688 -1.1884
14708TIP3    H165615   6.166   5.755   2.720 -0.7784 -0.8306  1.1516
14708TIP3    H265616   6.043   5.670   2.741 -0.8214 -1.8091 -2.4002
14709TIP3   OH265617   4.646   6.027  14.162 -0.5096  0.8994 -0.2285
14709TIP3    H165618   4.620   5.985  14.244 -0.7123  2.6121  0.6192
14709TIP3    H265619   4.730   5.986  14.140 -2.0524 -2.0953 -1.0862
14710TIP3   OH265620   0.580   4.697   1.158 -0.1789  0.1547  0.2256
14710TIP3    H165621   0.674   4.710   1.151 -0.1387  0.6682  1.3791
14710TIP3    H265622   0.556   4.645   1.082  0.9649  0.3966 -0.3109
14711TIP3   OH265623   4.639   4.328  13.867 -0.0245  0.5526 -0.4376
14711TIP3    H165624   4.608   4.392  13.931 -2.0370 -0.2103 -0.5740
14711TIP3    H265625   4.593   4.247  13.889  0.3050 -0.0986 -1.9760
14712TIP3   OH265626   0.780   6.391   1.911 -0.2534 -0.0969  0.4715
14712TIP3    H165627   0.858   6.433   1.947 -0.5257  1.1285 -0.2932
14712TIP3    H265628   0.720   6.385   1.985 -0.6185  1.9095  0.3828
14713TIP3   OH265629   1.512   1.619  16.203  0.2386  0.2411 -0.9821
14713TIP3    H165630   1.574   1.674  16.252 -0.0128  1.7048 -2.2304
14713TIP3    H265631   1.437   1.611  16.262  1.7896 -2.1794  0.8727
14714TIP3   OH265632   4.032   3.464  12.496 -0.0290  0.1965 -0.6801
14714TIP3    H165633   4.060   3.544  12.539 -0.8315 -0.3903  1.0085
14714TIP3    H265634   3.936   3.470  12.493 -0.0548 -0.3163 -1.3299
14715TIP3   OH265635   3.850   2.003   4.941 -0.0017 -0.1754 -0.3987
14715TIP3    H165636   3.917   2.064   4.909 -0.0165 -0.2464 -0.5638
14715TIP3    H265637   3.776   2.059   4.965  0.0740 -0.1070 -0.3249
14716TIP3   OH265638   4.455   1.411  12.804 -0.1172 -0.1117  0.3415
14716TIP3    H165639   4.387   1.475  12.784 -0.8529 -0.6526  1.0354
14716TIP3    H265640   4.537   1.457  12.786 -0.6467  0.7127 -0.0484
14717TIP3   OH265641   1.727   1.698   1.901 -0.6917 -0.0428  0.1187
14717TIP3    H165642   1.680   1.700   1.817 -2.1333 -1.1420  0.8527
14717TIP3    H265643   1.810   1.655   1.881 -0.1762  1.4197 -1.1008
14718TIP3   OH265644   0.498   1.579  14.176 -0.4673 -0.0257  0.1918
14718TIP3    H165645   0.526   1.628  14.099 -1.3024 -1.9047 -1.3809
14718TIP3    H265646   0.574   1.582  14.235  0.2685  1.2635 -0.7808
14719TIP3   OH265647   2.083   4.462  10.767  0.2781  0.4817  0.1363
14719TIP3    H165648   2.010   4.510  10.807  1.1952  0.7915  1.4857
14719TIP3    H265649   2.066   4.468  10.673 -1.3034  0.7481  0.4051
14720TIP3   OH265650   4.090   2.951   3.285  0.2008  0.0800  0.3059
14720TIP3    H165651   4.115   2.899   3.361 -1.5201 -0.2754  0.6647
14720TIP3    H265652   4.007   2.913   3.255  0.6733  0.4093 -1.5783
14721TIP3   OH265653   6.762   3.509  16.551 -0.0736 -0.4008 -0.1890
14721TIP3    H165654   6.697   3.577  16.568 -0.4773 -0.8274  0.0117
14721TIP3    H265655   6.716   3.427  16.571  0.9168 -0.6497  1.1564
14722TIP3   OH265656   6.340   5.038  11.665 -0.0111 -0.4696 -0.7453
14722TIP3    H165657   6.267   5.014  11.722  0.3333 -0.6487 -0.3698
14722TIP3    H265658   6.408   5.068  11.725 -0.9264  3.0431 -1.2374
14723TIP3   OH265659   2.459   2.109  13.952  0.1075  0.1968 -0.6139
14723TIP3    H165660   2.392   2.055  13.910  0.3574 -0.5247 -0.1231
14723TIP3    H265661   2.424   2.198  13.950 -1.4354 -0.3250  0.7191
14724TIP3   OH265662   1.748   1.286   1.699 -0.1714  0.0734 -0.5085
14724TIP3    H165663   1.771   1.234   1.622 -0.8840  0.5585 -1.0668
14724TIP3    H265664   1.694   1.357   1.664 -0.1920  0.5112  0.3938
14725TIP3   OH265665   1.380   4.927   5.394 -0.4745  0.6025  0.1985
14725TIP3    H165666   1.370   4.839   5.429 -0.7580  1.2503  1.8276
14725TIP3    H265667   1.359   4.918   5.301  0.0087 -1.1243  0.2219
14726TIP3   OH265668   3.518   6.227   5.766  0.6413  0.2111 -0.3596
14726TIP3    H165669   3.546   6.228   5.858 -1.0301  0.3123  0.1884
14726TIP3    H265670   3.542   6.313   5.733  1.0431  0.2652  0.0606
14727TIP3   OH265671   4.786   1.387   6.298  0.0207 -0.1294 -0.1869
14727TIP3    H165672   4.798   1.406   6.391 -1.6312 -1.5507  0.3853
14727TIP3    H265673   4.744   1.465   6.262 -1.0164 -0.2473  0.7073
14728TIP3   OH265674   3.926   6.686  14.828 -0.0716  0.8410  0.1433
14728TIP3    H165675   3.917   6.592  14.816  0.5922  0.9378 -1.2864
14728TIP3    H265676   4.021   6.699  14.840  0.0387  1.4790 -1.2922
14729TIP3   OH265677   2.542   4.398  12.962  0.9816 -0.1165  0.3026
14729TIP3    H165678   2.565   4.403  12.869 -0.2710  0.8718  0.0189
14729TIP3    H265679   2.558   4.486  12.995  0.8546 -0.3081  0.8900
14730TIP3   OH265680   4.637   5.676   2.675  0.5825  0.0450  0.0563
14730TIP3    H165681   4.592   5.760   2.662 -0.0408 -0.2491  0.2819
14730TIP3    H265682   4.712   5.698   2.730  0.1299  0.3742  0.5541
14731TIP3   OH265683   0.578   2.790  14.752  0.1248 -0.2761 -0.6434
14731TIP3    H165684   0.604   2.712  14.702 -1.2680 -0.8456 -0.5243
14731TIP3    H265685   0.604   2.771  14.842 -0.7544 -0.8871 -0.5058
14732TIP3   OH265686   0.068   4.190   2.212 -0.5181 -0.4746  0.9251
14732TIP3    H165687   0.140   4.171   2.272 -0.7261 -0.8976  1.0482
14732TIP3    H265688  -0.011   4.163   2.259 -0.7678  0.0929  0.8347
14733TIP3   OH265689   0.187   1.702  13.671 -0.2893 -0.7358 -0.7711
14733TIP3    H165690   0.176   1.607  13.681 -0.5218 -0.6697 -0.3751
14733TIP3    H265691   0.281   1.714  13.660  0.6038 -0.5932  4.3807
14734TIP3   OH265692   6.593   1.010  11.914 -0.7200 -0.2568  0.7054
14734TIP3    H165693   6.627   1.005  12.003  0.8351 -0.5463  0.1144
14734TIP3    H265694   6.658   0.966  11.860 -1.0180  0.9686 -0.7407
14735TIP3   OH265695   1.672   3.014   4.562  0.7936 -0.0097 -0.2738
14735TIP3    H165696   1.635   2.927   4.578  1.6829 -0.4188 -0.3987
14735TIP3    H265697   1.652   3.064   4.642 -0.6468  0.0075 -0.6276
14736TIP3   OH265698   4.195   6.074   5.071  0.1282 -0.2239 -0.2383
14736TIP3    H165699   4.203   5.988   5.111  0.7954 -0.2070 -0.3214
14736TIP3    H265700   4.116   6.069   5.018  0.5636 -1.0347 -0.8306
14737TIP3   OH265701   2.598   4.951   2.501  0.5277  0.6263 -0.1591
14737TIP3    H165702   2.589   4.875   2.444  0.3417  0.0877  0.5750
14737TIP3    H265703   2.626   5.021   2.443  1.8583 -0.2843 -0.6505
14738TIP3   OH265704   0.226   0.168   6.647 -0.1589 -0.4421 -0.1729
14738TIP3    H165705   0.176   0.102   6.597  0.3414 -1.9066  1.1741
14738TIP3    H265706   0.313   0.167   6.608 -0.0602 -0.8450  0.0445
14739TIP3   OH265707   1.767   1.882   4.405 -0.0487  0.6694  0.0058
14739TIP3    H165708   1.747   1.849   4.318 -0.0068  0.4201  0.0902
14739TIP3    H265709   1.861   1.867   4.416 -0.2029 -0.0624  0.4118
14740TIP3   OH265710   4.005   1.530  11.045 -0.3622  0.0253  0.2605
14740TIP3    H165711   4.098   1.514  11.030 -0.0847  2.4209 -1.1210
14740TIP3    H265712   3.984   1.602  10.986 -2.9469  0.0194  1.0724
14741TIP3   OH265713   4.700   2.769  11.777  0.2792  0.2569  0.2567
14741TIP3    H165714   4.634   2.839  11.777  0.6841  0.6729  1.9865
14741TIP3    H265715   4.771   2.803  11.723 -0.7420 -0.0777 -1.3944
14742TIP3   OH265716   3.684   2.671  13.259 -0.2586 -0.4692  0.0066
14742TIP3    H165717   3.766   2.627  13.283  0.1251 -0.3357 -1.0326
14742TIP3    H265718   3.651   2.704  13.342  1.4198  0.6501  0.2866
14743TIP3   OH265719   0.255   1.120  14.399  0.3080  0.1131 -0.5131
14743TIP3    H165720   0.255   1.215  14.408  0.0623  0.1330 -0.7060
14743TIP3    H265721   0.296   1.104  14.314  0.0779  0.0603 -0.6143
14744TIP3   OH265722   5.745   5.433  16.854  0.1258  0.5648 -0.5395
14744TIP3    H165723   5.780   5.455  16.941  0.2648 -0.1882 -0.4014
14744TIP3    H265724   5.688   5.358  16.870 -0.5004  0.9429 -0.9778
14745TIP3   OH265725   3.149   6.116  15.840  0.2189 -0.0640 -0.5072
14745TIP3    H165726   3.056   6.130  15.826  0.5242  1.1560 -1.4959
14745TIP3    H265727   3.185   6.102  15.752  0.9213 -0.8799 -0.1113
14746TIP3   OH265728   5.908   5.042  15.903  0.3618 -0.5689  0.2203
14746TIP3    H165729   5.857   4.964  15.879 -1.0770  0.3694  0.0731
14746TIP3    H265730   5.930   5.028  15.995  0.4208 -1.3084  0.0992
14747TIP3   OH265731   0.562   3.647   1.081  0.2898 -0.2416 -0.1922
14747TIP3    H165732   0.629   3.652   1.150 -0.3508  0.2622  0.4176
14747TIP3    H265733   0.503   3.578   1.110  0.3045 -0.3832 -0.5014
14748TIP3   OH265734   5.967   5.883   5.311  0.3436  0.1892  0.3793
14748TIP3    H165735   5.923   5.826   5.248  0.7956  0.0627  0.1748
14748TIP3    H265736   5.898   5.908   5.373 -0.0821  0.2589 -0.1229
14749TIP3   OH265737   3.036   5.707   5.543 -0.0977  0.2712 -0.0710
14749TIP3    H165738   3.045   5.781   5.602 -0.5768 -1.0980  1.8116
14749TIP3    H265739   3.027   5.746   5.456 -5.2174  2.7508  1.1886
14750TIP3   OH265740   0.571   3.510   5.116 -0.1209 -0.9190  0.2700
14750TIP3    H165741   0.541   3.571   5.049 -0.0037  0.5407  1.4894
14750TIP3    H265742   0.667   3.519   5.116 -0.2342  0.9248  2.2228
14751TIP3   OH265743   3.818   6.115  12.363 -0.8121  0.3605  0.5129
14751TIP3    H165744   3.776   6.178  12.421  0.1453  1.0051  0.5318
14751TIP3    H265745   3.755   6.100  12.293 -1.5058  0.4626  1.1013
14752TIP3   OH265746   5.908   1.942  12.324 -0.3322 -0.7268 -0.2821
14752TIP3    H165747   5.941   1.853  12.317 -0.0749 -0.6411 -0.1790
14752TIP3    H265748   5.893   1.969  12.233  0.2280 -0.6419 -0.3579
14753TIP3   OH265749   3.516   2.526   3.298  0.2285 -0.5629  0.2678
14753TIP3    H165750   3.558   2.523   3.385 -2.6504  1.1771  1.8660
14753TIP3    H265751   3.486   2.616   3.289 -0.5724 -1.0008 -2.0831
14754TIP3   OH265752   2.422   4.400  11.374 -0.4283  1.0696 -0.2177
14754TIP3    H165753   2.408   4.308  11.397 -1.8999  0.7824 -1.9676
14754TIP3    H265754   2.377   4.449  11.443 -1.7610  0.3687 -0.5497
14755TIP3   OH265755   0.577   6.424   0.926  0.3134  0.3207 -0.2962
14755TIP3    H165756   0.497   6.377   0.953  0.3629  0.1802 -0.3904
14755TIP3    H265757   0.553   6.466   0.844  0.8588 -1.1861 -1.2693
14756TIP3   OH265758   6.736   3.355  16.907 -0.5196 -0.4278  0.0725
14756TIP3    H165759   6.684   3.365  16.827  2.1627  0.6607 -1.6773
14756TIP3    H265760   6.796   3.283  16.888 -0.5495 -0.8899  1.5751
14757TIP3   OH265761   6.220   1.218  13.681 -0.1252  0.0124  0.5308
14757TIP3    H165762   6.125   1.213  13.677 -0.2270  1.5095  0.4706
14757TIP3    H265763   6.241   1.305  13.646  1.1713  0.2069  1.6919
14758TIP3   OH265764   1.440   2.812   3.992 -0.3549  0.0704  0.4450
14758TIP3    H165765   1.433   2.887   3.933 -2.8660 -1.5021 -1.4561
14758TIP3    H265766   1.403   2.843   4.075  0.3458  1.4245  0.2878
14759TIP3   OH265767   4.854   5.388  13.701  0.0416  0.7148 -0.1417
14759TIP3    H165768   4.864   5.435  13.784  1.0590  0.0099  0.1628
14759TIP3    H265769   4.911   5.436  13.640 -0.9161  1.3955 -0.5190
14760TIP3   OH265770   2.059   5.032  12.340 -0.3191 -0.1646 -0.0769
14760TIP3    H165771   2.072   5.033  12.246 -1.0470 -0.6087 -0.1903
14760TIP3    H265772   2.082   4.942  12.367 -0.4593 -0.1423  0.1211
14761TIP3   OH265773   6.731   5.484   2.057  0.6771 -0.2060  0.0374
14761TIP3    H165774   6.793   5.466   2.127  1.5276 -0.1544 -0.6837
14761TIP3    H265775   6.676   5.555   2.091  0.9478 -0.3164  0.7188
14762TIP3   OH265776   5.117   1.827  16.619  0.3643 -0.5006  0.5990
14762TIP3    H165777   5.210   1.816  16.637  0.2209 -0.0089  1.7502
14762TIP3    H265778   5.086   1.740  16.596  0.7869 -1.0074  1.8488
14763TIP3   OH265779   5.738   5.775  15.071  0.0401 -0.1322  0.4183
14763TIP3    H165780   5.645   5.766  15.049  0.3082 -4.4643  0.2930
14763TIP3    H265781   5.780   5.794  14.987 -0.3731 -2.7695 -0.4799
14764TIP3   OH265782   0.488   3.676   2.358  0.4940 -0.1231  0.3052
14764TIP3    H165783   0.433   3.603   2.330  0.9479 -1.5475  2.8277
14764TIP3    H265784   0.547   3.692   2.284 -1.1824 -0.6777 -1.2143
14765TIP3   OH265785   3.981   1.095   3.947 -0.1669  0.7514  0.1123
14765TIP3    H165786   4.072   1.112   3.971 -0.6592  4.4729 -0.1866
14765TIP3    H265787   3.930   1.153   4.003 -2.0483  1.7918 -2.5256
14766TIP3   OH265788   2.867   0.664   1.203 -0.2417 -0.7291 -0.1156
14766TIP3    H165789   2.874   0.725   1.276 -0.7533 -0.7927 -0.0121
14766TIP3    H265790   2.957   0.637   1.186 -0.1136 -0.6713  0.4512
14767TIP3   OH265791   0.557   5.578  13.176 -0.1110  0.9054 -0.0833
14767TIP3    H165792   0.618   5.649  13.195  0.9142 -0.2955  1.3454
14767TIP3    H265793   0.473   5.609  13.211  1.0973 -0.0124  4.1679
14768TIP3   OH265794   4.294   3.909   5.545  0.4403 -0.4160 -0.3164
14768TIP3    H165795   4.203   3.884   5.564 -0.5328  1.5211 -1.9290
14768TIP3    H265796   4.318   3.968   5.616 -0.5486  1.0571 -1.1292
14769TIP3   OH265797   1.568   2.645   0.371  0.2675 -0.0712  0.3457
14769TIP3    H165798   1.542   2.680   0.456 -0.0744 -0.3114  0.3381
14769TIP3    H265799   1.600   2.557   0.389 -0.9473 -0.5843  0.0657
14770TIP3   OH265800   1.692   6.682   0.450  0.3651 -0.0898  0.1646
14770TIP3    H165801   1.683   6.777   0.438 -1.6860 -0.3455 -0.6850
14770TIP3    H265802   1.776   6.661   0.409  1.0792  1.3857  0.7625
14771TIP3   OH265803   1.017   3.065   5.301 -0.3347  0.3762  0.5554
14771TIP3    H165804   0.949   3.065   5.369  0.6777  0.3183  1.5960
14771TIP3    H265805   1.056   2.978   5.306  1.2099  1.0851  1.4400
14772TIP3   OH265806   3.681   1.688  12.638 -0.1014  0.2252 -0.0893
14772TIP3    H165807   3.625   1.611  12.644  1.0456 -0.6588 -0.2316
14772TIP3    H265808   3.656   1.730  12.555 -0.1677 -0.4809 -0.4330
14773TIP3   OH265809   0.947   4.190   3.886  0.5335 -0.1267 -0.6610
14773TIP3    H165810   0.897   4.271   3.875 -0.0277 -0.2274  0.9572
14773TIP3    H265811   1.016   4.213   3.949  0.1941 -0.9671  0.0325
14774TIP3   OH265812   5.162   3.874  13.049  0.7452 -0.3676 -0.1721
14774TIP3    H165813   5.168   3.967  13.026  0.6007 -0.7950 -2.0772
14774TIP3    H265814   5.155   3.874  13.145  3.5552  1.4235  0.1374
14775TIP3   OH265815   6.127   3.261   0.993  0.0277  0.3998  0.3007
14775TIP3    H165816   6.161   3.251   0.904 -0.9279 -0.6226  0.0223
14775TIP3    H265817   6.187   3.209   1.047  0.6913  1.1371  0.2858
14776TIP3   OH265818   5.930   6.190   2.110 -0.0292 -0.2257 -0.2830
14776TIP3    H165819   5.936   6.201   2.205 -3.5297  2.0321 -0.1043
14776TIP3    H265820   5.907   6.098   2.097 -1.6492 -0.0913  1.3126
14777TIP3   OH265821   6.269   4.417  16.911  0.3260  0.2209 -0.2790
14777TIP3    H165822   6.302   4.441  16.997 -0.9056  0.0027  0.2657
14777TIP3    H265823   6.250   4.501  16.868  0.9315  0.3280 -0.3580
14778TIP3   OH265824   2.080   5.063  12.066 -0.3548  0.3515 -0.1170
14778TIP3    H165825   2.044   5.122  12.001 -1.9872 -1.7443 -1.2521
14778TIP3    H265826   2.145   5.010  12.019  0.7553  0.8734  0.7618
14779TIP3   OH265827   4.389   6.741  13.118 -0.0225 -0.8593 -0.0952
14779TIP3    H165828   4.324   6.811  13.124  1.2177  0.2184  2.2315
14779TIP3    H265829   4.337   6.661  13.114 -1.4869  0.0818 -0.8725
14780TIP3   OH265830   4.826   4.994   5.609 -0.1154 -0.2133 -0.1265
14780TIP3    H165831   4.792   5.038   5.687 -0.6207  0.4881 -0.7349
14780TIP3    H265832   4.898   4.940   5.642  0.8458  1.4165  0.5715
14781TIP3   OH265833   1.496   6.114   0.940 -0.2788 -0.0083 -0.1322
14781TIP3    H165834   1.475   6.206   0.922 -1.5277 -0.3146 -0.3730
14781TIP3    H265835   1.453   6.065   0.869  1.6365 -0.6970 -0.8638
14782TIP3   OH265836   1.193   4.626  12.498 -0.3652 -0.2288 -0.3947
14782TIP3    H165837   1.230   4.676  12.570 -1.1590  0.5660 -0.5269
14782TIP3    H265838   1.208   4.680  12.420 -0.0390 -0.8080 -0.7398
14783TIP3   OH265839   0.067   2.795  14.772  0.1388  0.0441 -0.1176
14783TIP3    H165840   0.006   2.825  14.705  0.7793  0.1426 -0.6734
14783TIP3    H265841   0.121   2.729  14.727  0.7723  0.3251  0.2079
14784TIP3   OH265842   6.399   3.868  16.651  0.0054 -0.3127 -0.0667
14784TIP3    H165843   6.348   3.947  16.672  2.5453  1.2763  0.5887
14784TIP3    H265844   6.333   3.803  16.627 -2.2595  1.8168 -0.0815
14785TIP3   OH265845   0.182   4.750   2.344 -0.2619 -0.4208  0.4340
14785TIP3    H165846   0.096   4.740   2.303 -1.4597  0.5266  2.5355
14785TIP3    H265847   0.164   4.799   2.425  2.4109  0.7156  0.4282
14786TIP3   OH265848   4.446   4.311   1.884  0.4965 -0.3506  0.1867
14786TIP3    H165849   4.531   4.267   1.883  0.3560 -0.6951 -2.1832
14786TIP3    H265850   4.383   4.242   1.866 -0.0496  0.2889 -0.3991
14787TIP3   OH265851   0.334   2.355  11.564 -0.3181 -0.2437 -0.2308
14787TIP3    H165852   0.424   2.332  11.541  0.0117  0.3943  0.3817
14787TIP3    H265853   0.281   2.311  11.498  0.2906 -2.5349  0.7103
14788TIP3   OH265854   6.667   0.876   2.800 -0.0408 -0.4260 -0.5505
14788TIP3    H165855   6.671   0.966   2.833 -0.9712 -0.8428  0.8197
14788TIP3    H265856   6.719   0.877   2.720  3.0930  0.4778  1.3360
14789TIP3   OH265857   5.316   1.023  15.949  0.0345 -0.2851  0.6767
14789TIP3    H165858   5.331   0.998  16.040  1.5711  0.1110  0.5554
14789TIP3    H265859   5.317   1.119  15.951 -0.1248 -0.2760  0.2656
14790TIP3   OH265860   1.115   5.425   2.892  0.1152  0.6727  0.7544
14790TIP3    H165861   1.113   5.516   2.864  0.0247  0.3006 -0.5404
14790TIP3    H265862   1.023   5.397   2.892  0.0687  0.7820  1.8989
14791TIP3   OH265863   5.642   2.007  15.788  0.0308  0.4266 -0.4178
14791TIP3    H165864   5.655   1.956  15.868  1.0624 -1.1862 -1.5556
14791TIP3    H265865   5.561   1.971  15.750  0.8553 -0.5622 -1.3137
14792TIP3   OH265866   4.773   0.350  13.599 -0.0298 -0.2501 -0.2669
14792TIP3    H165867   4.719   0.330  13.675  1.8241  1.1049  1.5152
14792TIP3    H265868   4.863   0.333  13.628  0.7118  0.0007 -2.2613
14793TIP3   OH265869   2.779   4.750  14.080 -0.1477  0.2300  0.6148
14793TIP3    H165870   2.700   4.713  14.119  0.0016  0.5440  1.2379
14793TIP3    H265871   2.764   4.845  14.080  0.1801  0.2846  0.6294
14794TIP3   OH265872   4.275   4.910   0.134 -0.5059 -0.0274 -0.3774
14794TIP3    H165873   4.316   4.992   0.107 -2.9432  0.7041 -2.2018
14794TIP3    H265874   4.278   4.855   0.055 -0.0495 -1.2567  0.4579
14795TIP3   OH265875   4.853   6.330   3.054 -0.1431  0.3625  0.1032
14795TIP3    H165876   4.786   6.391   3.025 -0.6610  0.1525  0.8437
14795TIP3    H265877   4.933   6.359   3.009 -0.0771  2.3461  1.3537
14796TIP3   OH265878   1.968   0.792   6.057 -0.2356 -0.1429 -0.9217
14796TIP3    H165879   1.927   0.739   5.989  1.0091 -2.8576  0.2896
14796TIP3    H265880   1.925   0.766   6.138  1.4436 -0.5349 -0.0907
14797TIP3   OH265881   5.514   6.865  10.622 -0.3796  0.4248 -0.2462
14797TIP3    H165882   5.526   6.952  10.662 -0.3453  1.1118 -1.6708
14797TIP3    H265883   5.443   6.878  10.559  2.4065  0.6076 -3.6376
14798TIP3   OH265884   1.424   2.235   1.195 -0.0611  0.1038  0.8389
14798TIP3    H165885   1.388   2.188   1.120 -1.2031  1.9913  0.1316
14798TIP3    H265886   1.518   2.218   1.191 -0.0177  0.5715 -1.3504
14799TIP3   OH265887   4.608   5.941  15.605 -0.0451 -0.2967 -0.1915
14799TIP3    H165888   4.540   5.877  15.585 -0.2889 -0.4054  0.8879
14799TIP3    H265889   4.586   5.971  15.693  0.4616  0.7655 -0.4126
14800TIP3   OH265890   0.527   2.130   0.820  0.3303  0.0650  0.2816
14800TIP3    H165891   0.451   2.120   0.878 -0.2950 -0.8403 -0.6636
14800TIP3    H265892   0.533   2.047   0.773  1.3737  0.4502 -0.3080
14801TIP3   OH265893   3.581   5.056   1.646  0.1751  0.3449 -0.1685
14801TIP3    H165894   3.499   5.023   1.683  0.5301  0.2439  0.5413
14801TIP3    H265895   3.564   5.059   1.552 -0.8247  0.8255  0.0061
14802TIP3   OH265896   4.522   5.605  13.814  0.0203 -0.4348  0.4958
14802TIP3    H165897   4.498   5.695  13.791 -0.3240 -0.8667 -0.9809
14802TIP3    H265898   4.452   5.551  13.775  0.5624 -1.3749  0.7950
14803TIP3   OH265899   2.455   2.786   1.289  1.1666 -0.6254 -0.8708
14803TIP3    H165900   2.517   2.858   1.279  0.5171  0.3678  1.5231
14803TIP3    H265901   2.378   2.813   1.238  0.9307  0.4217  0.0026
14804TIP3   OH265902   1.710   3.441  14.930  0.1914  0.3899 -0.1738
14804TIP3    H165903   1.769   3.500  14.883  2.7745 -0.3102  1.9347
14804TIP3    H265904   1.726   3.355  14.892  0.2850  0.2403  0.2013
14805TIP3   OH265905   3.282   3.227   1.792  0.1767 -0.1932 -0.2287
14805TIP3    H165906   3.287   3.179   1.710  1.8885  0.1166 -0.3479
14805TIP3    H265907   3.351   3.293   1.786 -0.0530  0.2266  1.2170
14806TIP3   OH265908   2.738   4.267   1.276  0.7062 -0.0682 -0.0187
14806TIP3    H165909   2.768   4.357   1.265  2.2979 -0.8037 -2.5313
14806TIP3    H265910   2.651   4.266   1.237  0.3252  0.5457  0.7914
14807TIP3   OH265911   5.221   1.488  15.041  0.1362 -0.0283 -0.4530
14807TIP3    H165912   5.188   1.471  14.953  1.2988  0.8875 -1.0945
14807TIP3    H265913   5.171   1.563  15.072  2.6737  2.5660 -2.1482
14808TIP3   OH265914   3.790   1.309  14.824  0.2842 -0.5376  0.2861
14808TIP3    H165915   3.782   1.296  14.919 -2.7010  0.1703  0.2250
14808TIP3    H265916   3.703   1.336  14.796  1.5031  1.0348 -2.4154
14809TIP3   OH265917   2.249   0.614  14.957  0.5737  0.1998 -0.1086
14809TIP3    H165918   2.295   0.537  14.992 -1.3445 -0.6317  0.7413
14809TIP3    H265919   2.226   0.589  14.868  0.5414  0.0380 -0.0559
14810TIP3   OH265920   2.914   4.397  12.648 -0.0600 -0.0118 -0.2877
14810TIP3    H165921   2.917   4.469  12.584  2.1660 -0.8009 -1.1424
14810TIP3    H265922   2.913   4.442  12.733  0.1594  1.0441 -0.8176
14811TIP3   OH265923   5.739   2.574  12.960 -0.3047 -0.1210 -0.2884
14811TIP3    H165924   5.699   2.630  13.026 -0.4645 -0.0984 -0.4048
14811TIP3    H265925   5.768   2.634  12.891 -0.2941 -0.1615 -0.3199
14812TIP3   OH265926   5.064   2.391   5.086 -0.0180  0.3717 -0.2178
14812TIP3    H165927   4.988   2.376   5.142 -0.1259  0.9050 -0.2151
14812TIP3    H265928   5.136   2.408   5.147 -0.1639  1.0863 -0.2328
14813TIP3   OH265929   4.683   5.373   1.778  0.0154  0.3491  0.1080
14813TIP3    H165930   4.606   5.410   1.820 -1.5521 -1.7214 -0.7640
14813TIP3    H265931   4.706   5.297   1.832  0.0742 -0.3321 -0.8450
14814TIP3   OH265932   0.954   6.259   2.254  0.6261  0.5854 -0.2098
14814TIP3    H165933   1.010   6.301   2.189 -1.2228  0.4863 -1.9852
14814TIP3    H265934   0.897   6.330   2.285 -0.1154  0.1505 -0.5410
14815TIP3   OH265935   4.336   0.612   5.415  0.0027  0.5671  0.0895
14815TIP3    H165936   4.244   0.632   5.426  0.2776  1.2589  1.3271
14815TIP3    H265937   4.364   0.577   5.500  1.2927  2.1097  0.3511
14816TIP3   OH265938   4.409   0.401   6.470  0.4133  0.3353 -0.3590
14816TIP3    H165939   4.347   0.328   6.469 -0.8570  1.3800 -0.3977
14816TIP3    H265940   4.442   0.406   6.380  1.6991 -1.1368 -0.0051
14817TIP3   OH265941   0.112   5.949  11.657 -0.4296 -0.1145 -0.3079
14817TIP3    H165942   0.178   5.953  11.726  1.2612 -1.8668 -1.7136
14817TIP3    H265943   0.035   5.912  11.700 -0.1282  0.7827  1.0807
14818TIP3   OH265944   0.319   3.885  12.029 -0.1197  0.3842 -0.2066
14818TIP3    H165945   0.402   3.886  11.981 -0.3003 -0.4190 -0.5573
14818TIP3    H265946   0.320   3.802  12.077 -0.6579  0.4324 -0.1076
14819TIP3   OH265947   1.523   0.809  15.798 -0.3961 -0.1183  0.2344
14819TIP3    H165948   1.605   0.851  15.825 -0.3508 -0.5539  0.8019
14819TIP3    H265949   1.536   0.788  15.705 -0.1380  0.4536  0.1403
14820TIP3   OH265950   3.172   1.561   2.617 -0.0767 -0.2113  0.1756
14820TIP3    H165951   3.122   1.573   2.536  1.3562  0.1800 -0.6855
14820TIP3    H265952   3.262   1.549   2.587  0.4493 -0.2218  1.7174
14821TIP3   OH265953   1.625   1.030   1.261 -0.3033  0.3392 -1.0718
14821TIP3    H165954   1.560   1.077   1.209 -0.7512 -0.2955 -1.0958
14821TIP3    H265955   1.709   1.057   1.225 -0.6196 -1.0431 -2.9849
14822TIP3   OH265956   2.628   4.462  16.069 -0.1686 -0.5388 -0.3545
14822TIP3    H165957   2.706   4.495  16.113 -0.6987 -0.2577  0.4153
14822TIP3    H265958   2.656   4.442  15.980  0.8674 -0.8129  0.0214
14823TIP3   OH265959   5.868   1.633   2.153 -0.1386 -0.2643 -0.1133
14823TIP3    H165960   5.842   1.610   2.242  0.4886 -2.2572 -0.4031
14823TIP3    H265961   5.936   1.700   2.165  0.1847 -0.7619  0.9211
14824TIP3   OH265962   0.802   3.565  13.798 -0.0994 -0.0365  0.3790
14824TIP3    H165963   0.787   3.644  13.849 -1.0826 -0.0133  0.0710
14824TIP3    H265964   0.882   3.527  13.835  1.8255  2.3650 -1.0562
14825TIP3   OH265965   2.547   6.199  16.882 -0.3591 -0.3005  0.1657
14825TIP3    H165966   2.608   6.167  16.815 -0.3402 -0.9400  0.4758
14825TIP3    H265967   2.466   6.218  16.834 -0.4161 -0.9683 -0.0185
14826TIP3   OH265968   0.755   2.626   1.118  0.2169 -0.0819  0.7590
14826TIP3    H165969   0.695   2.700   1.101 -0.1172 -0.7196 -1.0787
14826TIP3    H265970   0.839   2.667   1.137  0.0713  0.8118 -0.3865
14827TIP3   OH265971   0.837   0.731  14.906  0.0319 -0.9853  0.6019
14827TIP3    H165972   0.879   0.810  14.873  1.3880 -2.2279 -0.7910
14827TIP3    H265973   0.771   0.710  14.841 -2.1073  0.3103  2.2121
14828TIP3   OH265974   4.070   2.941  13.508  0.6139 -0.2220 -0.4632
14828TIP3    H165975   4.152   2.896  13.489  0.3533 -0.5293 -0.8914
14828TIP3    H265976   4.042   2.975  13.423 -0.5482 -1.5673 -0.6491
14829TIP3   OH265977   6.750   1.321  15.989  0.4459  0.6423  0.2789
14829TIP3    H165978   6.801   1.247  15.954 -1.5840 -2.0928  2.6713
14829TIP3    H265979   6.769   1.321  16.083  1.1974  3.9886  0.2513
14830TIP3   OH265980   0.951   1.886   1.592  0.0600 -0.3618 -0.0084
14830TIP3    H165981   0.904   1.835   1.658 -1.0970  1.3674  0.5549
14830TIP3    H265982   1.010   1.942   1.643 -0.3289  0.4852 -0.4835
14831TIP3   OH265983   0.404   3.625  11.556 -0.0622  0.2860  0.0296
14831TIP3    H165984   0.400   3.541  11.602  0.7098  1.0950  1.6738
14831TIP3    H265985   0.495   3.653  11.565 -0.3393  1.3606 -0.3745
14832TIP3   OH265986   1.233   5.408  11.766 -0.1908  0.0768  0.1337
14832TIP3    H165987   1.176   5.335  11.741 -0.8469  0.6847 -0.1915
14832TIP3    H265988   1.321   5.378  11.744 -0.5575 -0.1958 -1.0702
14833TIP3   OH265989   1.959   3.813   1.034  0.6376  0.4842 -0.1935
14833TIP3    H165990   1.894   3.877   1.007  1.4778  1.1007 -0.8020
14833TIP3    H265991   1.914   3.729   1.027 -0.4615  0.9912  0.5831
14834TIP3   OH265992   0.277   6.114   1.531  0.4240 -0.3795 -0.4746
14834TIP3    H165993   0.368   6.092   1.509  0.0843 -0.5061 -1.8379
14834TIP3    H265994   0.233   6.029   1.539  0.5528 -0.3503  0.9203
14835TIP3   OH265995   2.687   2.398   5.243 -0.1526 -0.5554 -0.1164
14835TIP3    H165996   2.694   2.305   5.219  2.4799  0.0042 -2.0351
14835TIP3    H265997   2.596   2.410   5.270 -0.1197 -4.1188  2.3204
14836TIP3   OH265998   0.821   3.080   0.450  0.0702 -0.1517 -0.4982
14836TIP3    H165999   0.849   3.088   0.541 -1.1977  0.2019 -0.1117
14836TIP3    H266000   0.888   3.126   0.400  0.3384  0.4174  0.3524
14837TIP3   OH266001   1.722   5.064  16.207 -0.7065 -0.5616 -0.1183
14837TIP3    H166002   1.706   5.146  16.161 -0.6349  0.4981  1.6985
14837TIP3    H266003   1.634   5.031  16.227 -0.7273 -0.0436  0.6654
14838TIP3   OH266004   6.762   0.140   0.776 -0.0429  0.2210  0.4505
14838TIP3    H166005   6.841   0.162   0.728 -1.2925  1.9328 -0.9626
14838TIP3    H266006   6.752   0.045   0.766  0.4300  0.3529 -1.6054
14839TIP3   OH266007   1.468   6.478  12.196  0.4333 -0.6646  0.6639
14839TIP3    H166008   1.496   6.389  12.218 -2.9651 -1.8914  0.5076
14839TIP3    H266009   1.426   6.511  12.276 -1.9958 -0.8507 -0.4684
14840TIP3   OH266010   1.662   4.531   2.128 -0.0103 -0.3872 -0.0526
14840TIP3    H166011   1.581   4.580   2.143  0.6508  1.0570 -0.9239
14840TIP3    H266012   1.638   4.466   2.062 -0.5000 -0.0778 -0.1882
14841TIP3   OH266013   1.544   2.499  14.548 -0.1023 -0.0441  0.5047
14841TIP3    H166014   1.472   2.468  14.604 -1.0727 -0.4985 -0.9541
14841TIP3    H266015   1.596   2.420  14.531 -0.1092 -0.0099  0.3283
14842TIP3   OH266016   4.814   3.770  11.810 -0.4953 -0.4045 -0.1315
14842TIP3    H166017   4.853   3.835  11.869 -0.0365 -0.7833 -0.0106
14842TIP3    H266018   4.722   3.769  11.834 -0.7039  0.8924 -0.7746
14843TIP3   OH266019   3.805   0.619  12.525 -0.0953 -0.2900 -0.5345
14843TIP3    H166020   3.841   0.707  12.537 -0.2020 -0.2588 -0.4424
14843TIP3    H266021   3.867   0.561  12.568 -1.2771 -0.0506  1.6059
14844TIP3   OH266022   3.346   2.444  16.809 -0.8177  0.0945 -0.2988
14844TIP3    H166023   3.328   2.512  16.874 -0.8147  0.1513 -0.3578
14844TIP3    H266024   3.273   2.450  16.747  0.0948  1.2448 -1.3193
14845TIP3   OH266025   5.459   1.575  14.532 -0.1950  0.1385  0.1829
14845TIP3    H166026   5.475   1.482  14.544 -1.9365  0.0535  2.5507
14845TIP3    H266027   5.435   1.607  14.619 -3.6226  1.9182 -1.2214
14846TIP3   OH266028   0.141   0.437  14.090  0.0555  0.7354 -0.1592
14846TIP3    H166029   0.187   0.449  14.173 -0.0957 -0.8343  0.1866
14846TIP3    H266030   0.200   0.471  14.024  0.4862  1.3422  0.5235
14847TIP3   OH266031   6.154   1.713   2.517  0.1933  0.3582 -0.2405
14847TIP3    H166032   6.156   1.808   2.522  0.8474  0.3297  0.2074
14847TIP3    H266033   6.201   1.684   2.595 -1.4390 -0.3705  0.5199
14848TIP3   OH266034   6.018   1.946   5.791 -0.1666  0.3083  0.1478
14848TIP3    H166035   6.000   1.969   5.700 -0.7631 -0.7853 -0.0221
14848TIP3    H266036   5.932   1.935   5.830  0.0899  0.6186  0.8191
14849TIP3   OH266037   2.435   3.052   1.064 -0.6421 -0.1246 -0.2923
14849TIP3    H166038   2.449   3.145   1.045 -1.7252  0.1520  0.2070
14849TIP3    H266039   2.499   3.031   1.132  1.3154 -0.3966 -2.1127
14850TIP3   OH266040   3.056   0.354   5.723  0.1730  0.3337  0.0836
14850TIP3    H166041   3.122   0.300   5.766  0.0895  0.3143  0.1863
14850TIP3    H266042   3.077   0.444   5.749  0.9709  0.4668 -0.9496
14851TIP3   OH266043   4.546   4.592  12.390 -0.3807  0.0883  0.3157
14851TIP3    H166044   4.560   4.579  12.484 -0.2824  0.5610  0.3666
14851TIP3    H266045   4.608   4.532  12.348 -0.3315 -0.0253  0.5480
14852TIP3   OH266046   1.227   1.894   0.699 -0.0229 -0.2595  0.4339
14852TIP3    H166047   1.231   1.990   0.691  0.2174 -0.3350 -0.3723
14852TIP3    H266048   1.134   1.875   0.707 -0.1699 -0.0587 -0.7133
14853TIP3   OH266049   3.978   4.225  11.721  0.3171  0.5468 -0.1990
14853TIP3    H166050   3.967   4.255  11.811  1.5970  0.3232  0.0497
14853TIP3    H266051   4.065   4.184  11.719 -0.7607 -1.8923 -0.8616
14854TIP3   OH266052   5.623   1.347  16.609 -0.2718 -0.2770 -0.4169
14854TIP3    H166053   5.672   1.267  16.590 -0.3491 -0.1966 -0.9860
14854TIP3    H266054   5.662   1.382  16.689  1.6666  0.6275 -1.6902
14855TIP3   OH266055   2.881   5.937   1.200 -0.0920 -0.8493 -0.1281
14855TIP3    H166056   2.966   5.942   1.159  0.5995  1.0531  1.3802
14855TIP3    H266057   2.889   5.867   1.265  0.5153 -0.3466  0.3506
14856TIP3   OH266058   2.412   5.864  13.122 -0.7621  0.0702 -0.2015
14856TIP3    H166059   2.324   5.902  13.122 -0.2802  1.2417  0.0090
14856TIP3    H266060   2.431   5.847  13.030 -1.0035  0.3391 -0.3034
14857TIP3   OH266061   5.415   2.276  14.957  0.3874 -0.7438  0.3696
14857TIP3    H166062   5.428   2.245  14.868  0.3064  0.0610  0.0781
14857TIP3    H266063   5.335   2.232  14.986  0.0479 -0.4984 -0.1863
14858TIP3   OH266064   6.717   3.574   0.908  0.0233 -0.1683 -0.3296
14858TIP3    H166065   6.669   3.604   0.831  1.3583 -0.7774 -1.4213
14858TIP3    H266066   6.659   3.597   0.982 -1.2865  0.3974 -1.4841
14859TIP3   OH266067   3.079   5.884  16.714 -0.3755  0.7910  0.0107
14859TIP3    H166068   3.143   5.848  16.775  0.5144 -0.3630 -1.5153
14859TIP3    H266069   2.998   5.888  16.763  0.5548  0.9895  1.5926
14860TIP3   OH266070   5.624   3.621  13.472  0.2326  0.0306 -0.2871
14860TIP3    H166071   5.532   3.599  13.481  0.4495 -1.3562 -1.1591
14860TIP3    H266072   5.640   3.687  13.539 -1.2673 -0.0851  0.2071
14861TIP3   OH266073   6.609   0.109  13.173 -0.2306 -0.2350 -1.1887
14861TIP3    H166074   6.670   0.050  13.129  1.2239 -0.0781  0.5059
14861TIP3    H266075   6.639   0.111  13.264 -1.5759  1.3950 -0.7314
14862TIP3   OH266076   1.610   5.185   1.415 -0.4413 -0.6090  0.5630
14862TIP3    H166077   1.533   5.238   1.394 -1.6833 -2.2346  0.7997
14862TIP3    H266078   1.638   5.217   1.501  0.8535  1.8202 -0.6691
14863TIP3   OH266079   3.531   4.936   1.989 -0.2229  0.4569 -0.7502
14863TIP3    H166080   3.517   5.018   1.942  2.3148  1.4772  0.1012
14863TIP3    H266081   3.607   4.896   1.946  2.3116  1.5051  2.3347
14864TIP3   OH266082   6.254   4.096  16.790  0.1200 -0.3880  0.1295
14864TIP3    H166083   6.181   4.151  16.818 -1.1004 -1.8515 -0.0635
14864TIP3    H266084   6.300   4.074  16.871  1.0189  1.3566  0.1591
14865TIP3   OH266085   1.625   2.557  12.351 -0.0296 -0.2848 -0.0864
14865TIP3    H166086   1.589   2.642  12.378 -1.0448 -0.2290 -1.5009
14865TIP3    H266087   1.684   2.578  12.279  0.2237 -0.7124 -0.0033
14866TIP3   OH266088   3.553   2.172  12.199 -0.0543 -0.4229  0.2595
14866TIP3    H166089   3.618   2.156  12.267 -0.9874 -1.7872  0.8726
14866TIP3    H266090   3.498   2.094  12.199 -0.3294 -0.2773 -1.7993
14867TIP3   OH266091   4.612   4.288   0.667  0.8471 -0.3831 -0.1975
14867TIP3    H166092   4.679   4.224   0.643  0.2025 -1.2554  0.2523
14867TIP3    H266093   4.553   4.240   0.726  0.5520  0.7316  0.4556
14868TIP3   OH266094   6.778   5.705  14.771  0.1374  0.0123  0.1093
14868TIP3    H166095   6.710   5.682  14.708  0.4449  0.4377 -0.3952
14868TIP3    H266096   6.765   5.646  14.845  0.5825 -1.3985 -0.9067
14869TIP3   OH266097   1.608   0.486   1.265  0.0627 -0.3307 -0.3922
14869TIP3    H166098   1.591   0.539   1.343 -0.5363  1.0520 -1.4147
14869TIP3    H266099   1.644   0.548   1.201  1.1059 -1.5510 -1.0392
14870TIP3   OH266100   2.312   4.989   1.891 -0.1269 -0.0409 -0.2844
14870TIP3    H166101   2.266   4.993   1.807 -1.3245  1.1528  0.3825
14870TIP3    H266102   2.258   5.041   1.951  1.0957 -0.2173  1.0443
14871TIP3   OH266103   2.605   0.067   0.665  0.1135  0.1216  0.2348
14871TIP3    H166104   2.648   0.143   0.706  0.2148  0.0407  0.2790
14871TIP3    H266105   2.512   0.081   0.680 -0.0410  1.3079 -1.5587
14872TIP3   OH266106   5.876   2.980   6.476 -1.6154  0.1852 -0.3995
14872TIP3    H166107   5.809   2.918   6.448 -1.4058 -0.1151 -0.2342
14872TIP3    H266108   5.957   2.945   6.439 -1.6265  0.8594 -1.1018
14873TIP3   OH266109   0.089   4.804  14.217 -0.1376 -0.6025 -0.3059
14873TIP3    H166110   0.149   4.861  14.265 -0.9605 -0.4759  0.6240
14873TIP3    H266111   0.005   4.851  14.218 -0.4630 -1.1517 -0.8298
14874TIP3   OH266112   5.501   5.575   5.367  0.0117 -0.3723  0.2714
14874TIP3    H166113   5.555   5.576   5.288  0.0044  0.4118  0.2616
14874TIP3    H266114   5.512   5.488   5.403  0.5435 -0.5237 -0.2383
14875TIP3   OH266115   3.342   1.461  10.907  0.5079 -0.7439 -0.0615
14875TIP3    H166116   3.340   1.502  10.994 -1.9773  1.4341 -1.0179
14875TIP3    H266117   3.348   1.367  10.926 -1.3833 -0.4569  2.5895
14876TIP3   OH266118   6.611   3.269  15.803 -0.0736 -0.1589  0.5143
14876TIP3    H166119   6.638   3.361  15.808  0.8978 -0.3176 -1.2099
14876TIP3    H266120   6.674   3.223  15.858  0.1369  0.0704  0.4664
14877TIP3   OH266121   1.355   0.652  14.450 -0.6950  0.9350 -0.1394
14877TIP3    H166122   1.289   0.716  14.424 -1.0529  0.2028 -1.0852
14877TIP3    H266123   1.395   0.624  14.367 -0.9041 -0.4523  0.2128
14878TIP3   OH266124   6.514   2.234  14.600 -0.2236 -0.7773  0.0231
14878TIP3    H166125   6.597   2.235  14.648 -1.0159 -1.2215  1.4326
14878TIP3    H266126   6.461   2.168  14.644 -1.2251 -0.7312 -1.0664
14879TIP3   OH266127   1.597   4.190   2.279 -0.5933 -0.2730  0.7740
14879TIP3    H166128   1.589   4.284   2.293 -2.1874 -0.4908  1.5217
14879TIP3    H266129   1.683   4.168   2.314 -0.2240  0.8827  0.6450
14880TIP3   OH266130   3.224   6.813  12.213 -0.1012  0.2753  0.0368
14880TIP3    H166131   3.162   6.873  12.170  0.8597  1.1463 -0.1692
14880TIP3    H266132   3.280   6.781  12.143  1.7508  2.0395  0.6232
14881TIP3   OH266133   4.099   4.406  15.827 -0.1912  0.2010  0.2247
14881TIP3    H166134   4.100   4.397  15.922  0.8822  1.2026  0.3253
14881TIP3    H266135   4.031   4.471  15.809  0.8427  1.3866  0.4690
14882TIP3   OH266136   2.913   2.533  16.103 -0.2557  0.5445  0.1509
14882TIP3    H166137   2.974   2.572  16.041 -0.1751 -0.6565 -0.5511
14882TIP3    H266138   2.939   2.441  16.109 -1.4055  0.2207  0.5458
14883TIP3   OH266139   4.430   5.897   4.903  0.9311  0.3004 -0.0948
14883TIP3    H166140   4.457   5.968   4.961  2.1052  1.3644 -1.8611
14883TIP3    H266141   4.365   5.936   4.845  2.5723  0.4079 -1.9722
14884TIP3   OH266142   4.067   2.359   0.176 -0.1550 -0.2503  0.3070
14884TIP3    H166143   4.068   2.453   0.196 -0.9397 -0.0489 -0.5354
14884TIP3    H266144   4.136   2.322   0.232 -0.9518  0.5671  1.8934
14885TIP3   OH266145   5.958   2.818  11.191  0.6295 -0.0669 -0.0349
14885TIP3    H166146   5.952   2.845  11.283 -1.9590  1.6855 -0.6143
14885TIP3    H266147   5.934   2.725  11.192  2.6612 -0.6374  1.2237
14886TIP3   OH266148   4.076   0.553  12.385 -0.5404 -0.4011  0.2735
14886TIP3    H166149   4.103   0.463  12.367 -0.4820 -0.4416  0.5618
14886TIP3    H266150   4.082   0.562  12.480  2.8780  0.9409  0.0769
14887TIP3   OH266151   5.192   4.859   5.263 -0.8332 -0.4180 -0.1385
14887TIP3    H166152   5.097   4.848   5.260 -0.8691 -0.0327 -2.2976
14887TIP3    H266153   5.223   4.827   5.179  0.8435  0.3909  0.1151
14888TIP3   OH266154   5.448   4.988   3.562 -0.3977  0.1902 -0.5093
14888TIP3    H166155   5.447   4.920   3.494 -2.1258 -1.0010  0.6294
14888TIP3    H266156   5.417   5.067   3.517  0.5918 -0.0163 -1.6006
14889TIP3   OH266157   0.753   6.857  10.683 -0.0743 -0.6167 -0.3351
14889TIP3    H166158   0.840   6.896  10.693  0.0090 -0.8675 -0.0486
14889TIP3    H266159   0.763   6.794  10.612 -0.0780 -0.4810 -0.4559
14890TIP3   OH266160   0.334   6.420  16.647  0.6624  0.3025 -0.6390
14890TIP3    H166161   0.311   6.506  16.611  1.0345  1.5127  1.7886
14890TIP3    H266162   0.425   6.430  16.675  0.6475 -0.8381 -0.1556
14891TIP3   OH266163   6.092   6.580  13.687 -0.1636 -0.0599 -0.1766
14891TIP3    H166164   6.109   6.615  13.599 -1.8113 -1.1375 -0.9589
14891TIP3    H266165   6.015   6.628  13.717  0.3770  0.2868  0.7082
14892TIP3   OH266166   6.406   1.794  11.141  0.0684 -0.1877 -0.2883
14892TIP3    H166167   6.449   1.710  11.159 -0.8042 -0.7440 -0.7121
14892TIP3    H266168   6.340   1.802  11.210 -1.3430 -0.9473 -1.4801
14893TIP3   OH266169   6.253   5.497  11.848 -0.0086  0.2705  0.0721
14893TIP3    H166170   6.182   5.433  11.843 -0.7803  1.0924  0.1255
14893TIP3    H266171   6.299   5.490  11.765 -1.1244  0.7920 -0.6244
14894TIP3   OH266172   4.774   6.415   3.499 -0.6952  0.2671  0.1398
14894TIP3    H166173   4.825   6.481   3.547  0.5872 -0.8099  0.3348
14894TIP3    H266174   4.708   6.386   3.562 -1.9071  2.0183 -0.2679
14895TIP3   OH266175   0.707   3.183  14.375 -1.1527  0.2783 -0.2832
14895TIP3    H166176   0.665   3.104  14.409 -1.7506  0.3369 -0.8644
14895TIP3    H266177   0.797   3.156  14.358 -0.5923  0.4635  2.0680
14896TIP3   OH266178   4.891   4.670   2.128  0.2120  0.6993 -0.4730
14896TIP3    H166179   4.912   4.720   2.207  2.6006  1.2615 -1.3694
14896TIP3    H266180   4.842   4.731   2.073  0.1461  0.9126 -0.1821
14897TIP3   OH266181   2.355   4.698   1.696  0.2911 -0.0725 -0.1914
14897TIP3    H166182   2.407   4.769   1.733 -0.0861 -0.6617  1.5805
14897TIP3    H266183   2.268   4.710   1.732 -0.2766 -0.3532 -1.4002
14898TIP3   OH266184   5.462   4.839  15.316 -0.2785 -0.4690  0.1300
14898TIP3    H166185   5.391   4.870  15.259  0.3141  0.8742  0.0747
14898TIP3    H266186   5.435   4.863  15.404 -0.3345 -0.8323  0.2129
14899TIP3   OH266187   0.800   2.969  15.313  0.1363 -0.0352  0.5417
14899TIP3    H166188   0.813   2.877  15.290 -1.4112 -0.4606  1.2115
14899TIP3    H266189   0.869   2.989  15.376  1.8811 -0.0399 -1.2618
14900TIP3   OH266190   1.052   2.993  12.138 -0.0234  0.0795 -0.2939
14900TIP3    H166191   1.027   2.930  12.206 -3.0467 -1.1885 -2.3328
14900TIP3    H266192   1.145   2.977  12.124 -0.0670 -1.9865  1.1949
14901TIP3   OH266193   2.071   6.101   2.874  0.4594 -0.4267 -0.2697
14901TIP3    H166194   2.056   6.158   2.799 -0.1647  2.2361  1.7350
14901TIP3    H266195   2.000   6.037   2.871 -2.4153  2.4503  0.4351
14902TIP3   OH266196   2.047   5.133  16.998 -0.1333 -0.3073 -0.0142
14902TIP3    H166197   1.969   5.148  16.945  0.3320 -1.5894 -1.1116
14902TIP3    H266198   2.037   5.192  17.073 -2.6562 -1.1814  0.4250
14903TIP3   OH266199   5.978   4.630   0.477 -0.1517 -0.1924 -0.3434
14903TIP3    H166200   5.980   4.653   0.384  0.0842  0.8470 -0.0865
14903TIP3    H266201   5.926   4.698   0.519 -1.0557 -1.1560  0.1721
14904TIP3   OH266202   1.719   5.787  13.931  0.4791  0.8404  0.9837
14904TIP3    H166203   1.672   5.704  13.931 -0.3899  1.2282  3.7379
14904TIP3    H266204   1.770   5.786  14.012  1.6449  2.3861  0.3363
14905TIP3   OH266205   0.602   1.567   4.930  0.2763 -0.0399 -0.0722
14905TIP3    H166206   0.668   1.609   4.876  0.5226  1.7611  1.5463
14905TIP3    H266207   0.519   1.605   4.901  0.2433 -0.2121 -0.2059
14906TIP3   OH266208   2.543   6.196   5.722 -0.1496  0.0884  0.3234
14906TIP3    H166209   2.585   6.132   5.665  2.4905  1.4572  0.6100
14906TIP3    H266210   2.450   6.171   5.721  0.3380 -2.0027 -1.7736
14907TIP3   OH266211   4.939   0.714  10.674  0.3540  0.5337 -0.0703
14907TIP3    H166212   4.865   0.775  10.670  1.0768  1.4138 -0.1307
14907TIP3    H266213   4.995   0.739  10.601  0.8763  0.0687  0.1678
14908TIP3   OH266214   1.276   3.761  13.465  0.4315  0.1324 -0.1226
14908TIP3    H166215   1.190   3.802  13.467  1.0375  1.5250 -0.8798
14908TIP3    H266216   1.259   3.668  13.453 -1.0072  0.1007  1.7082
14909TIP3   OH266217   1.664   1.055  16.165  0.1875  0.1972  0.1175
14909TIP3    H166218   1.659   1.137  16.214 -0.4201  0.2876 -0.0891
14909TIP3    H266219   1.701   0.992  16.227 -0.6738  0.2844  0.7265
14910TIP3   OH266220   3.699   2.946   4.171  0.0835  0.1214  0.2553
14910TIP3    H166221   3.640   3.011   4.133  1.5206  0.8698 -0.7974
14910TIP3    H266222   3.709   2.974   4.263 -0.4132  0.5637  0.1809
14911TIP3   OH266223   5.963   4.204   4.462 -0.6391 -0.3150  0.5977
14911TIP3    H166224   5.955   4.298   4.445  0.1017 -0.1400  1.2105
14911TIP3    H266225   5.952   4.196   4.557 -3.4972 -1.1607  0.3052
14912TIP3   OH266226   4.194   5.638  14.983 -0.1683 -0.4672  0.6318
14912TIP3    H166227   4.287   5.629  15.002  0.2371 -0.0057 -0.9434
14912TIP3    H266228   4.190   5.706  14.916 -1.5473 -1.1775 -0.0507
14913TIP3   OH266229   1.273   3.884  11.670 -0.5846  0.9255 -0.4288
14913TIP3    H166230   1.208   3.906  11.603  1.1206  2.5486 -1.6595
14913TIP3    H266231   1.336   3.956  11.667  1.8146 -1.0135  0.0005
14914TIP3   OH266232   6.454   2.397   0.917 -0.9735 -0.4537 -0.0102
14914TIP3    H166233   6.431   2.364   1.004  1.2850 -0.3855  0.6703
14914TIP3    H266234   6.459   2.319   0.862 -1.1850 -0.6288  0.2168
14915TIP3   OH266235   0.234   1.384   4.814  0.8878  0.1971 -0.1816
14915TIP3    H166236   0.240   1.406   4.721  1.2954  1.2639  0.0806
14915TIP3    H266237   0.216   1.468   4.857 -0.0467 -0.3935  0.6357
14916TIP3   OH266238   3.537   5.107  15.358  0.2980  0.2218  0.3626
14916TIP3    H166239   3.506   5.143  15.441 -1.2182  2.3811 -1.0267
14916TIP3    H266240   3.574   5.181  15.312  0.8266 -0.8697 -1.0388
14917TIP3   OH266241   6.642   2.943  16.986 -0.2643  0.0702 -0.2203
14917TIP3    H166242   6.628   2.849  17.002 -1.0107  0.1838 -0.2171
14917TIP3    H266243   6.670   2.977  17.072 -1.1040  0.0651  0.0571
14918TIP3   OH266244   6.514   2.626   0.257  0.3875  0.0642 -0.0870
14918TIP3    H166245   6.567   2.706   0.252  0.6090 -0.0505  0.3434
14918TIP3    H266246   6.426   2.658   0.279  0.8146  0.1033  1.7297
14919TIP3   OH266247   1.568   0.044  15.535  0.2230  0.8156 -0.2884
14919TIP3    H166248   1.647   0.024  15.486  2.5823  5.5799  0.9909
14919TIP3    H266249   1.584   0.130  15.574 -4.4839  0.8060  2.5327
14920TIP3   OH266250   2.356   3.835  15.456 -0.2192 -0.7228 -0.1074
14920TIP3    H166251   2.340   3.840  15.361 -1.2812 -2.2099 -0.0563
14920TIP3    H266252   2.270   3.853  15.495  0.4182  0.8103  0.6295
14921TIP3   OH266253   6.486   3.066  10.445 -0.3918 -0.1851  0.4965
14921TIP3    H166254   6.537   2.990  10.418 -1.7172 -0.9084 -0.0706
14921TIP3    H266255   6.545   3.140  10.430  1.1842 -1.1179  1.7345
14922TIP3   OH266256   3.711   4.763  10.956 -0.5664  0.2521 -0.2695
14922TIP3    H166257   3.693   4.790  11.046  0.5598  1.6824 -0.4396
14922TIP3    H266258   3.632   4.785  10.907 -0.6571  0.7618  0.1066
14923TIP3   OH266259   2.649   2.245   3.238 -0.4652 -0.2256  0.4906
14923TIP3    H166260   2.660   2.171   3.178 -0.2295 -0.7554  1.1781
14923TIP3    H266261   2.668   2.322   3.184 -0.7636 -0.6584 -0.2428
14924TIP3   OH266262   5.566   1.535  10.893  0.0191  0.1208 -0.1634
14924TIP3    H166263   5.613   1.615  10.867  1.3123 -0.1375  1.2654
14924TIP3    H266264   5.481   1.567  10.924  0.6275  0.9943  0.6652
14925TIP3   OH266265   0.778   3.624   2.502 -0.3953 -0.3744  0.2008
14925TIP3    H166266   0.841   3.671   2.448 -1.2435  1.9976  1.1184
14925TIP3    H266267   0.693   3.645   2.464 -0.9950  1.0906  2.1563
14926TIP3   OH266268   2.575   4.671   3.825 -0.3465  0.1467  0.1774
14926TIP3    H166269   2.515   4.745   3.835  0.8602  1.4847 -1.8384
14926TIP3    H266270   2.534   4.617   3.757  0.1341  0.4461 -0.3552
14927TIP3   OH266271   2.916   4.881   0.170 -0.5070  0.0823  0.1607
14927TIP3    H166272   2.932   4.790   0.193 -0.6605 -0.0799 -0.3402
14927TIP3    H266273   2.995   4.909   0.124 -0.1943  0.4072  0.8935
14928TIP3   OH266274   1.943   4.694  15.177 -0.4828 -0.3812  0.0627
14928TIP3    H166275   1.958   4.640  15.254 -0.3697  0.7278  0.8360
14928TIP3    H266276   1.860   4.739  15.195  1.4104  2.9302  1.4079
14929TIP3   OH266277   6.803   0.096  11.085  0.6326 -0.0091 -0.1434
14929TIP3    H166278   6.791   0.013  11.039  0.1904 -0.1766  0.2661
14929TIP3    H266279   6.873   0.141  11.037 -0.3416  0.1656 -1.4503
14930TIP3   OH266280   0.481   1.455  15.559 -0.5666 -0.0463 -0.0027
14930TIP3    H166281   0.466   1.361  15.566  0.6814 -0.3231 -0.8340
14930TIP3    H266282   0.423   1.493  15.625  0.1215 -1.5063  1.5024
14931TIP3   OH266283   2.021   1.078  10.749 -0.3627 -0.2106  0.6584
14931TIP3    H166284   1.967   1.128  10.688  1.3417  3.2625  1.7026
14931TIP3    H266285   1.972   1.080  10.832 -0.4186 -0.5614  0.6364
14932TIP3   OH266286   4.743   0.378  16.219  0.0285  0.0877 -0.1447
14932TIP3    H166287   4.726   0.385  16.313 -0.2226 -0.8167 -0.1158
14932TIP3    H266288   4.698   0.455  16.182  0.3590  0.6033  0.4908
14933TIP3   OH266289   3.087   2.316  16.127 -0.2871  0.2715  0.1659
14933TIP3    H166290   3.172   2.360  16.132 -0.2091  0.1408  0.0095
14933TIP3    H266291   3.083   2.282  16.038  0.5903 -1.8536  0.8524
14934TIP3   OH266292   3.319   0.691  11.282 -0.5470  0.1332 -0.5919
14934TIP3    H166293   3.370   0.626  11.234  0.4094  0.0967  0.4447
14934TIP3    H266294   3.251   0.718  11.220 -0.0173 -0.7084 -1.5748
14935TIP3   OH266295   3.175   5.456   2.490  0.1006 -0.0562 -0.2346
14935TIP3    H166296   3.267   5.463   2.466  0.8492 -2.2698  1.6096
14935TIP3    H266297   3.165   5.515   2.564  0.3331 -0.6208  0.2532
14936TIP3   OH266298   5.554   2.139   4.179  0.3235  0.2092 -0.4041
14936TIP3    H166299   5.650   2.140   4.184  0.3634 -1.5590 -0.3691
14936TIP3    H266300   5.535   2.085   4.103 -0.6455 -1.7201  1.1345
14937TIP3   OH266301   1.698   2.176  13.818  0.1799 -0.4985  0.6360
14937TIP3    H166302   1.755   2.134  13.754 -1.9702 -0.9994 -1.0572
14937TIP3    H266303   1.743   2.259  13.838  1.3459 -0.7115 -0.8519
14938TIP3   OH266304   1.746   0.143   6.444  0.5712 -0.2455  0.1152
14938TIP3    H166305   1.698   0.077   6.494  0.0298  1.8744  2.6113
14938TIP3    H266306   1.822   0.164   6.498  0.9525  0.9049 -0.8273
14939TIP3   OH266307   2.318   2.609   6.099  0.2382  0.1255 -0.2196
14939TIP3    H166308   2.294   2.537   6.156 -1.6887  1.0964  0.3041
14939TIP3    H266309   2.412   2.619   6.110  0.4868 -2.0527 -0.0549
14940TIP3   OH266310   4.914   5.712   1.966  0.1933 -0.0051  0.1538
14940TIP3    H166311   4.858   5.781   2.001 -0.3055  0.1288 -0.8690
14940TIP3    H266312   5.001   5.730   2.002 -0.3969 -0.2292  1.7874
14941TIP3   OH266313   4.170   1.611   3.824  0.0901  0.3529  0.4005
14941TIP3    H166314   4.190   1.635   3.915 -0.1037 -0.1286  0.5771
14941TIP3    H266315   4.179   1.515   3.823  2.1043  0.5030 -0.5850
14942TIP3   OH266316   0.259   5.583   2.468  0.2615  0.0094  0.4666
14942TIP3    H166317   0.269   5.669   2.508  1.7546  0.3938 -0.6199
14942TIP3    H266318   0.198   5.536   2.525  0.7793  1.1795  2.0487
14943TIP3   OH266319   3.662   2.751   1.382 -0.5874  0.0524 -0.1201
14943TIP3    H166320   3.671   2.660   1.354  1.3463 -0.6084  2.3525
14943TIP3    H266321   3.751   2.787   1.375 -1.2277  1.6332 -0.5556
14944TIP3   OH266322   5.518   4.575   3.395 -0.9971  0.4481  0.3982
14944TIP3    H166323   5.576   4.649   3.384 -0.2754 -0.4391 -2.4432
14944TIP3    H266324   5.500   4.572   3.489 -0.3825  3.6490  0.7040
14945TIP3   OH266325   0.362   5.091  15.542 -0.4794  0.1641  0.5890
14945TIP3    H166326   0.387   5.087  15.449  2.5234  1.8410  1.1904
14945TIP3    H266327   0.394   5.009  15.579 -0.8043 -0.0742  0.3543
14946TIP3   OH266328   4.737   0.839  10.428  0.4416 -0.2494  0.0787
14946TIP3    H166329   4.790   0.903  10.381  0.0061 -1.0912 -1.6391
14946TIP3    H266330   4.671   0.891  10.473  1.5299  0.6673  0.6728
14947TIP3   OH266331   0.844   3.127  14.777 -0.0772 -0.4347  1.0908
14947TIP3    H166332   0.934   3.102  14.795 -0.2050 -0.0585  2.3704
14947TIP3    H266333   0.794   3.046  14.790  0.3379 -1.4265 -2.5337
14948TIP3   OH266334   0.131   4.185   4.606 -0.1122  0.4673 -0.4770
14948TIP3    H166335   0.052   4.180   4.553 -0.6383  0.4347  0.3046
14948TIP3    H266336   0.116   4.125   4.679  0.1108  1.4136  0.3610
14949TIP3   OH266337   1.343   1.922  15.595 -0.3915  0.0540  0.1556
14949TIP3    H166338   1.372   1.836  15.565  0.2323 -0.1469  1.2830
14949TIP3    H266339   1.254   1.931  15.562  0.5666  0.2973 -2.6369
14950TIP3   OH266340   5.389   5.792  11.559  0.0618  0.1094  0.0413
14950TIP3    H166341   5.397   5.815  11.466 -1.1734 -1.4886 -0.5064
14950TIP3    H266342   5.329   5.858  11.595 -1.3124 -0.5916 -0.8739
14951TIP3   OH266343   1.375   2.868  12.736  0.1539  0.0670 -0.1598
14951TIP3    H166344   1.451   2.893  12.787 -0.8478  0.2254  1.3222
14951TIP3    H266345   1.356   2.944  12.681  0.1728  0.6046  0.5666
14952TIP3   OH266346   3.702   0.406  16.264  0.3837  0.4093  0.0183
14952TIP3    H166347   3.768   0.467  16.296  0.0753 -0.7133  3.0686
14952TIP3    H266348   3.741   0.320  16.276 -1.3213 -0.2377  1.1678
14953TIP3   OH266349   5.324   1.971  16.375 -0.1190  0.0921  0.0050
14953TIP3    H166350   5.367   1.972  16.289  2.8750  1.2421  1.3591
14953TIP3    H266351   5.378   1.911  16.427 -2.2869 -1.1444  0.9841
14954TIP3   OH266352   0.958   4.962  13.265 -0.1260  0.1850 -1.1884
14954TIP3    H166353   0.977   4.935  13.175  0.1080 -1.1711 -0.7576
14954TIP3    H266354   1.024   5.028  13.285  2.8366 -2.7142 -0.5461
14955TIP3   OH266355   5.258   1.008   5.476 -0.0287  0.4006  0.3996
14955TIP3    H166356   5.272   1.102   5.471  1.4048  0.2018  0.3148
14955TIP3    H266357   5.170   0.995   5.440  0.4373  1.5290 -1.2783
14956TIP3   OH266358   6.792   6.846  13.966  0.6811 -0.3006 -0.1221
14956TIP3    H166359   6.857   6.787  13.927  1.6916 -0.0590  1.1337
14956TIP3    H266360   6.837   6.930  13.973  0.7072 -0.4449  1.9151
14957TIP3   OH266361   2.946   1.497  13.934  0.1301  0.4880  0.3797
14957TIP3    H166362   2.956   1.589  13.960 -1.7435  0.6974  0.4836
14957TIP3    H266363   2.860   1.473  13.966  1.1703 -1.8059  1.7204
14958TIP3   OH266364   1.348   6.575  11.730  0.4215 -0.2988  0.3514
14958TIP3    H166365   1.389   6.592  11.645  1.3944  3.1206  1.3437
14958TIP3    H266366   1.258   6.605  11.720  0.4256 -0.2644  0.4160
14959TIP3   OH266367   0.042   6.142  10.774 -0.1000  0.1055  0.0010
14959TIP3    H166368   0.108   6.127  10.707 -0.9491  1.5427 -1.2335
14959TIP3    H266369  -0.041   6.140  10.727 -0.8136 -0.0166  1.2254
14960TIP3   OH266370   3.113   3.092   3.647  0.1002 -0.1579  0.1949
14960TIP3    H166371   3.136   3.008   3.688 -1.1864  0.5078  2.5010
14960TIP3    H266372   3.040   3.071   3.589 -1.5883 -0.4244  2.2872
14961TIP3   OH266373   1.246   6.011   4.395  0.1602  0.1101 -0.8014
14961TIP3    H166374   1.283   5.923   4.385 -1.0003 -0.4916 -0.0512
14961TIP3    H266375   1.151   5.997   4.400 -0.2185  1.5924 -2.6228
14962TIP3   OH266376   1.491   1.963  15.826 -0.1970  0.4372  0.0074
14962TIP3    H166377   1.488   2.058  15.842  1.8132  0.6331 -0.5208
14962TIP3    H266378   1.425   1.948  15.759 -1.6339  1.1847  1.1800
14963TIP3   OH266379   5.061   0.262  13.319 -0.5619  0.3075  0.4856
14963TIP3    H166380   5.128   0.313  13.364  0.5525 -0.9803  0.3617
14963TIP3    H266381   5.109   0.211  13.253 -1.1584 -2.8164  2.2457
14964TIP3   OH266382   3.392   4.394  16.327  0.4161  0.1545 -0.3106
14964TIP3    H166383   3.426   4.310  16.297 -0.8640 -0.5267  0.0705
14964TIP3    H266384   3.297   4.383  16.327  0.2292  1.5281 -0.0218
14965TIP3   OH266385   5.025   5.954  11.837 -0.4594  0.4115 -0.4589
14965TIP3    H166386   5.076   5.965  11.917  0.9348 -1.8387 -0.9429
14965TIP3    H266387   4.974   5.874  11.852  0.0533 -0.2243 -1.8695
14966TIP3   OH266388   2.048   3.450   0.505 -0.0007  0.7993  0.5139
14966TIP3    H166389   2.117   3.459   0.439 -0.9023  2.1656 -0.2753
14966TIP3    H266390   2.096   3.437   0.588  1.2233  2.2840  0.0772
14967TIP3   OH266391   6.466   6.280   3.471  0.1526  0.0625  0.1663
14967TIP3    H166392   6.558   6.299   3.488  0.4693 -0.0595 -1.2461
14967TIP3    H266393   6.444   6.334   3.395 -1.7067  2.0811  1.9879
14968TIP3   OH266394   2.000   0.255  13.357  0.1072  0.0276  0.3327
14968TIP3    H166395   2.064   0.211  13.303  1.0968 -0.7057  2.0346
14968TIP3    H266396   1.939   0.186  13.384 -0.2280  0.3330  0.3717
14969TIP3   OH266397   2.617   5.932  14.058 -0.4363 -0.4281 -0.4378
14969TIP3    H166398   2.630   5.858  14.116 -0.0560 -0.5534 -0.6798
14969TIP3    H266399   2.536   5.912  14.011 -0.4082 -0.6227 -0.4021
14970TIP3   OH266400   1.853   2.443   2.433 -0.0888 -0.6667 -0.3680
14970TIP3    H166401   1.911   2.511   2.466  0.6242 -1.1571 -0.6089
14970TIP3    H266402   1.769   2.488   2.420  0.8554  0.6422 -2.3483
14971TIP3   OH266403   2.141   1.650   0.434 -0.5970 -0.0134  0.2034
14971TIP3    H166404   2.150   1.557   0.417  0.2632  0.2168 -0.7160
14971TIP3    H266405   2.048   1.662   0.454 -0.5047 -1.2288  1.5260
14972TIP3   OH266406   3.291   5.502   1.061  0.0564  0.3663  0.6762
14972TIP3    H166407   3.336   5.562   1.001  0.4840  0.7932  1.3919
14972TIP3    H266408   3.337   5.419   1.051  1.0771  0.8115  1.4314
14973TIP3   OH266409   0.029   1.541  11.459  0.7205 -0.1147 -0.0980
14973TIP3    H166410  -0.035   1.530  11.529  0.9430 -0.0086  0.1204
14973TIP3    H266411   0.113   1.522  11.499  0.7809 -0.6990 -0.4999
14974TIP3   OH266412   0.320   1.039  14.150  0.1882 -0.0720  0.3796
14974TIP3    H166413   0.318   1.091  14.070 -1.0409 -0.2247  0.2866
14974TIP3    H266414   0.238   0.990  14.148  0.0339  0.0918  1.8463
14975TIP3   OH266415   6.563   2.037  13.120  0.0620  0.4309 -0.5549
14975TIP3    H166416   6.652   2.011  13.100  0.5876  0.7303  1.1965
14975TIP3    H266417   6.508   1.976  13.071  1.2526 -1.3883  0.2705
14976TIP3   OH266418   4.187   0.184   5.144 -0.7117 -0.1301  0.1002
14976TIP3    H166419   4.266   0.167   5.195  0.2520 -0.4126 -1.4231
14976TIP3    H266420   4.115   0.166   5.204  0.3675 -0.3460  1.3769
14977TIP3   OH266421   6.558   3.612  12.587  0.7510  0.2228  0.0453
14977TIP3    H166422   6.543   3.519  12.570 -0.7672  0.4866 -0.2929
14977TIP3    H266423   6.625   3.615  12.655  0.1672 -1.1550  0.7172
14978TIP3   OH266424   0.945   5.016  12.570 -0.5413 -0.5152  0.4053
14978TIP3    H166425   1.002   5.093  12.575  0.2466 -1.1432  1.6653
14978TIP3    H266426   0.879   5.031  12.637 -1.2473 -0.2945 -0.3230
14979TIP3   OH266427   4.041   3.604  12.874  0.1678 -0.4820  0.2014
14979TIP3    H166428   4.081   3.529  12.917 -0.2594 -0.0300  1.4164
14979TIP3    H266429   3.959   3.571  12.838  0.2202 -0.7179  0.2976
14980TIP3   OH266430   1.688   2.420   0.454 -0.3461 -0.1175  0.4729
14980TIP3    H166431   1.762   2.371   0.491 -0.4029  0.4887  1.4451
14980TIP3    H266432   1.612   2.364   0.470 -0.1141 -0.7148 -0.4724
14981TIP3   OH266433   4.307   6.003  17.034 -0.2355 -0.4172  0.3714
14981TIP3    H166434   4.344   5.966  16.954 -0.8431 -1.1637  0.4332
14981TIP3    H266435   4.305   6.098  17.018 -2.0063 -0.6687 -1.2250
14982TIP3   OH266436   3.481   5.925  15.448 -0.2647 -0.6754  0.1225
14982TIP3    H166437   3.562   5.925  15.498 -1.6643 -1.3367  2.5071
14982TIP3    H266438   3.453   5.834  15.447 -1.1538 -0.4101 -0.3770
14983TIP3   OH266439   4.180   2.385   1.112 -0.3443  0.0559 -0.4023
14983TIP3    H166440   4.152   2.442   1.184  0.4257 -0.1401  0.0689
14983TIP3    H266441   4.116   2.314   1.111 -0.8751  0.5379 -0.4990
14984TIP3   OH266442   1.488   2.871  14.323 -0.0285 -0.3083  0.4210
14984TIP3    H166443   1.442   2.954  14.310 -1.5677 -1.2156 -0.1300
14984TIP3    H266444   1.458   2.840  14.409  0.1845 -0.5268  0.4168
14985TIP3   OH266445   5.784   3.992   5.625  0.5217 -0.0994 -0.7575
14985TIP3    H166446   5.699   3.976   5.584 -0.5876  0.3891  1.2262
14985TIP3    H266447   5.773   4.074   5.673  1.6718 -0.7000  0.6343
14986TIP3   OH266448   6.679   4.706   3.130  0.2431  0.2524 -0.3076
14986TIP3    H166449   6.700   4.613   3.123  1.5970  0.4021  1.0712
14986TIP3    H266450   6.746   4.750   3.077  1.0892  0.5336  0.9471
14987TIP3   OH266451   0.999   4.354   3.314  0.5581 -0.1963  0.2130
14987TIP3    H166452   1.047   4.315   3.241  1.9777 -0.6080  1.3124
14987TIP3    H266453   0.942   4.284   3.346 -0.5822  0.1941 -0.8929
14988TIP3   OH266454   6.366   5.967   1.062  0.4028  0.1673 -0.0226
14988TIP3    H166455   6.350   5.992   0.972  1.8950  1.6432  0.0634
14988TIP3    H266456   6.449   5.918   1.059 -0.0377 -0.6301  0.4382
14989TIP3   OH266457   1.459   0.709  13.449  0.0778  0.5213 -0.3773
14989TIP3    H166458   1.496   0.621  13.453 -0.4304  0.2907 -0.6655
14989TIP3    H266459   1.534   0.767  13.462 -0.0948  0.0683  4.2330
14990TIP3   OH266460   0.814   1.669   0.866  0.1309  0.1157  0.1597
14990TIP3    H166461   0.827   1.754   0.909  3.1183 -0.7492  1.2078
14990TIP3    H266462   0.809   1.606   0.938  1.8427 -0.9925 -0.6341
14991TIP3   OH266463   1.288   6.169  15.248  0.4594 -0.6062  0.5949
14991TIP3    H166464   1.360   6.217  15.208 -0.1708  0.0881  0.2734
14991TIP3    H266465   1.268   6.217  15.328  1.8845 -2.1339  1.9466
14992TIP3   OH266466   2.991   1.028  12.192 -0.3148  0.4168 -0.7528
14992TIP3    H166467   3.033   1.053  12.274  0.3353 -0.0394 -0.9413
14992TIP3    H266468   2.897   1.032  12.212 -0.2282 -2.9840  1.0969
14993TIP3   OH266469   5.449   3.405  12.354  0.0824  0.1469 -0.2531
14993TIP3    H166470   5.474   3.344  12.285 -0.3911  0.4767 -0.7235
14993TIP3    H266471   5.399   3.473  12.309 -0.9902 -0.0961  0.5406
14994TIP3   OH266472   5.807   1.639   1.128 -0.5169 -0.0018  0.2415
14994TIP3    H166473   5.881   1.686   1.090 -0.6292  0.7656  0.9315
14994TIP3    H266474   5.846   1.567   1.176 -0.3800 -1.0615 -1.3934
14995TIP3   OH266475   4.559   0.222   0.462 -0.3488 -0.5237  0.2012
14995TIP3    H166476   4.602   0.282   0.523 -1.2761 -0.3669  0.7287
14995TIP3    H266477   4.551   0.271   0.381 -1.6379  0.3186  0.8044
14996TIP3   OH266478   5.355   4.596   5.315  0.2061 -0.0349  0.1606
14996TIP3    H166479   5.422   4.601   5.247  0.9000 -1.8315  0.6660
14996TIP3    H266480   5.272   4.609   5.268  0.8235  1.4004 -0.5942
14997TIP3   OH266481   4.371   6.855   3.985 -0.3795 -0.0247  0.4560
14997TIP3    H166482   4.421   6.801   3.924 -1.3912 -0.6129  0.1196
14997TIP3    H266483   4.437   6.903   4.035  0.5124 -0.8068  0.0544
14998TIP3   OH266484   5.842   3.115  16.978  0.1451 -0.6259 -0.2880
14998TIP3    H166485   5.895   3.036  16.985  1.6920  0.5122  1.9079
14998TIP3    H266486   5.791   3.103  16.897  1.9722 -2.8276 -1.2117
14999TIP3   OH266487   2.749   6.213   5.362 -0.3705 -0.0625  0.4601
14999TIP3    H166488   2.705   6.177   5.286 -2.1066  1.0824  0.8627
14999TIP3    H266489   2.721   6.158   5.435  2.2895 -1.9580  0.1970
15000TIP3   OH266490   2.309   1.452  11.298 -0.8442  0.1416  0.2285
15000TIP3    H166491   2.299   1.360  11.320 -2.7384 -0.2095 -1.7749
15000TIP3    H266492   2.350   1.452  11.211 -0.6852  1.2057  0.2825
15001TIP3   OH266493   1.663   4.482  15.271  0.2638 -0.0847  0.0486
15001TIP3    H166494   1.614   4.564  15.265 -0.9133 -0.6214  1.5584
15001TIP3    H266495   1.602   4.416  15.237  0.2191 -0.6586  1.2038
15002TIP3   OH266496   3.963   6.298  15.208  0.4290 -0.1210 -0.1396
15002TIP3    H166497   4.033   6.303  15.143  0.2621  0.4434 -0.2777
15002TIP3    H266498   3.962   6.384  15.250 -1.3654  0.5438 -1.3928
15003TIP3   OH266499   0.065   4.218  13.574 -0.2710 -0.6487 -0.0488
15003TIP3    H166500  -0.004   4.190  13.635 -0.0311 -0.8043  0.1518
15003TIP3    H266501   0.050   4.165  13.495  0.5624 -1.8201  0.5523
15004TIP3   OH266502   3.491   1.124   3.678  0.3867 -0.2281  0.0668
15004TIP3    H166503   3.477   1.031   3.660  0.2485 -0.2839  0.4453
15004TIP3    H266504   3.466   1.168   3.597  0.9402 -0.5578 -0.2884
15005TIP3   OH266505   1.609   5.892   0.196  0.2127 -0.3037  0.0746
15005TIP3    H166506   1.650   5.964   0.149  1.8295 -1.3016 -0.1030
15005TIP3    H266507   1.674   5.822   0.195 -1.1487 -1.6370  0.5976
15006TIP3   OH266508   1.639   4.447   0.592 -0.0598 -0.3985 -0.2713
15006TIP3    H166509   1.656   4.536   0.622  0.8541 -0.7514  0.2907
15006TIP3    H266510   1.650   4.452   0.497  1.2409 -0.1540 -0.1355
15007TIP3   OH266511   3.335   6.339  14.652 -0.5725  0.1159 -0.3745
15007TIP3    H166512   3.401   6.288  14.605 -0.2551 -1.6947  1.8460
15007TIP3    H266513   3.256   6.286  14.645 -0.7480  0.2853  0.3421
15008TIP3   OH266514   4.201   2.271   1.805  0.6421 -0.2434 -0.0854
15008TIP3    H166515   4.136   2.248   1.871 -0.3255  1.2722 -0.4602
15008TIP3    H266516   4.152   2.275   1.723  1.7653 -1.7901 -0.9082
15009TIP3   OH266517   6.477   2.784   2.128  0.1879 -0.3611  0.0814
15009TIP3    H166518   6.561   2.770   2.172 -0.1933 -0.0505  0.9171
15009TIP3    H266519   6.416   2.807   2.198 -0.4899 -0.1060 -0.5776
15010TIP3   OH266520   6.143   5.599   1.418 -0.1805 -0.2233 -0.0693
15010TIP3    H166521   6.229   5.611   1.379  0.1002 -0.6699  0.3969
15010TIP3    H266522   6.133   5.504   1.425 -1.2471 -0.2257 -1.2746
15011TIP3   OH266523   6.358   6.331   4.542 -0.0276  0.5348 -0.2252
15011TIP3    H166524   6.442   6.376   4.551  1.4813 -1.0397 -4.2610
15011TIP3    H266525   6.333   6.345   4.451 -2.8186 -1.3204  0.1400
15012TIP3   OH266526   5.951   1.065   1.941  0.0502 -0.1312  0.1154
15012TIP3    H166527   5.905   1.018   1.873  1.1541 -0.8847 -0.1428
15012TIP3    H266528   5.899   1.050   2.020 -1.5141  1.1755 -0.6220
15013TIP3   OH266529   5.342   0.016  16.618  0.2028  0.0267 -0.2504
15013TIP3    H166530   5.314   0.107  16.623 -0.7108 -0.2010 -0.8839
15013TIP3    H266531   5.263  -0.032  16.593  1.1197 -0.6601 -2.0179
15014TIP3   OH266532   1.739   6.445  15.884 -0.5144  0.0249 -0.2187
15014TIP3    H166533   1.738   6.518  15.822  2.0305 -0.7597 -1.2683
15014TIP3    H266534   1.794   6.476  15.956 -2.2774  0.3784  1.0603
15015TIP3   OH266535   0.497   2.545  15.838 -0.0433  0.3806  0.2617
15015TIP3    H166536   0.533   2.539  15.926  0.5869  1.9247  0.1359
15015TIP3    H266537   0.526   2.630  15.806  0.6993 -0.5980 -1.8630
15016TIP3   OH266538   2.294   3.518   0.405  0.2158 -0.2967 -0.0594
15016TIP3    H166539   2.305   3.591   0.465 -0.3884 -0.7338  0.6016
15016TIP3    H266540   2.383   3.492   0.381  0.5011 -0.6987  1.3614
15017TIP3   OH266541   0.359   5.121  15.019  0.2779  0.2479 -0.4571
15017TIP3    H166542   0.408   5.050  14.978  1.0188  1.3768 -1.5969
15017TIP3    H266543   0.410   5.199  15.001 -0.1848  1.0129  1.3354
15018TIP3   OH266544   3.391   6.031  11.909  0.5129 -0.0482  0.4646
15018TIP3    H166545   3.331   6.009  11.837  0.0498 -2.3038  1.4484
15018TIP3    H266546   3.333   6.066  11.977  0.6359 -0.1237  0.6057
15019TIP3   OH266547   5.892   4.397   5.005  0.6762  0.5412  0.0504
15019TIP3    H166548   5.843   4.365   5.080  1.9071 -1.0574  0.2255
15019TIP3    H266549   5.979   4.415   5.039  0.7201  1.7065 -0.6076
15020TIP3   OH266550   1.672   5.117   3.459  0.4156 -0.7974 -0.3511
15020TIP3    H166551   1.633   5.030   3.470  1.9792 -1.4339  0.2996
15020TIP3    H266552   1.731   5.107   3.384  0.3878 -0.2117 -0.4532
15021TIP3   OH266553   4.318   3.368   1.434 -0.3389  0.0932 -0.2592
15021TIP3    H166554   4.281   3.438   1.381  0.2514 -0.8153 -1.9543
15021TIP3    H266555   4.401   3.404   1.466 -1.3608  1.1669  1.3310
15022TIP3   OH266556   3.831   5.883  14.932 -0.5521 -0.3197 -0.0819
15022TIP3    H166557   3.762   5.840  14.881 -2.7552  0.5157  1.9707
15022TIP3    H266558   3.787   5.957  14.974  1.2734 -0.5057  2.3734
15023TIP3   OH266559   5.704   5.478   4.607  0.3904 -0.3451  0.3206
15023TIP3    H166560   5.627   5.470   4.551  0.6226  2.1739 -0.5090
15023TIP3    H266561   5.685   5.423   4.683 -2.0127 -0.1785 -0.0887
15024TIP3   OH266562   6.727   5.603  15.521 -0.4528  0.0295 -0.1812
15024TIP3    H166563   6.782   5.561  15.587 -0.8548  0.9931  0.8026
15024TIP3    H266564   6.783   5.671  15.483 -0.3481 -0.2655 -0.5596
15025TIP3   OH266565   3.522   6.249  14.011 -0.3361  0.4065  0.4624
15025TIP3    H166566   3.474   6.241  14.094  0.7140  2.2588  1.3177
15025TIP3    H266567   3.533   6.159  13.982 -3.5054 -0.1748  0.6392
15026TIP3   OH266568   1.856   3.688  15.599 -0.1044 -0.3561 -0.1780
15026TIP3    H166569   1.791   3.716  15.664 -0.3089 -0.7548 -0.2115
15026TIP3    H266570   1.922   3.642  15.651 -0.6692 -1.3735 -0.3524
15027TIP3   OH266571   4.725   1.067   2.360  0.5843  0.3256  0.0110
15027TIP3    H166572   4.748   1.060   2.268  1.2429  1.6664  0.0471
15027TIP3    H266573   4.638   1.107   2.360 -1.4689 -3.6363 -0.0885
15028TIP3   OH266574   1.333   6.333  14.968 -0.0021  0.2517  0.5257
15028TIP3    H166575   1.371   6.246  14.978  1.0515  0.9230  2.9314
15028TIP3    H266576   1.330   6.347  14.873  2.0609 -1.4220  0.1502
15029TIP3   OH266577   3.869   2.486   1.634  0.4135 -0.2069 -0.1149
15029TIP3    H166578   3.796   2.547   1.636  1.7530  1.5128 -0.5786
15029TIP3    H266579   3.878   2.462   1.542 -0.2149 -1.2656  0.0900
15030TIP3   OH266580   2.839   6.109   4.384 -0.0038  0.0992  0.1573
15030TIP3    H166581   2.907   6.082   4.321 -0.9973 -1.4439 -0.3217
15030TIP3    H266582   2.886   6.160   4.450  1.4796 -0.2207 -0.6126
15031TIP3   OH266583   1.885   5.226  16.517 -0.2898 -0.0485 -0.2230
15031TIP3    H166584   1.882   5.236  16.612 -0.8851 -0.5853 -0.1777
15031TIP3    H266585   1.812   5.280  16.485  1.1400  1.7923 -0.5498
15032TIP3   OH266586   0.317   2.518   1.399 -0.0424  0.0229  0.2716
15032TIP3    H166587   0.321   2.567   1.481 -1.8747  2.1606 -0.8130
15032TIP3    H266588   0.384   2.559   1.343 -1.1538  0.9286 -0.4298
15033TIP3   OH266589   5.978   4.144  13.880  0.0519  0.1200  0.3035
15033TIP3    H166590   5.952   4.221  13.830 -1.1831 -1.1784 -1.1797
15033TIP3    H266591   6.048   4.104  13.827 -0.2346 -0.4741  0.3602
15034TIP3   OH266592   3.867   0.221  10.722 -0.2747 -0.4122 -0.7064
15034TIP3    H166593   3.955   0.183  10.722 -0.0503  0.0096  0.9591
15034TIP3    H266594   3.808   0.146  10.711  0.1571 -1.3760  2.5478
15035TIP3   OH266595   4.242   1.147   3.326 -0.2015  0.5887 -0.1490
15035TIP3    H166596   4.306   1.083   3.296  0.9369  0.3013  2.6230
15035TIP3    H266597   4.236   1.210   3.255 -2.1380 -2.9410 -3.5259
15036TIP3   OH266598   5.129   5.302  16.201  0.0312 -0.1113  0.2403
15036TIP3    H166599   5.072   5.229  16.225 -0.7675  0.7941  1.1892
15036TIP3    H266600   5.216   5.277  16.232  0.0966 -1.3112 -0.8181
15037TIP3   OH266601   5.447   3.512  12.065  0.4999 -0.1606  0.0619
15037TIP3    H166602   5.490   3.428  12.053  0.7767  0.0829 -0.7572
15037TIP3    H266603   5.509   3.576  12.029 -0.7628  0.1495 -1.7076
15038TIP3   OH266604   4.915   5.115   0.201 -0.3594  0.1066  0.0336
15038TIP3    H166605   4.971   5.100   0.125 -0.9899  1.3830 -0.7223
15038TIP3    H266606   4.878   5.202   0.186 -1.9684 -0.4021  0.8836
15039TIP3   OH266607   0.432   5.768   3.697 -0.6617  0.2703  0.2777
15039TIP3    H166608   0.418   5.842   3.756 -0.8393 -1.0189  1.9205
15039TIP3    H266609   0.344   5.735   3.678 -0.6299  0.8433 -0.9940
15040TIP3   OH266610   2.014   2.127  16.074 -0.4163 -0.4780  0.2765
15040TIP3    H166611   1.933   2.143  16.121 -0.5488 -1.5481  0.4267
15040TIP3    H266612   2.064   2.209  16.084 -1.5542  0.2759 -0.0239
15041TIP3   OH266613   3.481   2.645   0.378  0.0733 -0.2169  0.3808
15041TIP3    H166614   3.524   2.590   0.442  0.1630  0.9894  1.3912
15041TIP3    H266615   3.389   2.616   0.379 -0.3168  0.9364  2.3757
15042TIP3   OH266616   1.977   4.968   3.094 -0.1177  0.1487  0.2887
15042TIP3    H166617   1.892   4.968   3.138 -0.5652 -0.4278 -0.5448
15042TIP3    H266618   1.993   4.875   3.075 -0.0105  0.3945 -0.8756
15043TIP3   OH266619   0.078   2.204   0.677 -0.1172  0.5311 -0.2691
15043TIP3    H166620   0.137   2.225   0.749  0.7054  0.4054 -0.8974
15043TIP3    H266621   0.105   2.261   0.606  1.5186 -1.8179 -1.6786
15044TIP3   OH266622   5.872   0.983  14.616 -0.1761  0.0211 -0.2033
15044TIP3    H166623   5.927   1.049  14.657  1.1498 -1.3702  0.3619
15044TIP3    H266624   5.911   0.970  14.529 -1.3953  1.0763 -0.9464
15045TIP3   OH266625   6.198   1.435  11.511 -0.6504  0.1710 -0.4200
15045TIP3    H166626   6.242   1.351  11.497  1.2896  1.5703 -4.3544
15045TIP3    H266627   6.253   1.480  11.576  0.4490 -0.2738 -1.0122
15046TIP3   OH266628   2.745   6.573  15.799  0.1737 -0.1547 -0.6215
15046TIP3    H166629   2.786   6.653  15.767  2.2162 -0.1457  1.7231
15046TIP3    H266630   2.721   6.593  15.890  1.2960 -2.3205  0.2263
15047TIP3   OH266631   2.160   5.243  16.611 -0.1857 -0.0236 -0.0491
15047TIP3    H166632   2.108   5.322  16.599  0.3948  0.4207  0.3022
15047TIP3    H266633   2.099   5.171  16.594 -0.2253  0.4962 -2.4246
15048TIP3   OH266634   5.699   4.218   5.741  0.0067 -0.1100  0.8352
15048TIP3    H166635   5.689   4.313   5.742 -1.4923 -0.2123  3.2282
15048TIP3    H266636   5.616   4.185   5.776 -0.6117 -2.4941 -2.4684
15049TIP3   OH266637   4.633   6.819   0.758 -0.4514  0.4431  0.0720
15049TIP3    H166638   4.544   6.851   0.778 -0.2686  1.1761 -0.2327
15049TIP3    H266639   4.691   6.884   0.798 -0.0687  0.8538 -1.1076
15050TIP3   OH266640   1.473   3.032  11.787 -0.0720 -0.6645 -0.4658
15050TIP3    H166641   1.477   3.028  11.692 -1.6639  0.4615 -0.6221
15050TIP3    H266642   1.408   2.966  11.812 -0.9286  0.2081 -0.3235
15051TIP3   OH266643   2.870   1.940  14.225 -0.2099 -0.2412 -0.0292
15051TIP3    H166644   2.884   1.847  14.205 -2.3791 -0.3286 -1.5920
15051TIP3    H266645   2.794   1.964  14.172 -1.7026  1.6267  2.6941
15052TIP3   OH266646   5.486   6.822  10.958 -0.3673 -0.5364 -0.4496
15052TIP3    H166647   5.560   6.882  10.949 -0.7242 -0.1902 -1.1768
15052TIP3    H266648   5.488   6.794  11.049 -1.1474  1.8603  0.3859
15053TIP3   OH266649   2.958   6.534   5.187  0.4809 -0.9821  0.4543
15053TIP3    H166650   2.891   6.585   5.231  0.0126 -2.4826  1.5565
15053TIP3    H266651   3.036   6.543   5.243  0.1811 -2.0432  1.0745
15054TIP3   OH266652   0.161   2.776   3.028 -0.1719  0.3327 -0.1485
15054TIP3    H166653   0.130   2.853   3.076  1.3005  1.7307 -1.3467
15054TIP3    H266654   0.083   2.744   2.983 -0.7518  1.3063  0.1202
15055TIP3   OH266655   1.032   1.255   0.374  0.0482  0.1785  0.0406
15055TIP3    H166656   0.944   1.241   0.338 -0.1988  1.1888  0.2297
15055TIP3    H266657   1.027   1.223   0.464  0.2420 -0.9418 -0.3302
15056TIP3   OH266658   2.268   0.621   1.282  0.2747  0.2051  0.2022
15056TIP3    H166659   2.209   0.592   1.351  0.4882  0.0692  0.3293
15056TIP3    H266660   2.356   0.605   1.317  0.3893 -0.8636 -0.5074
15057TIP3   OH266661   1.561   5.082  16.605 -0.2705  0.1651 -0.5051
15057TIP3    H166662   1.537   5.135  16.682  0.2221  0.6546 -0.6883
15057TIP3    H266663   1.515   5.124  16.532  1.5242  1.4422 -0.9522
15058TIP3   OH266664   0.808   4.666   0.148  0.0420 -0.0925  0.0745
15058TIP3    H166665   0.874   4.736   0.150  0.0870 -0.1293  1.6612
15058TIP3    H266666   0.730   4.707   0.185  0.1081 -0.8803  1.1501
15059TIP3   OH266667   4.352   6.308  11.881 -0.2756  0.1118 -0.3308
15059TIP3    H166668   4.353   6.349  11.795 -0.0150  1.7126  0.3918
15059TIP3    H266669   4.438   6.267  11.889  0.1505  0.9603 -0.4010
15060TIP3   OH266670   2.007   0.389   2.994 -0.5786  0.2700 -0.1959
15060TIP3    H166671   2.039   0.429   3.074 -1.1738  0.3141  0.0215
15060TIP3    H266672   2.086   0.357   2.950 -0.2995 -0.2730  0.6819
15061TIP3   OH266673   1.267   3.585   1.593 -0.6920 -0.0034 -0.5010
15061TIP3    H166674   1.183   3.600   1.549  0.3545  2.5050 -1.8752
15061TIP3    H266675   1.266   3.645   1.667  0.2970  0.8541 -1.1639
15062TIP3   OH266676   4.686   0.589  11.228  0.0102 -0.0660 -0.5361
15062TIP3    H166677   4.709   0.521  11.292 -0.0836  0.8456  0.5067
15062TIP3    H266678   4.759   0.590  11.166  0.7803 -0.0650  0.3433
15063TIP3   OH266679   3.931   6.270   5.050 -0.3886  0.1237  0.0118
15063TIP3    H166680   3.934   6.288   4.956 -0.0670  0.2854  0.0508
15063TIP3    H266681   4.000   6.325   5.088  1.5739 -2.0880 -0.0449
15064TIP3   OH266682   2.346   3.728   3.308  0.3333  0.0937 -0.4544
15064TIP3    H166683   2.325   3.719   3.216 -1.5701 -2.4020  0.0976
15064TIP3    H266684   2.292   3.800   3.339 -1.0195 -0.7257 -0.8162
15065TIP3   OH266685   5.632   1.946  12.616 -0.2314 -0.2135  0.6389
15065TIP3    H166686   5.719   1.974  12.643 -0.3926  0.9583  0.0250
15065TIP3    H266687   5.640   1.852  12.600  0.6029 -0.3583  1.7580
15066TIP3   OH266688   4.186   4.595  10.440 -0.3371  0.6373 -0.0250
15066TIP3    H166689   4.113   4.648  10.472 -1.3781  0.1975 -1.5845
15066TIP3    H266690   4.150   4.544  10.368  1.0934 -0.8828  0.2625
15067TIP3   OH266691   6.617   0.272   5.184 -0.6555  0.0080  0.0868
15067TIP3    H166692   6.671   0.199   5.214 -0.8119  0.0547  0.4948
15067TIP3    H266693   6.537   0.264   5.236 -0.9496  0.0710 -0.3505
15068TIP3   OH266694   1.927   2.917  12.681  0.5730  0.2697 -0.2066
15068TIP3    H166695   1.907   2.909  12.588 -0.5830  1.1197 -0.0504
15068TIP3    H266696   2.021   2.935  12.685  1.0689 -1.8370 -1.0861
15069TIP3   OH266697   2.840   4.185   2.133 -0.0537  0.3031 -0.5536
15069TIP3    H166698   2.808   4.168   2.044  0.6060 -0.2724 -0.6936
15069TIP3    H266699   2.770   4.153   2.190  0.4999 -1.5296 -0.8397
15070TIP3   OH266700   2.653   3.643  13.175  0.5316 -0.0302  0.3353
15070TIP3    H166701   2.732   3.665  13.225 -0.8184  1.3057  1.9855
15070TIP3    H266702   2.641   3.549  13.190  0.9578  0.0625  1.3287
15071TIP3   OH266703   0.526   3.555  14.204 -0.6865 -0.0099  0.1079
15071TIP3    H166704   0.550   3.490  14.139 -0.2830 -0.0787  0.3236
15071TIP3    H266705   0.610   3.593  14.232 -0.8741  0.1779  0.4180
15072TIP3   OH266706   2.512   0.844   1.243  0.0388  0.2969  0.1935
15072TIP3    H166707   2.427   0.828   1.202 -0.1632  0.1386  0.6692
15072TIP3    H266708   2.573   0.852   1.169 -0.4076  0.5333 -0.1496
15073TIP3   OH266709   3.759   1.186  15.062  0.1762 -0.4380  0.3194
15073TIP3    H166710   3.693   1.117  15.069  0.1957 -0.7912 -2.0446
15073TIP3    H266711   3.723   1.259  15.111 -1.3145 -1.0997  0.2531
15074TIP3   OH266712   2.680   3.540   0.072 -0.1288 -0.1335 -0.0560
15074TIP3    H166713   2.775   3.537   0.056 -0.2826 -0.6601 -0.9293
15074TIP3    H266714   2.642   3.557  -0.014 -0.7725  1.4306  0.5041
15075TIP3   OH266715   5.200   3.932   2.647 -0.3002  1.0522  0.0526
15075TIP3    H166716   5.293   3.949   2.634 -0.3790  0.8698 -0.7858
15075TIP3    H266717   5.197   3.875   2.724  0.1811  2.0933  0.8595
15076TIP3   OH266718   5.885   0.024  11.166  0.3166 -0.0884  0.7750
15076TIP3    H166719   5.911   0.038  11.075 -0.0085 -0.6757  0.5828
15076TIP3    H266720   5.956  -0.028  11.203 -0.0692 -0.8035  0.5387
15077TIP3   OH266721   3.345   3.744   4.936 -0.5548  0.3149  0.4742
15077TIP3    H166722   3.325   3.828   4.895  0.4004  0.3334  0.0329
15077TIP3    H266723   3.439   3.744   4.948 -0.3753 -1.1337 -0.5586
15078TIP3   OH266724   6.626   1.095  13.020  0.2048 -0.4089 -0.7469
15078TIP3    H166725   6.591   1.006  13.017 -1.5122  0.0202  2.3036
15078TIP3    H266726   6.680   1.102  12.942 -1.8526 -3.1655 -2.6173
15079TIP3   OH266727   6.281   0.155  14.334 -0.5223 -0.1901 -0.4022
15079TIP3    H166728   6.376   0.151  14.331 -0.5718 -1.7411 -0.7767
15079TIP3    H266729   6.261   0.195  14.418  0.4525  0.2675 -0.3759
15080TIP3   OH266730   2.876   1.455  12.648 -0.3452 -0.2840 -0.4047
15080TIP3    H166731   2.911   1.397  12.715  0.4858  0.9943  0.2989
15080TIP3    H266732   2.827   1.397  12.589 -1.3327 -1.4112  1.4310
15081TIP3   OH266733   0.759   4.109   6.247  0.4594 -0.3160 -0.0565
15081TIP3    H166734   0.674   4.151   6.234  0.7604  0.1924 -0.4382
15081TIP3    H266735   0.738   4.017   6.261 -0.0280 -0.6894 -2.6696
15082TIP3   OH266736   5.647   5.188  16.972  0.8369 -0.3925 -0.2676
15082TIP3    H166737   5.689   5.117  17.021  1.6425 -0.4191 -0.9706
15082TIP3    H266738   5.557   5.190  17.005  0.9886 -1.2936  0.2387
15083TIP3   OH266739   2.624   5.757  16.590 -0.0332 -0.4049 -0.2766
15083TIP3    H166740   2.681   5.705  16.646  0.0946  0.1431  0.1103
15083TIP3    H266741   2.669   5.758  16.505  0.7621  0.3800  0.1393
15084TIP3   OH266742   3.388   4.741   5.346  0.3678  0.1615  0.1071
15084TIP3    H166743   3.432   4.662   5.378  1.6944  0.4740 -0.8647
15084TIP3    H266744   3.352   4.716   5.261 -0.6959  0.1397  0.5472
15085TIP3   OH266745   0.411   2.502  13.305 -0.2477  0.0498  0.2267
15085TIP3    H166746   0.445   2.518  13.393  0.0335 -1.5605  0.4542
15085TIP3    H266747   0.424   2.408  13.292 -1.9562 -0.0843 -0.8324
15086TIP3   OH266748   2.220   6.731  16.646  0.5651  0.1434  0.0351
15086TIP3    H166749   2.305   6.772  16.659  0.4353  0.6696 -0.7414
15086TIP3    H266750   2.157   6.793  16.683  0.3948  0.5180 -0.8611
15087TIP3   OH266751   5.161   3.412  13.077  0.9566  0.3856  0.0718
15087TIP3    H166752   5.098   3.415  13.149  0.1434 -1.7749 -0.4524
15087TIP3    H266753   5.229   3.475  13.101 -0.2423  1.1083  1.7788
15088TIP3   OH266754   4.650   2.693   4.080  1.0651 -0.5632  0.1944
15088TIP3    H166755   4.682   2.603   4.079  2.1186 -0.2154 -1.1203
15088TIP3    H266756   4.712   2.740   4.136  1.4760 -0.3615 -0.4138
15089TIP3   OH266757   2.041   3.293   1.047  0.1606  0.0680  0.1435
15089TIP3    H166758   2.094   3.263   1.120  2.2504  0.9162 -0.9408
15089TIP3    H266759   1.953   3.258   1.065  0.9096 -0.8562  2.3280
15090TIP3   OH266760   3.272   3.647   1.328 -0.5931 -0.5237 -0.0172
15090TIP3    H166761   3.275   3.598   1.246 -1.1548 -0.3515 -0.1451
15090TIP3    H266762   3.334   3.719   1.316  0.5069 -1.3940  0.3036
15091TIP3   OH266763   0.314   1.973   2.943  0.2476 -0.4473  0.1375
15091TIP3    H166764   0.239   2.032   2.934  1.0246  0.4824 -0.4510
15091TIP3    H266765   0.344   1.956   2.854  1.4012  0.0964  0.3927
15092TIP3   OH266766   6.125   3.992   3.339 -0.5067 -0.1202  0.4796
15092TIP3    H166767   6.053   3.942   3.299  0.4846 -0.4958 -0.9353
15092TIP3    H266768   6.170   4.032   3.265  0.6715  0.2031  1.3417
15093TIP3   OH266769   0.458   5.305  12.632  0.0829  0.2912  0.0200
15093TIP3    H166770   0.445   5.278  12.723 -2.2628 -1.4448 -0.7252
15093TIP3    H266771   0.371   5.333  12.603  1.0460  2.0346 -1.3680
15094TIP3   OH266772   0.450   4.373   1.157 -0.3625 -0.4141  0.1518
15094TIP3    H166773   0.471   4.466   1.152  0.3147 -0.6035 -0.9055
15094TIP3    H266774   0.444   4.354   1.251  3.1557 -0.0833  0.5781
15095TIP3   OH266775   4.895   4.942  10.242 -0.5834 -0.1495  0.5889
15095TIP3    H166776   4.810   4.899  10.235  0.0381 -1.1914 -1.0326
15095TIP3    H266777   4.946   4.886  10.300  0.4747 -2.1919 -2.1007
15096TIP3   OH266778   3.871   6.705   2.211 -0.4944 -0.3411  0.2330
15096TIP3    H166779   3.895   6.770   2.277 -0.6421  0.4770 -0.4910
15096TIP3    H266780   3.777   6.720   2.196 -0.4519 -0.4826 -0.1892
15097TIP3   OH266781   0.177   1.824   1.947  0.2857  0.1205 -0.1409
15097TIP3    H166782   0.222   1.812   1.864  1.1148 -0.6006  0.3937
15097TIP3    H266783   0.246   1.819   2.013 -0.3215  0.9924  0.5763
15098TIP3   OH266784   4.024   2.669  16.295  0.2806 -0.3789 -0.3499
15098TIP3    H166785   4.098   2.618  16.261  1.0490  0.7062 -0.3930
15098TIP3    H266786   4.024   2.652  16.389  4.1646  3.6542  0.7747
15099TIP3   OH266787   2.354   0.361   5.475  0.4082  0.8452 -0.3466
15099TIP3    H166788   2.321   0.448   5.452 -0.1049  0.0629 -2.9640
15099TIP3    H266789   2.277   0.306   5.478  0.8451  0.2493  0.0834
15100TIP3   OH266790   3.156   1.715   1.210 -0.3115  0.5095 -0.4117
15100TIP3    H166791   3.221   1.680   1.270 -0.6480 -3.2798 -1.9701
15100TIP3    H266792   3.074   1.714   1.260 -0.0009  0.6059  0.0993
15101TIP3   OH266793   5.842   5.114   0.459  0.4962  0.5472 -0.1724
15101TIP3    H166794   5.879   5.055   0.525  0.0839  1.3258  0.8004
15101TIP3    H266795   5.763   5.149   0.501  0.2944  1.1678 -1.0376
15102TIP3   OH266796   2.522   2.577   3.071 -0.1952  0.3673  0.1184
15102TIP3    H166797   2.491   2.548   2.985  2.4723  1.1414 -1.2231
15102TIP3    H266798   2.607   2.533   3.081 -0.9551 -0.6414  2.9529
15103TIP3   OH266799   4.238   6.257   2.312  0.2531 -0.1344  0.0931
15103TIP3    H166800   4.159   6.309   2.305  0.7403  0.6077  0.0585
15103TIP3    H266801   4.260   6.236   2.221  1.4200  1.6950 -0.0926
15104TIP3   OH266802   3.078   0.219   2.018 -0.2420 -0.0530  0.3321
15104TIP3    H166803   3.163   0.250   2.050 -0.8988  0.8845  1.1998
15104TIP3    H266804   3.056   0.278   1.946 -0.1024 -0.3960 -0.0005
15105TIP3   OH266805   2.841   2.019  12.086  0.4323 -0.2633  0.6246
15105TIP3    H166806   2.781   2.075  12.136  0.4547 -0.2768  0.6661
15105TIP3    H266807   2.795   2.002  12.004  0.7523  0.4689  0.2751
15106TIP3   OH266808   1.884   5.322   1.477  0.4084 -0.6687  0.2867
15106TIP3    H166809   1.876   5.367   1.561  1.6394  0.7297 -0.3025
15106TIP3    H266810   1.912   5.233   1.501 -0.9034 -0.8144  1.4125
15107TIP3   OH266811   3.613   1.446   5.782 -0.5995 -0.1385 -0.3000
15107TIP3    H166812   3.686   1.482   5.732  1.2581 -2.3404  0.6808
15107TIP3    H266813   3.633   1.467   5.873 -1.0435 -1.0095  0.0117
15108TIP3   OH266814   4.252   6.157  12.340 -0.5301  0.0566 -0.1445
15108TIP3    H166815   4.230   6.249  12.354 -1.8201 -0.3282  0.4665
15108TIP3    H266816   4.184   6.124  12.282 -0.5743 -0.7346  0.3427
15109TIP3   OH266817   2.373   3.211   5.273  0.0976 -0.3172  0.1865
15109TIP3    H166818   2.358   3.134   5.219  0.2988 -0.6435  0.5978
15109TIP3    H266819   2.291   3.260   5.267  1.9542  3.1745 -5.8770
15110TIP3   OH266820   2.497   0.337   3.419 -0.7793 -0.0618 -0.1220
15110TIP3    H166821   2.553   0.413   3.403 -2.8559  1.5507 -0.1023
15110TIP3    H266822   2.559   0.265   3.432  1.2531  1.3923 -1.1010
15111TIP3   OH266823   3.014   4.203   1.634 -0.1410  0.0722  0.1366
15111TIP3    H166824   3.073   4.254   1.578  0.7391 -0.1546  0.8307
15111TIP3    H266825   2.995   4.124   1.583  0.3934  0.0128  0.0270
15112TIP3   OH266826   1.887   0.534  13.081 -0.0352 -0.5158 -0.1387
15112TIP3    H166827   1.835   0.497  13.153  0.6703 -0.7165  0.2818
15112TIP3    H266828   1.917   0.619  13.114 -0.1222 -0.3845 -0.3935
15113TIP3   OH266829   3.547   1.122   5.417 -0.0217 -0.0647  0.0246
15113TIP3    H166830   3.623   1.179   5.406 -1.0938  1.2084 -1.0567
15113TIP3    H266831   3.490   1.169   5.478 -0.4005 -0.5301  0.0357
15114TIP3   OH266832   3.710   1.545  12.984  0.6432  0.2032 -0.2495
15114TIP3    H166833   3.781   1.535  13.047  1.3503 -0.0587 -1.0576
15114TIP3    H266834   3.717   1.468  12.927 -1.2771 -0.6630  0.5844
15115TIP3   OH266835   1.333   2.657  13.380 -0.6322  0.2042  0.9266
15115TIP3    H166836   1.411   2.712  13.381  0.0311 -0.7157  1.7060
15115TIP3    H266837   1.347   2.596  13.307  0.4320 -1.3587  2.3494
15116TIP3   OH266838   4.325   3.604   3.931 -0.0112  0.2091 -0.2415
15116TIP3    H166839   4.254   3.621   3.993  1.6580  1.8038  1.3503
15116TIP3    H266840   4.287   3.626   3.845 -1.7020  0.1280  0.4527
15117TIP3   OH266841   0.402   1.081   5.223 -0.1861 -0.5152 -0.2117
15117TIP3    H166842   0.479   1.130   5.252 -0.3705 -0.6687  0.5746
15117TIP3    H266843   0.349   1.145   5.176 -0.1120 -0.1128  0.2394
15118TIP3   OH266844   2.926   1.810  13.536  0.2092 -0.2950  0.2883
15118TIP3    H166845   2.868   1.855  13.474 -1.8437 -1.2625  1.4198
15118TIP3    H266846   2.966   1.880  13.588 -0.0649  0.3810 -0.3965
15119TIP3   OH266847   5.076   5.757   1.447 -0.3036 -0.3884  0.1137
15119TIP3    H166848   5.064   5.851   1.445 -0.8544 -0.4665 -1.6156
15119TIP3    H266849   5.017   5.726   1.516  1.8544  0.7147  2.6437
15120TIP3   OH266850   5.213   6.425  14.176  0.2468 -0.2035 -0.5718
15120TIP3    H166851   5.153   6.433  14.101  0.0989 -0.5854 -0.4941
15120TIP3    H266852   5.217   6.331  14.194 -0.3064 -0.0553  0.3681
15121TIP3   OH266853   3.162   0.444  11.304 -0.4122 -0.2676  0.3902
15121TIP3    H166854   3.177   0.402  11.219  1.1994  0.2497  0.3891
15121TIP3    H266855   3.222   0.518  11.306 -1.6030  0.7308  1.3227
15122TIP3   OH266856   2.153   1.584   1.291 -0.0970 -0.1013  0.1029
15122TIP3    H166857   2.169   1.665   1.241 -0.1886 -0.5800 -0.7191
15122TIP3    H266858   2.086   1.538   1.241  0.1956 -0.8472  0.3832
15123TIP3   OH266859   4.969   0.638  14.903 -0.3311 -0.1989  0.1172
15123TIP3    H166860   4.998   0.727  14.881  0.6045 -0.1756  1.3552
15123TIP3    H266861   4.876   0.638  14.880 -0.2526  0.9684 -0.2988
15124TIP3   OH266862   2.159   4.551  16.961 -0.4641  0.5312  0.7598
15124TIP3    H166863   2.123   4.533  16.875  1.9538 -1.2144  0.0034
15124TIP3    H266864   2.137   4.643  16.977 -0.5234  1.0922 -1.9815
15125TIP3   OH266865   4.433   1.721  10.905 -0.0767 -0.0570  0.2177
15125TIP3    H166866   4.478   1.795  10.945 -0.9247  0.7620 -0.3131
15125TIP3    H266867   4.421   1.746  10.814  0.0830 -1.0755 -0.0991
15126TIP3   OH266868   6.210   1.844  16.679  0.7996 -0.5408  0.2578
15126TIP3    H166869   6.273   1.907  16.713  0.1810  1.0489 -1.3595
15126TIP3    H266870   6.237   1.829  16.588  0.5709 -2.1620  0.4248
15127TIP3   OH266871   2.686   1.295  13.303 -0.2858 -0.7452 -0.1552
15127TIP3    H166872   2.726   1.341  13.229 -0.3627  0.0655  0.2941
15127TIP3    H266873   2.760   1.257  13.351  0.1016  1.6792  1.2951
15128TIP3   OH266874   2.509   6.369  15.747  0.1790 -0.0358 -0.1349
15128TIP3    H166875   2.473   6.451  15.783 -1.4846 -1.0902  0.7216
15128TIP3    H266876   2.443   6.339  15.685  0.2452 -1.3036  0.3987
15129TIP3   OH266877   2.143   5.769   4.732  0.7902  0.0021  0.1931
15129TIP3    H166878   2.169   5.861   4.742  0.6403  0.0506  0.1400
15129TIP3    H266879   2.223   5.719   4.751  1.1057  0.1726 -0.6578
15130TIP3   OH266880   3.771   1.184   0.647  0.0690 -0.9001 -0.2113
15130TIP3    H166881   3.827   1.108   0.635  0.6782 -0.2656 -1.6143
15130TIP3    H266882   3.800   1.223   0.730 -1.7868 -3.4051  1.7500
15131TIP3   OH266883   4.673   4.255   0.090 -0.1879 -0.1559  0.2034
15131TIP3    H166884   4.623   4.184   0.050  0.0254  0.6839 -1.6307
15131TIP3    H266885   4.611   4.328   0.097  0.5141  0.6378 -1.3547
15132TIP3   OH266886   5.311   1.939   2.116 -0.1933 -0.2089  0.3352
15132TIP3    H166887   5.301   1.875   2.046  2.9564 -1.2281  0.6919
15132TIP3    H266888   5.296   1.890   2.197 -4.8585  1.1654  0.6322
15133TIP3   OH266889   1.108   3.760   5.634 -0.5437  0.1622  0.2734
15133TIP3    H166890   1.173   3.729   5.571 -0.6493  1.7355 -0.6664
15133TIP3    H266891   1.149   3.750   5.719 -0.2335 -1.6332 -0.0589
15134TIP3   OH266892   4.609   4.811  13.153  0.6998 -0.0655 -0.1347
15134TIP3    H166893   4.620   4.718  13.131  1.1436 -0.5544  1.9533
15134TIP3    H266894   4.666   4.857  13.091  0.2555 -1.1224 -1.3893
15135TIP3   OH266895   2.218   2.972  11.912 -0.3464 -0.1168 -0.1574
15135TIP3    H166896   2.202   2.933  11.998 -1.1491  0.6779  0.0608
15135TIP3    H266897   2.314   2.981  11.907 -0.2410 -0.9184  0.3063
15136TIP3   OH266898   3.006   5.252  11.631 -0.1268 -0.0373  0.4034
15136TIP3    H166899   3.001   5.304  11.711  0.9343 -0.7628  0.9665
15136TIP3    H266900   2.983   5.163  11.659 -0.3902 -0.1750 -0.2381
15137TIP3   OH266901   1.043   0.798  10.887  0.0938 -0.9184 -0.0125
15137TIP3    H166902   1.113   0.748  10.928 -0.8982 -1.2869  1.2788
15137TIP3    H266903   1.013   0.858  10.955 -2.0518 -2.0135  0.0849
15138TIP3   OH266904   3.285   3.992  10.783  0.1133  0.6616 -0.2115
15138TIP3    H166905   3.259   3.900  10.774  0.4268  0.4804  0.6598
15138TIP3    H266906   3.366   3.999  10.733  0.8349  0.1216  0.8572
15139TIP3   OH266907   0.144   3.044   3.110 -0.3201  0.1720  0.4441
15139TIP3    H166908   0.121   3.124   3.157  0.0678  1.7304 -1.8233
15139TIP3    H266909   0.226   3.065   3.066 -1.5216 -0.4832 -2.3122
15140TIP3   OH266910   1.466   2.263  15.902 -0.0925  0.2066 -0.0021
15140TIP3    H166911   1.492   2.315  15.826 -0.4415  1.0549  0.4486
15140TIP3    H266912   1.549   2.239  15.944  0.0494  0.8443  0.0838
15141TIP3   OH266913   0.108   1.435  12.668 -0.0497  0.4674 -1.1717
15141TIP3    H166914   0.142   1.390  12.591  2.0901 -2.6675  1.3348
15141TIP3    H266915   0.029   1.387  12.691  0.3257  0.2010 -0.4105
15142TIP3   OH266916   4.009   1.116  15.544  0.0462  0.0414  0.0886
15142TIP3    H166917   4.092   1.162  15.544  0.9324 -1.5037 -0.3183
15142TIP3    H266918   3.964   1.145  15.464  0.0382  1.1243  0.4818
15143TIP3   OH266919   2.565   4.293   4.150  1.0222  0.1452  0.2556
15143TIP3    H166920   2.528   4.285   4.238 -2.4675 -1.9110 -1.2216
15143TIP3    H266921   2.502   4.346   4.101  1.4201 -1.0555 -1.6827
15144TIP3   OH266922   1.542   3.658  13.151  0.5243  0.2387  0.3658
15144TIP3    H166923   1.452   3.627  13.160 -0.9314  3.9865  0.6905
15144TIP3    H266924   1.571   3.675  13.241  0.9350  0.5630  0.1787
15145TIP3   OH266925   3.646   2.101  11.874 -0.3167 -0.1248  0.5874
15145TIP3    H166926   3.555   2.070  11.871 -0.4267  0.1548  0.9373
15145TIP3    H266927   3.643   2.178  11.931 -0.7529  2.8761 -3.0989
15146TIP3   OH266928   0.759   3.470  12.279 -0.1261 -0.3627  0.6639
15146TIP3    H166929   0.775   3.546  12.224  1.2174 -1.4827 -0.5681
15146TIP3    H266930   0.691   3.499  12.340 -0.2964  1.5190 -0.3360
15147TIP3   OH266931   4.974   5.351  16.609  0.1038 -0.1748 -0.1877
15147TIP3    H166932   5.021   5.283  16.561  0.7449  0.7288 -0.8703
15147TIP3    H266933   4.966   5.316  16.698  0.3099 -1.1893 -0.5556
15148TIP3   OH266934   1.462   1.896   1.689  0.1126  0.3615 -0.2054
15148TIP3    H166935   1.550   1.864   1.669 -0.7173 -1.1846 -1.6487
15148TIP3    H266936   1.444   1.961   1.621 -0.0843  0.2187 -0.2911
15149TIP3   OH266937   0.513   6.663   5.131  0.4669  0.0164  0.0818
15149TIP3    H166938   0.557   6.606   5.194 -0.7337 -0.4771  0.5132
15149TIP3    H266939   0.421   6.661   5.158  0.3749  2.1037  0.0589
15150TIP3   OH266940   6.404   5.142  16.948 -0.0359 -0.2065 -0.0191
15150TIP3    H166941   6.478   5.199  16.928  0.0707 -0.1432  0.5247
15150TIP3    H266942   6.411   5.128  17.043  1.0499 -2.6724 -0.4012
15151TIP3   OH266943   3.924   5.665   3.245  0.1315  0.8420 -0.6006
15151TIP3    H166944   3.837   5.625   3.255  1.1563 -1.4813 -0.2649
15151TIP3    H266945   3.934   5.677   3.150  0.7820 -2.3191 -1.0339
15152TIP3   OH266946   4.097   2.358   2.421  0.0659  0.4269  0.2640
15152TIP3    H166947   4.039   2.433   2.406 -1.0379 -0.1708  1.3937
15152TIP3    H266948   4.177   2.397   2.456 -0.8069  1.0420  1.6491
15153TIP3   OH266949   4.563   1.689   5.831 -0.2031 -0.4973 -0.3586
15153TIP3    H166950   4.550   1.770   5.782 -1.1714 -0.2074  0.3425
15153TIP3    H266951   4.580   1.717   5.920  1.6386 -1.0223 -0.5041
15154TIP3   OH266952   2.526   0.081  16.327  0.1817 -0.0163 -0.4884
15154TIP3    H166953   2.549   0.071  16.235 -0.3518 -0.8614 -0.5415
15154TIP3    H266954   2.500  -0.007  16.355  3.0071 -0.4215  1.2244
15155TIP3   OH266955   2.094   0.801   5.317 -0.4965 -0.3049 -0.2584
15155TIP3    H166956   2.054   0.764   5.396 -0.4488  1.2530  0.5370
15155TIP3    H266957   2.065   0.892   5.316  1.8884  0.5299 -0.4099
15156TIP3   OH266958   3.638   6.848  13.816 -0.2564  0.1713  0.1569
15156TIP3    H166959   3.652   6.917  13.752 -1.0774  0.1148 -0.0967
15156TIP3    H266960   3.584   6.888  13.884 -0.9275 -0.2728 -0.1027
15157TIP3   OH266961   6.157   6.581  12.082 -0.0857 -0.3359 -0.1622
15157TIP3    H166962   6.069   6.596  12.116  0.6743  1.2939  1.2456
15157TIP3    H266963   6.182   6.664  12.042  0.2777 -1.2452 -1.8984
15158TIP3   OH266964   0.679   2.046   2.310 -0.6419 -0.4326 -0.4557
15158TIP3    H166965   0.669   2.093   2.228 -3.3770 -0.4509 -0.2158
15158TIP3    H266966   0.744   1.978   2.291  1.1869  1.5319 -1.6238
15159TIP3   OH266967   2.665   3.196   2.894  0.2917 -0.4227 -0.5087
15159TIP3    H166968   2.625   3.141   2.961 -0.4993 -1.7458 -1.9837
15159TIP3    H266969   2.592   3.218   2.835  0.8306  1.2663 -0.5848
15160TIP3   OH266970   2.444   2.435   4.297  0.0495 -0.0176 -0.1051
15160TIP3    H166971   2.486   2.350   4.281 -1.9451 -1.6155  2.2718
15160TIP3    H266972   2.371   2.414   4.356 -0.9600  3.2888 -0.0019
15161TIP3   OH266973   0.638   6.722  16.502  0.4779  0.4068  0.0045
15161TIP3    H166974   0.731   6.721  16.481  0.3595 -2.5664 -0.7804
15161TIP3    H266975   0.602   6.794  16.449  2.3473  1.9766  0.7650
15162TIP3   OH266976   5.849   1.054   1.448 -0.5112 -0.1043  0.1837
15162TIP3    H166977   5.819   1.143   1.426  0.7320  0.7272  1.6217
15162TIP3    H266978   5.786   0.996   1.405 -0.2838  1.4189 -2.4032
15163TIP3   OH266979   6.206   1.481  12.500  0.3012 -0.4343  0.6367
15163TIP3    H166980   6.176   1.394  12.525  0.0654 -0.3041  0.8126
15163TIP3    H266981   6.155   1.541  12.554  0.4336 -0.1843  0.4900
15164TIP3   OH266982   0.070   5.802  10.822 -0.1009  0.4389 -0.0525
15164TIP3    H166983   0.134   5.779  10.889  0.7765 -3.0016 -1.8441
15164TIP3    H266984   0.123   5.818  10.743 -1.3034 -1.0219 -1.2151
15165TIP3   OH266985   5.109   5.620   2.295  0.1191  0.0219 -0.3116
15165TIP3    H166986   5.014   5.617   2.296  0.1351 -2.0307 -0.7240
15165TIP3    H266987   5.130   5.713   2.287 -1.8142  0.5861  0.6161
15166TIP3   OH266988   4.931   0.183  16.208  0.2023  0.6347 -0.2800
15166TIP3    H166989   4.975   0.178  16.293  1.0325  1.2922 -0.6397
15166TIP3    H266990   4.868   0.254  16.218 -0.3472  0.1051  0.0550
15167TIP3   OH266991   1.523   6.698   0.677  0.1471  0.6662 -0.5178
15167TIP3    H166992   1.449   6.748   0.644 -0.3081 -1.2906 -2.7234
15167TIP3    H266993   1.584   6.693   0.604  2.3718  1.9193  1.1322
15168TIP3   OH266994   6.865   2.707  11.396  0.4593  0.2106 -0.3856
15168TIP3    H166995   6.820   2.749  11.322  1.4022  1.8726 -0.0646
15168TIP3    H266996   6.807   2.635  11.421 -1.2530  1.3146 -0.9767
15169TIP3   OH266997   6.384   4.617  12.736 -0.1547 -0.3797  0.1860
15169TIP3    H166998   6.315   4.621  12.802  0.4587 -0.4555  0.8405
15169TIP3    H266999   6.337   4.613  12.652 -0.9649 -1.7157  0.6737
15170TIP3   OH267000   0.617   2.692  12.427  0.5760  0.4762  0.1602
15170TIP3    H167001   0.660   2.721  12.507 -0.6852 -0.3825  1.1706
15170TIP3    H267002   0.598   2.600  12.441 -2.1885  0.9536  0.0642
15171TIP3   OH267003   3.233   3.996   0.233 -0.3844  0.1251 -0.0017
15171TIP3    H167004   3.191   3.948   0.161  1.0150  0.3623 -1.0086
15171TIP3    H267005   3.163   4.007   0.298 -1.5014 -0.6971 -1.0146
15172TIP3   OH267006   4.916   1.494  12.135 -0.6147  0.1267 -0.6117
15172TIP3    H167007   4.896   1.566  12.195 -0.8699  1.5351 -2.2997
15172TIP3    H267008   4.930   1.419  12.192  0.3069  1.6317  1.3012
15173TIP3   OH267009   1.295   0.375  12.625  0.5255  0.2754 -0.0735
15173TIP3    H167010   1.233   0.332  12.684 -1.8542  2.7460 -0.5554
15173TIP3    H267011   1.254   0.367  12.539  1.1076  1.5201 -0.4875
15174TIP3   OH267012   6.598   6.207  16.143 -0.1576  0.2245  0.2474
15174TIP3    H167013   6.547   6.286  16.126  1.0747  1.1718  0.8157
15174TIP3    H267014   6.566   6.175  16.227  0.7140  1.2752  1.0001
15175TIP3   OH267015   3.134   1.280   3.642 -0.1795 -0.0619 -0.2109
15175TIP3    H167016   3.162   1.206   3.696 -0.2531  1.2435  1.7572
15175TIP3    H267017   3.058   1.248   3.594  1.9387 -2.3310 -2.3190
15176TIP3   OH267018   2.375   6.102   1.849 -0.4189 -0.2753 -0.2487
15176TIP3    H167019   2.359   6.132   1.939 -0.3902 -0.3198 -0.2285
15176TIP3    H267020   2.470   6.101   1.841 -0.4261  1.2738 -0.8042
15177TIP3   OH267021   5.700   4.424   3.238 -0.3844 -0.1188  0.2313
15177TIP3    H167022   5.620   4.455   3.280 -0.4222 -0.4544  0.4058
15177TIP3    H267023   5.728   4.349   3.290  0.6955  0.6891  0.8832
15178TIP3   OH267024   5.425   4.872  11.318 -0.1379  0.5828  0.0978
15178TIP3    H167025   5.356   4.819  11.358 -1.3762 -0.7626 -3.4561
15178TIP3    H267026   5.383   4.956  11.300 -0.2738  0.4348 -0.2936
15179TIP3   OH267027   1.356   3.909  13.207  0.6096  0.0031  0.0975
15179TIP3    H167028   1.326   3.838  13.150 -0.3120  0.6102 -0.2115
15179TIP3    H267029   1.400   3.865  13.279  1.9544 -0.7932 -1.1404
15180TIP3   OH267030   3.407   0.254  12.256 -0.3833  0.0063  0.2863
15180TIP3    H167031   3.320   0.292  12.265 -1.3374 -2.1041  0.5102
15180TIP3    H267032   3.465   0.329  12.243 -1.8943  1.6464  2.4318
15181TIP3   OH267033   6.219   3.757   1.891 -0.3238 -0.1026  0.4405
15181TIP3    H167034   6.169   3.794   1.818  0.1060  0.2927  0.3408
15181TIP3    H267035   6.185   3.668   1.901 -0.3921 -0.1586 -0.2370
15182TIP3   OH267036   1.343   4.656   5.463  0.1333 -0.4280 -0.2901
15182TIP3    H167037   1.328   4.633   5.372 -1.6619  0.7108 -0.3364
15182TIP3    H267038   1.268   4.621   5.510 -0.4446  1.4087  0.2672
15183TIP3   OH267039   2.824   2.347   6.596 -0.1919 -0.0812  0.3288
15183TIP3    H167040   2.748   2.309   6.641 -0.2330 -0.0981  0.2455
15183TIP3    H267041   2.861   2.408   6.659  0.7336 -1.3141  1.0438
15184TIP3   OH267042   6.492   2.751  12.035  0.4741 -0.5147  0.0956
15184TIP3    H167043   6.570   2.729  11.986  1.5510  0.0305  1.4975
15184TIP3    H267044   6.424   2.694  12.000  1.3787 -0.6708 -1.4649
15185TIP3   OH267045   2.158   3.322  15.247  0.1623  0.1800  0.5598
15185TIP3    H167046   2.071   3.311  15.209 -0.6775 -0.2915  2.4667
15185TIP3    H267047   2.179   3.236  15.284 -0.0061  1.0568  2.8763
15186TIP3   OH267048   4.893   2.975   5.334  0.0696 -0.3245 -0.1901
15186TIP3    H167049   4.841   2.948   5.259 -2.4879 -0.5421  1.5012
15186TIP3    H267050   4.855   3.059   5.360 -0.5417 -1.2100  2.0159
15187TIP3   OH267051   6.118   1.972   0.832 -0.2387 -0.0958  0.2776
15187TIP3    H167052   6.162   2.025   0.898 -0.7562 -0.0745  0.6144
15187TIP3    H267053   6.068   1.908   0.882 -0.1152 -0.4992 -0.1114
15188TIP3   OH267054   6.710   6.119  11.340  0.0911 -0.7970 -0.1046
15188TIP3    H167055   6.770   6.168  11.284  0.0481  0.1410  0.6641
15188TIP3    H267056   6.746   6.128  11.428 -1.2195 -0.1392  0.3894
15189TIP3   OH267057   3.926   2.766   4.319  0.6357  0.0276  0.0959
15189TIP3    H167058   3.903   2.803   4.234  0.8884  1.9332  0.8032
15189TIP3    H267059   4.021   2.774   4.324  0.4950  1.4461  1.1653
15190TIP3   OH267060   0.842   5.162  15.363  0.1064 -0.1760 -0.1336
15190TIP3    H167061   0.791   5.204  15.294 -0.9513  0.7176  1.1488
15190TIP3    H267062   0.791   5.085  15.388  0.1632 -0.1352  0.1069
15191TIP3   OH267063   5.947   2.795  13.614 -0.2541 -0.2338  0.1778
15191TIP3    H167064   5.941   2.863  13.681  0.0002 -0.2840  0.2535
15191TIP3    H267065   6.023   2.743  13.640 -1.0107 -1.1334  0.6616
15192TIP3   OH267066   2.445   5.954   6.297 -0.4618  0.1190  0.4293
15192TIP3    H167067   2.453   6.048   6.314 -1.4776  0.3560 -0.3484
15192TIP3    H267068   2.536   5.925   6.289 -0.1399  1.1208  0.1980
15193TIP3   OH267069   0.807   1.507   1.103 -0.3399 -0.1409 -0.0456
15193TIP3    H167070   0.783   1.425   1.147  0.3166  1.0490  2.7841
15193TIP3    H267071   0.732   1.564   1.116  0.1952  0.5006  0.3134
15194TIP3   OH267072   2.987   5.483   0.383  0.0626 -0.7128 -0.1583
15194TIP3    H167073   3.019   5.570   0.405  3.1992 -1.9418  0.7172
15194TIP3    H267074   3.006   5.473   0.290 -1.1233 -0.1938 -0.4744
15195TIP3   OH267075   1.982   3.570   1.568  0.2571  0.1060 -0.2574
15195TIP3    H167076   2.003   3.558   1.476  0.6568  0.5101 -0.2215
15195TIP3    H267077   2.030   3.500   1.613  1.2677  0.8016 -0.2128
15196TIP3   OH267078   2.419   5.886  16.091 -0.3026 -0.2274  0.0248
15196TIP3    H167079   2.411   5.876  16.186 -1.9780  1.8761  0.1737
15196TIP3    H267080   2.345   5.836  16.055 -2.3805  2.4935  0.1821
15197TIP3   OH267081   6.380   2.901   4.021 -0.3538 -0.4675 -0.8947
15197TIP3    H167082   6.456   2.862   3.979 -0.0446 -0.4747 -0.3310
15197TIP3    H267083   6.364   2.845   4.097 -0.9635 -0.5064 -1.0437
15198TIP3   OH267084   4.782   2.881   5.008 -0.5093 -0.2333 -0.0864
15198TIP3    H167085   4.770   2.824   5.084 -2.2141  0.8734  0.5372
15198TIP3    H267086   4.704   2.867   4.955 -0.6392  1.0239 -0.2465
15199TIP3   OH267087   0.487   0.663   6.252 -0.5762 -0.6896  0.5216
15199TIP3    H167088   0.461   0.742   6.299 -0.3107 -0.7452  0.7618
15199TIP3    H267089   0.556   0.624   6.306 -0.0582 -0.5936 -0.0548
15200TIP3   OH267090   1.223   1.148   4.970  0.2674  0.3257  0.2466
15200TIP3    H167091   1.134   1.173   4.947  0.1144 -1.1558 -0.8666
15200TIP3    H267092   1.266   1.231   4.993 -0.1338  1.7752 -3.5489
15201TIP3   OH267093   6.398   5.238   3.911  0.0366  0.0651 -0.0892
15201TIP3    H167094   6.335   5.303   3.943 -0.2940 -0.4185  0.2562
15201TIP3    H267095   6.483   5.274   3.935 -0.2305 -0.9435  2.6863
15202TIP3   OH267096   3.280   0.809  14.016 -0.3652  0.5919 -0.1108
15202TIP3    H167097   3.196   0.766  14.000  0.1185 -0.7979  0.8408
15202TIP3    H267098   3.299   0.790  14.108  1.5598 -0.2221 -0.6325
15203TIP3   OH267099   1.606   0.109   4.775 -0.0105  0.6503  0.0838
15203TIP3    H167100   1.548   0.160   4.718 -0.3543  1.0718  0.7964
15203TIP3    H267101   1.694   0.141   4.754 -0.1094  0.6266 -0.3793
15204TIP3   OH267102   6.021   5.375  14.018 -0.4141 -0.2180 -0.2362
15204TIP3    H167103   6.063   5.293  13.991  2.1429  0.1894  2.0722
15204TIP3    H267104   5.967   5.351  14.093 -0.0358  0.1189  0.1480
15205TIP3   OH267105   6.840   3.741  11.341  0.3001 -0.5122 -0.6431
15205TIP3    H167106   6.930   3.719  11.315  0.6131 -1.4898  1.1508
15205TIP3    H267107   6.787   3.669  11.307  0.5979 -1.3534  0.5898
15206TIP3   OH267108   5.044   0.761   5.787  0.6635 -0.2824  0.5672
15206TIP3    H167109   4.994   0.708   5.849  0.2482  0.8116  1.1919
15206TIP3    H267110   4.984   0.831   5.762  1.3112  0.0861  0.0094
15207TIP3   OH267111   0.099   1.194   5.078  0.2402 -0.3544 -0.2947
15207TIP3    H167112   0.145   1.248   5.014 -2.0019 -0.6128 -2.2394
15207TIP3    H267113   0.055   1.127   5.026 -0.7172 -1.3199  1.6438
15208TIP3   OH267114   4.630   2.920  12.170  0.0364 -0.1609  0.1692
15208TIP3    H167115   4.573   2.981  12.217  0.2615  0.1068  0.0943
15208TIP3    H267116   4.571   2.871  12.112  0.2236  2.1575 -2.1475
15209TIP3   OH267117   6.197   5.828  11.752 -0.1640 -0.0398  0.1987
15209TIP3    H167118   6.270   5.803  11.808  0.6703  0.1596 -0.7853
15209TIP3    H267119   6.119   5.804  11.803  0.5751 -1.2637  0.8023
15210TIP3   OH267120   3.478   1.201   3.023 -0.2046  0.0230  0.4184
15210TIP3    H167121   3.483   1.109   3.047 -3.9268 -0.7274 -0.9704
15210TIP3    H267122   3.494   1.202   2.928 -0.3246  0.7944  0.3942
15211TIP3   OH267123   0.446   4.486   4.209 -0.1343 -0.0028  0.1079
15211TIP3    H167124   0.486   4.402   4.189 -0.6517  0.1685 -1.7742
15211TIP3    H267125   0.358   4.480   4.172 -1.1747  0.3896  2.3425
15212TIP3   OH267126   6.126   6.341   2.046 -0.4019 -0.2539  0.2295
15212TIP3    H167127   6.170   6.377   2.123  1.4447  1.7105 -1.6300
15212TIP3    H267128   6.056   6.287   2.083  1.6364 -1.0844  3.3045
15213TIP3   OH267129   0.025   2.313   4.949  0.0914  0.7055  0.3988
15213TIP3    H167130  -0.041   2.358   4.897  0.4007  0.1146 -0.5434
15213TIP3    H267131   0.018   2.351   5.036 -0.9092  1.2433  0.0972
15214TIP3   OH267132   1.534   4.217   3.642  0.1310  0.9287 -0.0271
15214TIP3    H167133   1.491   4.239   3.725  0.4288  1.0051  0.1089
15214TIP3    H267134   1.625   4.202   3.666 -0.2270 -1.5790  0.0879
15215TIP3   OH267135   0.933   1.739   1.367  0.1685  0.5050 -0.0791
15215TIP3    H167136   0.956   1.808   1.430 -3.9111  0.3264  1.9511
15215TIP3    H267137   0.930   1.659   1.420 -0.8814 -0.1256 -1.0550
15216TIP3   OH267138   4.934   6.067  14.502  0.4422 -0.4127 -0.3009
15216TIP3    H167139   4.994   6.008  14.456  0.3527 -2.0602  1.5019
15216TIP3    H267140   4.927   6.144  14.446  3.1235 -0.7497 -1.2543
15217TIP3   OH267141   2.855   6.706  13.546  0.3521  0.3763 -0.2496
15217TIP3    H167142   2.904   6.630  13.578 -1.9127 -0.1741  2.2333
15217TIP3    H267143   2.778   6.668  13.503 -1.5732  1.1208  2.2877
15218TIP3   OH267144   6.559   4.783  14.308 -0.3074 -0.0399  0.5658
15218TIP3    H167145   6.491   4.850  14.307 -0.2393  0.0377  0.8466
15218TIP3    H267146   6.617   4.806  14.236 -0.2933  0.1976  0.6499
15219TIP3   OH267147   5.314   3.747  11.204  0.1087  0.6420 -0.1656
15219TIP3    H167148   5.281   3.749  11.294 -1.8229 -1.2579 -0.7318
15219TIP3    H267149   5.368   3.667  11.200 -2.7538 -1.4070 -1.4762
15220TIP3   OH267150   2.985   6.386   2.563  0.0622 -0.4573 -1.1003
15220TIP3    H167151   2.895   6.367   2.592  0.0006 -1.8637 -2.1136
15220TIP3    H267152   3.040   6.349   2.631 -0.1097 -1.2430 -1.3844
15221TIP3   OH267153   5.895   0.438   2.334  0.3583  1.1151  0.3743
15221TIP3    H167154   5.940   0.380   2.273 -1.7795 -0.3768  0.1201
15221TIP3    H267155   5.895   0.523   2.290  0.0437  0.3761 -1.1198
15222TIP3   OH267156   1.710   1.380  14.028 -0.1936 -0.1407  0.1982
15222TIP3    H167157   1.674   1.313  14.086  0.9991 -1.3907 -0.4245
15222TIP3    H267158   1.712   1.460  14.080  0.3683 -1.1021  1.7196
15223TIP3   OH267159   0.145   4.144   1.637 -0.3337 -0.4755 -0.1762
15223TIP3    H167160   0.056   4.149   1.672 -1.0847  1.6400 -2.1109
15223TIP3    H267161   0.140   4.078   1.568 -0.4382 -0.2696 -0.3660
15224TIP3   OH267162   0.617   3.200  12.836 -0.1347 -0.3317 -0.0096
15224TIP3    H167163   0.694   3.201  12.892  0.1389 -1.4964 -0.3324
15224TIP3    H267164   0.651   3.203  12.747 -0.4266 -1.1412 -0.1626
15225TIP3   OH267165   1.044   0.779  13.271 -0.1693 -0.0415 -0.0023
15225TIP3    H167166   1.065   0.868  13.299 -0.1524 -0.0486  0.0074
15225TIP3    H267167   1.128   0.733  13.270 -0.5060 -0.8723  2.7633
15226TIP3   OH267168   6.878   3.153  11.032 -0.0231 -0.4732 -0.1820
15226TIP3    H167169   6.848   3.123  11.118 -0.5132 -2.7382 -1.0783
15226TIP3    H267170   6.816   3.222  11.008 -0.9402 -1.0089  0.5544
15227TIP3   OH267171   0.274   4.842   1.682  0.2207  0.0688 -0.0493
15227TIP3    H167172   0.297   4.794   1.602 -0.3577  2.9238 -2.1229
15227TIP3    H267173   0.351   4.833   1.738  1.4421 -0.5836 -1.7218
15228TIP3   OH267174   2.989   5.827   5.298  0.2999 -0.5293 -0.5499
15228TIP3    H167175   2.899   5.859   5.294  0.7699  0.7091 -2.2559
15228TIP3    H267176   3.032   5.868   5.224  2.1685 -1.4844 -0.0455
15229TIP3   OH267177   1.011   3.895  16.683  0.2719 -0.6200 -0.3045
15229TIP3    H167178   1.032   3.805  16.657 -1.9140 -0.7864 -1.8114
15229TIP3    H267179   1.088   3.946  16.656  2.2240 -2.1582  1.9704
15230TIP3   OH267180   4.255   2.720   2.471 -0.0004  0.5188  0.0162
15230TIP3    H167181   4.329   2.680   2.517  0.6796  1.5537 -0.1465
15230TIP3    H267182   4.248   2.807   2.510 -1.3131  0.3505  0.2091
15231TIP3   OH267183   0.956   1.805  15.259 -0.2229 -0.5918 -0.2643
15231TIP3    H167184   0.997   1.883  15.222 -0.3699  0.1810  1.1627
15231TIP3    H267185   0.872   1.836  15.293 -0.0364 -1.2399  0.8313
15232TIP3   OH267186   1.342   3.551   2.896 -0.2498 -0.4185 -0.4150
15232TIP3    H167187   1.356   3.640   2.863 -0.7963 -0.3339 -0.4317
15232TIP3    H267188   1.252   3.552   2.929  0.0219 -0.7256  0.3613
15233TIP3   OH267189   6.547   6.204  14.611 -0.4498  0.3049 -0.2069
15233TIP3    H167190   6.564   6.130  14.670 -0.9518  0.8044  0.5812
15233TIP3    H267191   6.576   6.173  14.525 -1.4409 -1.1315 -0.0619
15234TIP3   OH267192   5.129   4.380  10.572  0.3631 -0.1916 -0.4721
15234TIP3    H167193   5.041   4.367  10.608 -0.0283  0.4688 -1.1595
15234TIP3    H267194   5.119   4.363  10.479  1.2380 -1.3034 -0.3719
15235TIP3   OH267195   2.636   5.372   0.453 -0.3416  0.0403  0.0552
15235TIP3    H167196   2.672   5.402   0.370 -2.7402  1.1318 -0.6866
15235TIP3    H267197   2.667   5.435   0.518  2.3025 -1.3268  0.2674
15236TIP3   OH267198   4.248   5.937   4.649  0.4525 -0.0913  1.2837
15236TIP3    H167199   4.286   5.851   4.631 -0.4739 -0.4002  0.7404
15236TIP3    H267200   4.288   5.994   4.584 -0.4671 -0.5458  0.2983
15237TIP3   OH267201   6.653   5.434   3.912 -0.6177  0.1267  0.4266
15237TIP3    H167202   6.628   5.524   3.889 -1.0202 -0.3550 -1.1560
15237TIP3    H267203   6.720   5.411   3.847 -0.6211 -0.7635  0.7319
15238TIP3   OH267204   0.220   6.133   1.230 -0.2198  0.5892 -0.2641
15238TIP3    H167205   0.250   6.190   1.300 -0.0761 -1.6002  1.5552
15238TIP3    H267206   0.128   6.115   1.251  0.4116 -1.9065  0.7952
15239TIP3   OH267207   3.117   3.833  13.100 -0.0344  0.0315 -0.4813
15239TIP3    H167208   3.185   3.876  13.150 -0.3963  0.5162 -0.3984
15239TIP3    H267209   3.052   3.901  13.084 -0.6613 -0.5028 -0.2641
15240TIP3   OH267210   2.343   0.673   1.639  0.3033  0.4012  0.2157
15240TIP3    H167211   2.394   0.692   1.561 -1.1810  0.8559 -0.6740
15240TIP3    H267212   2.302   0.756   1.663 -1.1089 -0.2279  0.0845
15241TIP3   OH267213   5.083   0.505  12.925 -0.7071 -0.0436  0.2807
15241TIP3    H167214   5.052   0.582  12.877 -0.7600 -0.4246 -0.3062
15241TIP3    H267215   5.004   0.464  12.960 -0.7447 -0.2267 -0.0149
15242TIP3   OH267216   5.463   3.230  10.623  0.5957 -0.2992  0.3268
15242TIP3    H167217   5.421   3.309  10.591 -0.2567 -1.1824 -0.8500
15242TIP3    H267218   5.552   3.256  10.645  0.0647  1.1613  0.8383
15243TIP3   OH267219   6.840   3.379  15.518  0.3059 -0.2601 -0.2955
15243TIP3    H167220   6.915   3.346  15.568 -0.5692 -1.8299  0.0470
15243TIP3    H267221   6.775   3.308  15.523 -0.4544  0.2448 -2.2354
15244TIP3   OH267222   3.955   5.342   4.279 -0.4730  0.0559  0.3879
15244TIP3    H167223   3.874   5.355   4.231  0.7953  0.8620 -1.6800
15244TIP3    H267224   3.967   5.247   4.283 -1.5695 -0.0746  0.8818
15245TIP3   OH267225   5.662   1.965   5.494  0.2152 -0.3971 -0.1001
15245TIP3    H167226   5.622   2.036   5.444  1.2938  1.7012  1.8067
15245TIP3    H267227   5.742   1.944   5.446  0.0929 -0.0198 -0.4772
15246TIP3   OH267228   6.119   2.274   5.469 -0.3718  0.5448  0.2860
15246TIP3    H167229   6.146   2.285   5.378 -0.8877  0.2367  0.0899
15246TIP3    H267230   6.071   2.353   5.490 -0.5384  0.4716  0.1834
15247TIP3   OH267231   0.750   5.644   3.538 -0.2707 -0.2756 -0.1554
15247TIP3    H167232   0.673   5.589   3.550  0.0443 -1.1930 -1.9582
15247TIP3    H267233   0.715   5.730   3.513 -0.7214 -0.6686 -0.9021
15248TIP3   OH267234   2.309   0.983   5.906  0.2616  0.2823  0.0384
15248TIP3    H167235   2.291   0.913   5.969  0.4553 -0.9670 -1.2332
15248TIP3    H267236   2.304   1.063   5.957 -1.9080 -0.4909  1.1713
15249TIP3   OH267237   1.950   4.192  11.750 -0.7992 -0.1671 -0.8225
15249TIP3    H167238   1.923   4.100  11.752 -0.7004 -0.1937  1.0355
15249TIP3    H267239   1.868   4.239  11.733 -0.8894 -0.5670 -1.5723
15250TIP3   OH267240   0.820   0.436   0.033  0.3577 -0.4745  0.0425
15250TIP3    H167241   0.875   0.374   0.081 -0.0283 -0.2613  0.7796
15250TIP3    H267242   0.848   0.428  -0.058  1.7587 -0.2062  0.4302
15251TIP3   OH267243   1.614   6.517  14.436 -0.1430  0.3717  1.1276
15251TIP3    H167244   1.704   6.545  14.449  0.1307 -0.1661  0.3890
15251TIP3    H267245   1.616   6.459  14.361 -1.0636  0.1230  1.2741
15252TIP3   OH267246   4.439   0.495  12.248 -0.0644 -0.2415 -0.5272
15252TIP3    H167247   4.503   0.475  12.180  0.8869 -1.1669  0.5884
15252TIP3    H267248   4.478   0.568  12.296  0.0265 -0.6130 -0.0256
15253TIP3   OH267249   6.277   6.237   1.339  0.6107 -0.1310 -0.0251
15253TIP3    H167250   6.230   6.315   1.311  2.9052  0.1481 -3.6711
15253TIP3    H267251   6.317   6.261   1.422  0.7039  2.3561 -0.7264
15254TIP3   OH267252   4.881   3.534   5.469  0.8322  0.1886 -0.1524
15254TIP3    H167253   4.971   3.565   5.463  1.4522 -1.1475  1.3812
15254TIP3    H267254   4.846   3.577   5.547  1.1274 -1.4335  0.9404
15255TIP3   OH267255   5.606   4.195  10.658  0.1288 -0.4603  0.2272
15255TIP3    H167256   5.667   4.136  10.614 -0.6250 -0.8572 -0.3199
15255TIP3    H267257   5.635   4.282  10.633  0.7738 -0.6198  0.3927
15256TIP3   OH267258   6.426   2.060  13.362  0.1416 -0.2057  0.2253
15256TIP3    H167259   6.483   2.070  13.286  1.4732 -2.5546  0.8324
15256TIP3    H267260   6.340   2.041  13.324  0.8511 -1.6994 -0.7376
15257TIP3   OH267261   5.249   6.362   5.960 -0.0586  0.5009  0.1033
15257TIP3    H167262   5.184   6.369   5.890  0.3087 -0.2186 -0.3241
15257TIP3    H267263   5.208   6.304   6.025  0.4860 -0.6911 -0.5814
15258TIP3   OH267264   4.921   5.693  12.360 -0.2992  0.3259  0.0026
15258TIP3    H167265   4.991   5.751  12.330 -1.8867  2.0658 -0.4419
15258TIP3    H267266   4.862   5.749  12.410 -0.4119 -1.4965  2.0479
15259TIP3   OH267267   6.790   2.627   2.923  0.3712 -0.5081  0.0578
15259TIP3    H167268   6.718   2.571   2.895  0.6204 -0.5400 -0.5400
15259TIP3    H267269   6.776   2.638   3.017 -0.7031 -0.0807 -0.1382
15260TIP3   OH267270   5.432   0.883   3.175  0.6374 -0.0218 -0.2839
15260TIP3    H167271   5.370   0.948   3.206  0.5197 -0.0454 -0.4715
15260TIP3    H267272   5.451   0.829   3.252  1.2376  0.6342  0.0359
15261TIP3   OH267273   0.052   6.402  16.778  0.1126 -0.3815 -0.4654
15261TIP3    H167274   0.033   6.321  16.826 -4.2253 -0.1040 -1.2275
15261TIP3    H267275   0.141   6.391  16.745  0.6530 -3.6351  1.6689
15262TIP3   OH267276   5.498   2.050  16.622  0.4613 -0.0651  0.2374
15262TIP3    H167277   5.433   2.007  16.677 -0.1781 -0.6190 -0.9255
15262TIP3    H267278   5.458   2.134  16.598  0.1924 -0.3700 -0.4086
15263TIP3   OH267279   6.671   5.754   3.935  0.2776 -0.4819 -0.2668
15263TIP3    H167280   6.632   5.829   3.979 -0.3675  0.0794 -1.7153
15263TIP3    H267281   6.765   5.764   3.946  0.2597  1.1331 -1.3220
15264TIP3   OH267282   0.474   4.199   4.623  0.4914 -0.1273 -0.3986
15264TIP3    H167283   0.468   4.275   4.567  0.1828 -0.3708 -0.6997
15264TIP3    H267284   0.541   4.222   4.688 -0.2701  0.7744  0.0992
15265TIP3   OH267285   4.220   2.051  11.076  0.8188  0.3281  0.2272
15265TIP3    H167286   4.312   2.055  11.103  1.1125  3.5460 -0.7840
15265TIP3    H267287   4.222   2.068  10.982 -0.7989  0.1145  0.1271
15266TIP3   OH267288   0.090   1.466  15.260  0.0972  0.6326 -0.1147
15266TIP3    H167289   0.017   1.438  15.315 -1.0369  0.2634 -1.7079
15266TIP3    H267290   0.096   1.561  15.274 -1.3159  0.8278 -0.6090
15267TIP3   OH267291   3.903   3.217  16.217 -0.1644 -0.1927  0.3449
15267TIP3    H167292   3.862   3.241  16.134  0.0977  1.1556  0.5852
15267TIP3    H267293   3.907   3.121  16.215  1.1850 -0.1552 -1.8577
15268TIP3   OH267294   4.818   1.856   3.260  0.3144  0.6266  0.2245
15268TIP3    H167295   4.839   1.800   3.185  1.1212 -0.5566  1.2901
15268TIP3    H267296   4.855   1.941   3.238  1.0547  0.1351 -0.4716
15269TIP3   OH267297   3.486   4.854  14.352 -0.0599 -0.1562  0.8350
15269TIP3    H167298   3.472   4.760  14.346 -0.7321 -0.1009  1.3192
15269TIP3    H267299   3.415   4.885  14.409 -1.2360  0.9685 -1.1416
15270TIP3   OH267300   1.080   1.378  10.812 -0.6248  0.0467 -0.2182
15270TIP3    H167301   1.170   1.366  10.841 -0.7624  1.7089  1.0080
15270TIP3    H267302   1.027   1.372  10.892 -1.5118 -0.0777 -0.7982
15271TIP3   OH267303   5.190   2.187  11.024 -0.3430 -0.8122 -0.4781
15271TIP3    H167304   5.117   2.247  11.009  0.4272  0.6632  1.3709
15271TIP3    H267305   5.206   2.148  10.938 -2.8732 -0.7288 -1.0679
15272TIP3   OH267306   1.360   3.185   1.393  0.1489  0.5071 -0.0014
15272TIP3    H167307   1.348   3.108   1.449  0.4680  1.7888  1.9091
15272TIP3    H267308   1.415   3.244   1.444 -1.5116  2.7549 -0.6683
15273TIP3   OH267309   1.614   2.260  11.329  0.3065  0.1683 -0.4646
15273TIP3    H167310   1.672   2.319  11.378 -0.9921  0.3792  0.8764
15273TIP3    H267311   1.636   2.172  11.361  0.8494  0.0994 -1.0020
15274TIP3   OH267312   6.415   0.807  15.094 -0.3951  0.1878 -0.0104
15274TIP3    H167313   6.494   0.787  15.145  1.4454 -0.5321 -2.8864
15274TIP3    H267314   6.428   0.760  15.011 -3.7566  0.2993 -0.7293
15275TIP3   OH267315   4.398   4.680  15.066 -0.4944  0.0309 -0.4384
15275TIP3    H167316   4.349   4.751  15.107 -0.2196  0.6243 -1.1102
15275TIP3    H267317   4.489   4.697  15.087 -0.1448  1.3914 -2.7532
15276TIP3   OH267318   2.010   2.906   0.275 -0.3293  0.0483  0.3621
15276TIP3    H167319   2.025   2.997   0.300 -1.0587  0.1555  0.4271
15276TIP3    H267320   1.924   2.885   0.311 -0.2249 -0.6251  0.2295
15277TIP3   OH267321   5.995   5.107  13.325 -0.0728  0.2427  0.1691
15277TIP3    H167322   6.025   5.170  13.390  0.9345  0.6119 -0.6268
15277TIP3    H267323   5.901   5.101  13.338 -0.3645  2.7008 -0.3975
15278TIP3   OH267324   6.513   1.516   2.305 -0.0109  0.7835 -0.0705
15278TIP3    H167325   6.470   1.602   2.301 -0.1416  0.6937 -0.6704
15278TIP3    H267326   6.448   1.458   2.344  0.0807  0.9552  0.3459
15279TIP3   OH267327   2.706   4.393   4.811  0.1965  0.1120  0.0920
15279TIP3    H167328   2.720   4.322   4.875  0.2666  0.0818  0.0440
15279TIP3    H267329   2.646   4.453   4.855  1.1020  0.6499  0.6331
15280TIP3   OH267330   0.034   5.849   2.100 -0.1155  0.6197  0.2750
15280TIP3    H167331  -0.014   5.916   2.051 -0.6172 -0.0627 -0.1967
15280TIP3    H267332   0.085   5.802   2.033  0.2415  0.5312  0.5990
15281TIP3   OH267333   5.773   2.336  16.450  0.1962 -0.4164  0.4712
15281TIP3    H167334   5.840   2.353  16.517 -0.3118  0.4418  0.7688
15281TIP3    H267335   5.765   2.418  16.402 -0.7957 -0.4396  0.5794
15282TIP3   OH267336   6.843   6.778  14.932  0.4817 -0.4349 -0.7853
15282TIP3    H167337   6.854   6.714  15.003 -2.4326  0.5045  0.6722
15282TIP3    H267338   6.886   6.857  14.964 -1.7404  0.3206  0.5513
15283TIP3   OH267339   0.635   6.312  16.139  0.0043  0.6905  0.5166
15283TIP3    H167340   0.634   6.395  16.092  1.3365  0.1611 -0.5238
15283TIP3    H267341   0.727   6.286  16.139 -0.3977 -0.8341  0.7295
15284TIP3   OH267342   4.642   5.553  16.997  0.8846  0.3161 -0.2306
15284TIP3    H167343   4.593   5.607  17.058 -0.7365  0.3009 -1.4563
15284TIP3    H267344   4.631   5.597  16.912  3.0415  0.3278 -0.5755
15285TIP3   OH267345   2.651   6.254   3.131  0.1439 -0.1840  0.0444
15285TIP3    H167346   2.618   6.231   3.044  0.4648 -2.6024  0.5058
15285TIP3    H267347   2.744   6.229   3.130  0.3916  0.6470  0.7825
15286TIP3   OH267348   3.097   4.230   2.161  0.3025 -0.0799  0.1801
15286TIP3    H167349   3.119   4.208   2.070  1.4797  2.1200 -0.1510
15286TIP3    H267350   3.003   4.249   2.159  0.1865 -0.6934 -0.4326
15287TIP3   OH267351   5.273   6.234  12.838 -0.4399 -0.1658 -0.2485
15287TIP3    H167352   5.338   6.171  12.807 -0.6611  0.5524 -2.3612
15287TIP3    H267353   5.304   6.318  12.804 -0.0073  0.9828  2.7208
15288TIP3   OH267354   3.075   6.723   1.586  0.2740  0.4306 -0.4362
15288TIP3    H167355   2.980   6.715   1.594  0.3494 -0.6869 -0.4286
15288TIP3    H267356   3.099   6.787   1.653 -0.3673 -0.0232  0.2507
15289TIP3   OH267357   1.081   2.726  13.477 -0.2723  0.0787  0.3717
15289TIP3    H167358   1.110   2.749  13.566  2.0489  1.3263 -0.6297
15289TIP3    H267359   1.161   2.705  13.430 -1.3183  0.5959 -1.7817
15290TIP3   OH267360   6.103   6.038   1.065  0.1081  0.0906 -0.4836
15290TIP3    H167361   6.072   6.074   0.982  0.0519  0.6976 -0.2041
15290TIP3    H267362   6.198   6.038   1.056  0.2415  2.5281  0.3951
15291TIP3   OH267363   5.277   4.825   3.363 -0.0572 -0.1142 -0.3901
15291TIP3    H167364   5.260   4.846   3.271 -0.6597  1.3105  0.0103
15291TIP3    H267365   5.195   4.785   3.394 -0.8568  1.8584  0.1772
15292TIP3   OH267366   4.760   0.977  13.288  0.2924  0.5214 -0.0289
15292TIP3    H167367   4.735   1.064  13.318  0.1095  1.0238 -1.5585
15292TIP3    H267368   4.784   0.989  13.196  1.3845 -0.8415  0.0423
15293TIP3   OH267369   2.764   4.129  15.392  0.3218  0.0960 -0.0182
15293TIP3    H167370   2.692   4.122  15.455 -1.7977  1.8610 -2.0397
15293TIP3    H267371   2.787   4.038  15.372 -1.7438 -0.5572  0.3259
15294TIP3   OH267372   4.609   6.685  16.295 -0.3220 -0.0394  0.2523
15294TIP3    H167373   4.632   6.631  16.371  1.5359 -2.5876 -1.9397
15294TIP3    H267374   4.556   6.628  16.240 -1.0312  1.4869 -0.7176
15295TIP3   OH267375   6.129   4.762  11.132  0.2356 -0.3529  0.0570
15295TIP3    H167376   6.151   4.855  11.130 -0.6012 -0.1120  1.1620
15295TIP3    H267377   6.208   4.719  11.164 -0.2097  0.2837  2.1261
15296TIP3   OH267378   1.010   4.584   2.772 -0.7273  0.1175 -0.2372
15296TIP3    H167379   0.937   4.643   2.751 -1.5845 -0.7864  0.0950
15296TIP3    H267380   0.971   4.496   2.768  0.0578 -0.3162  1.1030
15297TIP3   OH267381   0.291   2.086   1.005 -0.0362  0.4599 -0.0416
15297TIP3    H167382   0.208   2.054   1.040  0.3613  0.5514  1.0265
15297TIP3    H267383   0.277   2.180   0.992 -0.8325  0.1066 -2.0926
15298TIP3   OH267384   4.836   2.244  16.883  0.2890 -0.0684  0.2093
15298TIP3    H167385   4.921   2.226  16.922 -0.2430  0.0508  1.4823
15298TIP3    H267386   4.773   2.214  16.949 -0.6940 -1.6512 -1.3580
15299TIP3   OH267387   6.344   5.701  11.998  0.6469 -0.5422  0.9242
15299TIP3    H167388   6.431   5.683  12.035 -0.1970 -0.2463  3.1878
15299TIP3    H267389   6.323   5.623  11.947  1.6487 -1.2311  1.5358
15300TIP3   OH267390   3.592   2.871   0.585 -0.6374 -0.1894 -0.0380
15300TIP3    H167391   3.587   2.807   0.515  0.4123  0.0684 -0.3713
15300TIP3    H267392   3.619   2.952   0.541  1.0878 -0.2810  0.7885
15301TIP3   OH267393   1.500   6.143   4.371 -1.2553 -0.6158  0.5744
15301TIP3    H167394   1.552   6.066   4.395 -0.6683 -0.2081  0.6168
15301TIP3    H267395   1.409   6.112   4.376 -1.0112 -1.6147 -0.4435
15302TIP3   OH267396   0.986   6.785  12.614 -0.0135 -0.1806  0.6607
15302TIP3    H167397   1.011   6.746  12.697  0.5671 -1.1147  0.0748
15302TIP3    H267398   1.066   6.783  12.561 -0.3559  0.4493  0.1023
15303TIP3   OH267399   2.722   0.653  14.378 -0.2888 -0.5193  0.4426
15303TIP3    H167400   2.670   0.605  14.442 -0.7628 -0.7392 -0.0971
15303TIP3    H267401   2.663   0.666  14.303  0.5114 -1.0103 -0.2915
15304TIP3   OH267402   6.024   6.069  14.345  0.7279 -0.1882 -0.7320
15304TIP3    H167403   6.099   6.012  14.360 -0.2281 -1.2663  0.1684
15304TIP3    H267404   5.952   6.025  14.390 -0.6380  0.3750 -2.2853
15305TIP3   OH267405   6.342   6.229  13.739  0.2986  0.5244  0.0368
15305TIP3    H167406   6.275   6.167  13.768  1.1882 -0.1149  0.7840
15305TIP3    H267407   6.390   6.251  13.818  0.1275  2.0494 -0.2499
15306TIP3   OH267408   0.731   2.313  13.478 -0.5698  0.1090 -0.4561
15306TIP3    H167409   0.657   2.320  13.419 -0.6206  0.0905 -0.3955
15306TIP3    H267410   0.794   2.378  13.447 -1.3938  1.4882  0.6410
15307TIP3   OH267411   4.655   6.589   5.887  0.1931 -0.5109  0.0434
15307TIP3    H167412   4.634   6.557   5.800 -0.5614  1.5147 -0.5584
15307TIP3    H267413   4.746   6.619   5.881 -0.4964  1.6096 -0.7193
15308TIP3   OH267414   0.411   5.820  14.773  0.3702  0.3643 -0.6881
15308TIP3    H167415   0.429   5.826  14.867 -1.4961  0.4269 -0.3006
15308TIP3    H267416   0.334   5.875  14.760  0.5624  0.3023 -2.2583
15309TIP3   OH267417   4.071   0.604  16.738  0.1741  0.1522  0.2023
15309TIP3    H167418   4.035   0.680  16.783  1.3487  1.2237 -0.6044
15309TIP3    H267419   4.128   0.562  16.803  1.1383  1.1563  0.0282
15310TIP3   OH267420   4.891   3.275  14.892 -0.1061  0.2361  0.1805
15310TIP3    H167421   4.829   3.211  14.927 -0.1093  0.4758  0.6215
15310TIP3    H267422   4.970   3.225  14.872  0.5413  0.3655  2.2156
15311TIP3   OH267423   0.499   4.113   5.018 -0.1661 -0.0158  0.8105
15311TIP3    H167424   0.534   4.025   5.036 -0.2760  0.1653  2.0322
15311TIP3    H267425   0.548   4.144   4.942  1.3380 -0.3345  1.6002
15312TIP3   OH267426   4.391   2.786   3.636 -0.0203  0.4086  0.2158
15312TIP3    H167427   4.430   2.869   3.610 -1.8146  0.6148 -2.1283
15312TIP3    H267428   4.463   2.723   3.632  0.4874  1.0369 -2.5158
15313TIP3   OH267429   4.820   2.571   1.341 -0.2539 -0.0823  0.3473
15313TIP3    H167430   4.778   2.612   1.266 -0.8602 -1.2247  0.0453
15313TIP3    H267431   4.782   2.616   1.417  1.2842  1.9547 -0.0033
15314TIP3   OH267432   3.319   3.590   0.766 -0.0070  0.3712 -0.5066
15314TIP3    H167433   3.370   3.660   0.806  0.2732 -0.1934  0.1497
15314TIP3    H267434   3.376   3.513   0.771 -0.4350  0.0200 -0.9197
15315TIP3   OH267435   1.674   6.462  13.188  0.0569 -0.0964 -0.8700
15315TIP3    H167436   1.718   6.414  13.118  1.7392  1.5544 -1.0575
15315TIP3    H267437   1.702   6.419  13.268 -0.3994 -0.8802 -1.1275
15316TIP3   OH267438   1.112   5.575   5.210 -0.1151  0.4704  0.2474
15316TIP3    H167439   1.186   5.603   5.156 -0.7094  2.2080  0.2651
15316TIP3    H267440   1.045   5.550   5.147  0.0346  0.1629  0.2104
15317TIP3   OH267441   1.549   5.482  14.996 -0.1913  0.0679  0.2564
15317TIP3    H167442   1.618   5.416  14.989 -0.8233 -0.5063 -0.8059
15317TIP3    H267443   1.531   5.488  15.089  1.8199  0.7952  0.6515
15318TIP3   OH267444   2.005   5.843  12.193  0.1886  0.3619  0.2549
15318TIP3    H167445   2.047   5.770  12.238 -1.0603  0.0241  0.8951
15318TIP3    H267446   2.041   5.840  12.104 -0.4828 -1.5624  0.0044
15319TIP3   OH267447   1.385   1.716   6.089  0.1858 -0.2066 -0.5903
15319TIP3    H167448   1.338   1.636   6.111  1.3782 -0.9480 -0.6684
15319TIP3    H267449   1.332   1.757   6.020 -1.0734 -0.2870  0.3031
15320TIP3   OH267450   2.330   0.810  14.541 -0.3622 -0.5243  0.4560
15320TIP3    H167451   2.235   0.817  14.552 -0.3915  1.4337 -0.6309
15320TIP3    H267452   2.342   0.735  14.483 -1.3223 -0.1017 -0.2990
15321TIP3   OH267453   4.745   6.298  13.438  0.1657 -0.0438 -0.1079
15321TIP3    H167454   4.665   6.246  13.439  0.3942 -0.3990  0.0975
15321TIP3    H267455   4.813   6.238  13.470  0.3196  0.5705  0.7480
15322TIP3   OH267456   6.090   6.871  11.489  0.0836 -0.4866 -0.4399
15322TIP3    H167457   5.996   6.888  11.485  0.0069 -0.2158  1.5180
15322TIP3    H267458   6.111   6.834  11.404 -1.2402  2.0570 -2.0016
15323TIP3   OH267459   3.980   2.210   3.791 -0.0386 -0.5311  0.4196
15323TIP3    H167460   4.001   2.247   3.705  1.9659 -0.5188  0.8449
15323TIP3    H267461   3.916   2.270   3.828 -1.3849 -0.8480 -1.2645
15324TIP3   OH267462   6.572   4.456  14.739  0.6926  0.0344 -0.0777
15324TIP3    H167463   6.565   4.552  14.733  3.1578  0.2162 -1.5886
15324TIP3    H267464   6.587   4.439  14.832 -2.4615  0.7762  0.6824
15325TIP3   OH267465   1.500   1.001  14.382 -0.2577 -0.0019  0.1945
15325TIP3    H167466   1.504   0.940  14.308  0.0004  0.5714 -0.2652
15325TIP3    H267467   1.409   0.998  14.410 -0.1260 -1.0691  0.5808
15326TIP3   OH267468   2.881   6.078  12.459  0.3227  0.2801  0.6866
15326TIP3    H167469   2.949   6.085  12.526  1.4352 -0.7705 -0.3150
15326TIP3    H267470   2.926   6.049  12.380 -0.9778  1.3718 -0.5282
15327TIP3   OH267471   3.218   0.607   5.030 -0.0549 -0.5717 -1.0071
15327TIP3    H167472   3.200   0.700   5.018 -0.6089 -0.6251 -0.6271
15327TIP3    H267473   3.148   0.562   4.983 -0.6532 -0.7854  0.0534
15328TIP3   OH267474   1.476   3.312   0.174 -0.4901 -0.1421  0.0206
15328TIP3    H167475   1.434   3.398   0.176 -0.8900 -0.3438  0.5679
15328TIP3    H267476   1.554   3.325   0.120  0.6846  1.1378  1.8720
15329TIP3   OH267477   2.996   6.296   4.133 -0.5117 -0.0743  0.5229
15329TIP3    H167478   3.033   6.383   4.146  0.7469 -0.1353 -2.0150
15329TIP3    H267479   2.927   6.309   4.068 -1.5583 -0.7290  1.4787
15330TIP3   OH267480   5.854   4.008   1.741 -0.5670 -0.3318 -0.0324
15330TIP3    H167481   5.800   3.999   1.663  0.4298 -2.0241 -0.5765
15330TIP3    H267482   5.941   3.977   1.715  0.1109  0.2174  1.4253
15331TIP3   OH267483   5.492   2.644  11.796 -0.2741  0.2858  0.1634
15331TIP3    H167484   5.409   2.669  11.839 -0.3786 -1.3432  0.9778
15331TIP3    H267485   5.545   2.724  11.799 -1.7382  1.3034 -0.2044
15332TIP3   OH267486   2.378   2.356   3.665 -0.3412 -0.3122  0.2372
15332TIP3    H167487   2.447   2.390   3.608 -2.2680 -0.5997 -2.4510
15332TIP3    H267488   2.349   2.431   3.716  2.2853 -0.3130  1.9425
15333TIP3   OH267489   6.799   4.914   2.654 -0.1057  0.2479  0.4636
15333TIP3    H167490   6.741   4.838   2.649  0.1315 -0.0413  1.7846
15333TIP3    H267491   6.741   4.987   2.678  0.1220 -0.1514  2.3625
15334TIP3   OH267492   2.877   5.209  17.025  0.6398  0.5035  0.3582
15334TIP3    H167493   2.940   5.181  16.959 -0.1215  0.4287 -0.3482
15334TIP3    H267494   2.803   5.244  16.975  1.0419  2.7058  1.1694
15335TIP3   OH267495   6.302   5.974   2.255  0.2286 -0.5396 -0.0330
15335TIP3    H167496   6.370   5.984   2.322 -1.5155 -0.4716  1.8114
15335TIP3    H267497   6.320   6.044   2.193  0.6320  0.8045  1.5201
15336TIP3   OH267498   2.721   2.495  13.126 -0.1248  0.1688 -0.7573
15336TIP3    H167499   2.632   2.527  13.141  0.1659  0.7212 -0.1605
15336TIP3    H267500   2.713   2.435  13.052 -1.1543 -0.5278 -0.1039
15337TIP3   OH267501   3.573   3.749   1.850  0.2619  0.0013  0.0323
15337TIP3    H167502   3.651   3.754   1.906  0.1068 -0.8493  0.3458
15337TIP3    H267503   3.559   3.655   1.838 -0.8431  0.1419  0.1609
15338TIP3   OH267504   4.946   2.048  11.218  0.4666  0.3757 -0.0279
15338TIP3    H167505   4.903   2.024  11.136 -0.9575 -0.7218  0.9926
15338TIP3    H267506   5.028   1.998  11.217  0.3711  0.2220 -0.6938
15339TIP3   OH267507   4.279   1.900  13.801 -0.0275  0.1705 -0.0653
15339TIP3    H167508   4.221   1.840  13.848 -0.7791  0.6465 -0.3759
15339TIP3    H267509   4.329   1.944  13.869 -0.9714  0.7140  0.2949
15340TIP3   OH267510   0.514   2.431  13.987 -0.4703 -0.1560 -0.3672
15340TIP3    H167511   0.436   2.483  14.007 -1.0318 -0.2665 -2.0701
15340TIP3    H267512   0.574   2.493  13.946 -0.4686 -0.4864 -0.8725
15341TIP3   OH267513   0.391   3.837  16.969 -0.1569 -0.3842 -0.1330
15341TIP3    H167514   0.337   3.893  17.024  0.3127 -1.2929  1.3093
15341TIP3    H267515   0.330   3.774  16.931 -0.5055  0.3377 -0.7936
15342TIP3   OH267516   1.512   1.211   1.457 -0.2605 -0.0637  0.4497
15342TIP3    H167517   1.450   1.181   1.523 -0.5219  0.7559  0.5946
15342TIP3    H267518   1.530   1.134   1.403 -2.5223 -0.0041 -0.4875
15343TIP3   OH267519   6.715   0.810  12.868  0.1519 -0.1258  0.2401
15343TIP3    H167520   6.636   0.816  12.921  0.1034  1.4827  0.0245
15343TIP3    H267521   6.773   0.752  12.919  0.0160  1.1594  1.9568
15344TIP3   OH267522   5.009   5.470  15.357 -1.0654 -0.2901 -0.2153
15344TIP3    H167523   5.005   5.379  15.388 -0.5971 -0.2983 -0.1611
15344TIP3    H267524   5.016   5.463  15.262  1.7885 -0.4450 -0.0922
15345TIP3   OH267525   5.975   0.921   4.479 -0.2869 -0.1780  0.2792
15345TIP3    H167526   5.912   0.868   4.430 -0.1561 -0.4276  0.3796
15345TIP3    H267527   6.060   0.883   4.459 -0.0915  0.6198 -0.4410
15346TIP3   OH267528   0.257   6.741   5.227 -0.0833  0.3226 -0.1732
15346TIP3    H167529   0.210   6.808   5.275  0.0235  0.2547  0.0253
15346TIP3    H267530   0.192   6.671   5.214 -0.3967  0.7529 -0.9839
15347TIP3   OH267531   4.690   2.037  13.628 -0.0108 -0.3358 -0.4785
15347TIP3    H167532   4.785   2.041  13.632 -0.0023 -0.1672 -0.7739
15347TIP3    H267533   4.664   2.122  13.593 -0.3436  0.0692  0.7284
15348TIP3   OH267534   5.686   1.086  16.158 -0.5395 -0.1559  0.3746
15348TIP3    H167535   5.775   1.092  16.194  0.3378  0.5958 -1.7883
15348TIP3    H267536   5.678   1.161  16.099 -2.1340 -0.9736 -0.5213
15349TIP3   OH267537   3.940   1.019   1.834 -0.0672  0.6687  0.2976
15349TIP3    H167538   3.882   0.967   1.890  0.3966 -0.6969 -0.4546
15349TIP3    H267539   3.889   1.035   1.755  0.8492 -1.3681 -0.7756
15350TIP3   OH267540   6.150   5.799  14.457 -0.1158 -0.3491 -0.3483
15350TIP3    H167541   6.239   5.828  14.474 -0.5039  1.1212 -0.7179
15350TIP3    H267542   6.134   5.732  14.523  0.7506  0.4170  0.6756
15351TIP3   OH267543   2.940   3.620   4.951  0.0170  0.1602  0.5930
15351TIP3    H167544   2.971   3.644   5.039  1.3720 -0.9085  0.4483
15351TIP3    H267545   3.003   3.661   4.892 -0.2612 -0.0230  0.1676
15352TIP3   OH267546   1.336   1.041  12.744  0.1095  0.2048 -0.8485
15352TIP3    H167547   1.301   1.112  12.797 -0.8411  1.0575 -2.5425
15352TIP3    H267548   1.424   1.026  12.779 -0.8509 -0.0493  1.6499
15353TIP3   OH267549   3.803   0.217   1.088  0.4070  0.7785  0.2536
15353TIP3    H167550   3.848   0.267   1.157  1.9235 -1.8213  1.2802
15353TIP3    H267551   3.865   0.148   1.064 -1.0491  0.1667 -2.0701
15354TIP3   OH267552   2.581   0.061  15.059 -0.5094 -0.0470 -0.1108
15354TIP3    H167553   2.637   0.006  15.114 -2.4097 -1.8479  0.1535
15354TIP3    H267554   2.625   0.146  15.057  1.4199 -0.9369  1.2903
15355TIP3   OH267555   0.523   4.231   2.314  0.4734 -0.4233 -0.7883
15355TIP3    H167556   0.556   4.321   2.306 -2.0754  0.6961  0.1022
15355TIP3    H267557   0.566   4.197   2.392 -0.7937  1.2245  0.7328
15356TIP3   OH267558   1.191   5.437   2.084 -0.0899  0.6576 -0.1115
15356TIP3    H167559   1.284   5.416   2.079 -0.1208  0.4018  0.2901
15356TIP3    H267560   1.168   5.468   1.997  0.2955  0.4041 -0.3031
15357TIP3   OH267561   6.419   4.678   4.387 -0.0934  0.2196  0.5283
15357TIP3    H167562   6.348   4.711   4.333  1.6045  2.3413 -0.5603
15357TIP3    H267563   6.412   4.583   4.380 -3.4445  0.2931  1.4297
15358TIP3   OH267564   2.848   0.930   3.868  0.1906  0.0325 -0.2770
15358TIP3    H167565   2.766   0.976   3.852  0.4636  0.2098 -1.2035
15358TIP3    H267566   2.841   0.849   3.817  0.0425 -0.5956  0.7126
15359TIP3   OH267567   1.696   3.567   4.887 -0.1038 -0.1803  0.0882
15359TIP3    H167568   1.754   3.638   4.858  0.5457 -0.3464  0.9566
15359TIP3    H267569   1.649   3.541   4.807  1.2310 -0.2350 -0.7153
15360TIP3   OH267570   3.893   3.912   4.130 -0.4745  0.0483  0.1457
15360TIP3    H167571   3.979   3.874   4.145 -1.8041 -2.7783  1.3573
15360TIP3    H267572   3.893   3.938   4.038  2.0012  1.2569  0.4109
15361TIP3   OH267573   0.508   6.045  16.910  0.0673  0.3426  0.2121
15361TIP3    H167574   0.434   6.106  16.914  0.3693  0.6876  0.5929
15361TIP3    H267575   0.569   6.086  16.849  0.2722  0.4238  0.4706
15362TIP3   OH267576   4.187   5.162   5.333 -0.1382 -0.2293 -0.7810
15362TIP3    H167577   4.179   5.241   5.279  1.1861  1.9525  1.9836
15362TIP3    H267578   4.100   5.151   5.371 -0.2197  0.1634 -0.8419
15363TIP3   OH267579   5.386   6.602  10.458 -0.6720 -0.1977 -0.2944
15363TIP3    H167580   5.384   6.506  10.465 -0.7593 -0.2460 -0.9767
15363TIP3    H267581   5.475   6.623  10.430 -1.0525 -0.1870 -1.5642
15364TIP3   OH267582   0.256   2.143   0.316  0.1270  0.2327 -0.1222
15364TIP3    H167583   0.241   2.237   0.326 -0.2793  0.2591 -0.9128
15364TIP3    H267584   0.213   2.121   0.234  0.4056 -0.6078 -0.0461
15365TIP3   OH267585   6.860   2.428   5.183 -0.2458 -1.0032  0.4219
15365TIP3    H167586   6.939   2.458   5.228 -0.8454  0.2303  0.7031
15365TIP3    H267587   6.813   2.376   5.249 -0.1291 -0.9249  0.5681
15366TIP3   OH267588   4.304   4.025  12.350 -0.5885  0.3576 -0.0908
15366TIP3    H167589   4.384   3.989  12.388 -0.0760 -1.2971 -2.5521
15366TIP3    H267590   4.331   4.107  12.309 -0.3594  0.2963 -0.0614
15367TIP3   OH267591   0.374   3.411  15.607  0.1115  0.1347 -0.1598
15367TIP3    H167592   0.330   3.495  15.615  0.7435  0.6905 -1.9863
15367TIP3    H267593   0.426   3.418  15.527  3.7184 -0.3699  1.8989
15368TIP3   OH267594   1.938   2.527   1.125  0.4629  0.0914  0.5184
15368TIP3    H167595   1.871   2.501   1.188 -0.7006 -0.1423 -0.7493
15368TIP3    H267596   2.014   2.473   1.146 -0.4103 -1.0851  0.7610
15369TIP3   OH267597   6.797   3.717   1.786 -0.1587  0.5922 -0.3419
15369TIP3    H167598   6.845   3.722   1.703  0.5496 -2.2890 -0.2301
15369TIP3    H267599   6.705   3.712   1.760  0.0443 -0.0656 -0.9865
15370TIP3   OH267600   2.983   2.324   5.343 -0.2329  0.1758  0.5270
15370TIP3    H167601   2.902   2.372   5.355  0.5775  0.9842  3.9005
15370TIP3    H267602   3.052   2.388   5.360  1.0140 -1.0741  0.4095
15371TIP3   OH267603   5.677   4.439   6.150 -0.3687 -0.1121  0.1932
15371TIP3    H167604   5.719   4.497   6.214 -1.5906 -1.2084  2.0875
15371TIP3    H267605   5.719   4.354   6.164 -2.0615 -0.8455  1.0254
15372TIP3   OH267606   5.897   6.248  14.158  0.5895  0.0524  0.3112
15372TIP3    H167607   5.935   6.177  14.211 -1.7247 -1.6691 -0.1755
15372TIP3    H267608   5.822   6.207  14.115  0.9266  2.0512 -2.3709
15373TIP3   OH267609   1.400   6.113  13.278  0.1608 -0.6023 -0.4815
15373TIP3    H167610   1.472   6.095  13.217  1.3446 -1.9458  1.1970
15373TIP3    H267611   1.443   6.131  13.361 -1.4045  1.3107 -0.0124
15374TIP3   OH267612   1.067   3.196   2.262 -0.0227 -0.6169 -0.0376
15374TIP3    H167613   1.110   3.134   2.203 -0.1523 -1.1097  0.3766
15374TIP3    H267614   1.055   3.275   2.210  3.2801  0.3383  0.3845
15375TIP3   OH267615   4.806   2.718  12.833 -0.3457 -0.2160  0.5419
15375TIP3    H167616   4.875   2.779  12.859  2.0978 -2.5295 -0.0259
15375TIP3    H267617   4.789   2.738  12.741  0.8624 -0.6671  0.1953
15376TIP3   OH267618   5.691   2.419   5.678 -0.6753 -0.6318 -0.4182
15376TIP3    H167619   5.756   2.358   5.644  2.9129  0.6089  3.2783
15376TIP3    H267620   5.695   2.494   5.619  1.0321 -0.7613 -0.5104
15377TIP3   OH267621   5.587   0.832  16.190 -0.3548  0.3625  0.3667
15377TIP3    H167622   5.624   0.918  16.170 -1.4055  0.6610 -0.4189
15377TIP3    H267623   5.662   0.773  16.190  0.0577  0.7657 -2.2182
15378TIP3   OH267624   0.352   5.273  13.973  0.2368 -0.1408  0.6400
15378TIP3    H167625   0.387   5.227  13.897  1.0905 -1.4924  1.8194
15378TIP3    H267626   0.259   5.286  13.952  0.5263 -0.1825 -0.7583
15379TIP3   OH267627   2.947   1.685   5.134 -0.3374 -0.0679  0.1687
15379TIP3    H167628   2.903   1.611   5.093  1.0818 -0.5064 -0.6434
15379TIP3    H267629   3.023   1.701   5.078  0.4354  0.7675  1.4149
15380TIP3   OH267630   2.805   1.261  15.769  1.0531  0.2729  0.1524
15380TIP3    H167631   2.754   1.341  15.777  1.2770  0.6948 -2.0100
15380TIP3    H267632   2.797   1.218  15.854 -2.3579  0.6482  0.1542
15381TIP3   OH267633   0.904   2.500  10.843 -0.0800 -0.1276 -0.3756
15381TIP3    H167634   0.919   2.559  10.769 -0.5570 -0.8855 -1.1019
15381TIP3    H267635   0.813   2.514  10.866 -0.3812 -1.0006 -0.9611
15382TIP3   OH267636   6.675   6.874  13.415  0.1192 -0.3176 -0.7574
15382TIP3    H167637   6.726   6.793  13.413 -2.4270 -2.0979  0.7362
15382TIP3    H267638   6.710   6.922  13.490  1.9317  0.2797 -1.9026
15383TIP3   OH267639   3.278   3.742   3.325  0.3048  0.2490 -0.3844
15383TIP3    H167640   3.300   3.666   3.379  0.1487  1.8701  2.1635
15383TIP3    H267641   3.191   3.723   3.291  0.0597 -0.5310  0.6312
15384TIP3   OH267642   1.496   3.164  13.337  0.6628 -0.1607 -0.0591
15384TIP3    H167643   1.565   3.230  13.340  1.2428 -0.7723  0.2880
15384TIP3    H267644   1.477   3.143  13.428  1.4168 -1.4117 -0.1607
15385TIP3   OH267645   0.819   6.768   5.392 -0.1641  0.0375  0.1425
15385TIP3    H167646   0.758   6.798   5.324 -0.7297 -0.7372  0.2985
15385TIP3    H267647   0.794   6.817   5.470  0.4069  0.8382 -0.1637
15386TIP3   OH267648   0.019   5.251  16.319 -0.2156 -0.1946  0.1418
15386TIP3    H167649   0.054   5.307  16.250 -0.2870 -1.2658 -0.7933
15386TIP3    H267650   0.094   5.197  16.347 -0.6302 -1.1237 -0.4899
15387TIP3   OH267651   1.465   2.123   4.181  0.2104  0.1698  0.9898
15387TIP3    H167652   1.492   2.159   4.096  0.9272 -0.9694  0.7014
15387TIP3    H267653   1.383   2.077   4.163 -0.2253  0.8667  1.1635
15388TIP3   OH267654   5.417   5.203  11.777 -0.6218 -0.0947 -0.4199
15388TIP3    H167655   5.407   5.116  11.739  0.5223 -0.0659 -0.8354
15388TIP3    H267656   5.484   5.245  11.724 -1.0544  1.0004 -0.1361
15389TIP3   OH267657   4.553   0.522  10.627  0.1421 -0.8296  0.0586
15389TIP3    H167658   4.597   0.505  10.543  0.5494 -2.7869  0.6340
15389TIP3    H267659   4.614   0.579  10.674  1.3208 -2.1415  0.1761
15390TIP3   OH267660   6.165   3.762  12.190  0.1535 -0.0732 -0.6290
15390TIP3    H167661   6.252   3.775  12.152 -0.4225 -2.1322 -2.9605
15390TIP3    H267662   6.106   3.810  12.131 -0.3849  0.9761  0.7036
15391TIP3   OH267663   0.511   4.972  13.362  0.0734 -0.0700 -0.2505
15391TIP3    H167664   0.587   5.023  13.393 -0.0271  0.3250 -0.6382
15391TIP3    H267665   0.547   4.917  13.292  0.3019 -0.9662  0.5505
15392TIP3   OH267666   5.747   4.528   2.894 -0.0873  0.0349 -0.4222
15392TIP3    H167667   5.800   4.540   2.973  0.4551  0.6039 -0.8573
15392TIP3    H267668   5.678   4.594   2.900  0.2695  0.4352 -0.6749
15393TIP3   OH267669   3.131   0.214   1.553  0.6856  0.1050  0.1997
15393TIP3    H167670   3.138   0.154   1.627 -1.1401 -0.7487 -0.2547
15393TIP3    H267671   3.184   0.173   1.484  1.1905  0.1437  0.5587
15394TIP3   OH267672   3.950   2.817   4.768 -0.1321  0.5296 -0.3437
15394TIP3    H167673   3.919   2.906   4.752 -0.3906  0.0315 -3.0795
15394TIP3    H267674   4.020   2.804   4.703  2.2499 -0.1788  2.1756
15395TIP3   OH267675   3.961   1.270   3.211 -0.7878 -0.1925  0.0311
15395TIP3    H167676   3.956   1.180   3.244 -0.3703 -0.3316 -0.2806
15395TIP3    H267677   4.045   1.275   3.166 -0.8448  0.3325 -0.0284
15396TIP3   OH267678   4.076   2.550  15.373 -0.2444 -0.4536 -0.3651
15396TIP3    H167679   4.161   2.588  15.351 -0.7664 -0.2516 -2.2250
15396TIP3    H267680   4.012   2.612  15.339 -1.1601 -0.7277  0.7763
15397TIP3   OH267681   2.991   2.080  14.699  0.0140 -0.6439 -0.3339
15397TIP3    H167682   2.953   2.109  14.782 -1.8878  2.6054 -2.1050
15397TIP3    H267683   2.943   2.000  14.678 -2.4074  0.6367 -0.0855
15398TIP3   OH267684   1.750   0.654  12.778 -0.0869  0.3240  0.0040
15398TIP3    H167685   1.700   0.573  12.790 -0.2652  0.5627  0.9282
15398TIP3    H267686   1.819   0.649  12.844 -1.5582  2.0503  1.8031
15399TIP3   OH267687   3.645   4.666  15.849  0.4630 -0.4067 -0.3647
15399TIP3    H167688   3.654   4.632  15.938  2.1906 -0.2770 -0.4437
15399TIP3    H267689   3.559   4.708  15.847  0.3428 -0.5434  1.1952
15400TIP3   OH267690   1.567   1.127   5.483 -0.7365 -0.3557 -0.3566
15400TIP3    H167691   1.504   1.197   5.502  0.1137  0.9803 -2.1749
15400TIP3    H267692   1.552   1.106   5.391  1.5762  0.1677 -0.9106
15401TIP3   OH267693   6.300   2.435   5.672  0.5363 -0.7047 -0.0353
15401TIP3    H167694   6.286   2.376   5.598 -1.4261  0.0487 -0.3173
15401TIP3    H267695   6.316   2.377   5.747  1.0176 -1.5076 -0.7390
15402TIP3   OH267696   1.111   6.778   3.923  0.1164  0.3776  0.6977
15402TIP3    H167697   1.119   6.799   3.830  2.6441  0.5505  0.8638
15402TIP3    H267698   1.071   6.692   3.925  1.4386 -0.3195 -0.6723
15403TIP3   OH267699   2.049   0.859  13.509 -0.0153 -0.2948  0.1575
15403TIP3    H167700   1.981   0.920  13.480  1.7543  1.2453 -0.9965
15403TIP3    H267701   2.110   0.914  13.560  1.5595 -1.0615 -0.7998
15404TIP3   OH267702   2.178   1.998  15.002 -0.2119  0.2019 -0.2399
15404TIP3    H167703   2.128   2.070  15.041 -0.5309 -0.9129  1.5139
15404TIP3    H267704   2.233   1.966  15.074 -1.8270 -2.8605 -0.2361
15405TIP3   OH267705   6.019   2.869  10.920 -0.1991 -0.1488  0.2777
15405TIP3    H167706   5.991   2.827  11.001  0.8574  0.4048  0.9486
15405TIP3    H267707   5.998   2.962  10.932  2.7360  0.4941  1.2559
15406TIP3   OH267708   0.329   4.167   2.051 -0.1885 -0.1830  0.3590
15406TIP3    H167709   0.326   4.165   2.147 -1.6916 -1.1438  0.3279
15406TIP3    H267710   0.248   4.211   2.026 -0.5289 -1.2460 -0.4771
15407TIP3   OH267711   0.558   0.526  15.625 -0.2094 -0.0450  0.4130
15407TIP3    H167712   0.568   0.450  15.682 -0.0706 -0.4456 -0.1458
15407TIP3    H267713   0.646   0.545  15.594 -0.4238 -0.4620 -0.4840
15408TIP3   OH267714   3.598   1.215  16.441  0.2785  0.8396  0.7617
15408TIP3    H167715   3.616   1.121  16.437  0.0747  0.8296 -0.8670
15408TIP3    H267716   3.502   1.221  16.438  0.2977  1.0882 -1.0837
15409TIP3   OH267717   4.542   4.345  14.931  1.0057 -0.1300  0.1540
15409TIP3    H167718   4.465   4.401  14.943  1.5110  0.2461  2.0613
15409TIP3    H267719   4.523   4.267  14.983  1.6919 -0.2460  0.2479
15410TIP3   OH267720   0.064   2.505  14.664 -0.3247  0.1738  0.2624
15410TIP3    H167721   0.107   2.575  14.613  1.1489  0.5528  1.9191
15410TIP3    H267722  -0.028   2.509  14.636  0.6143 -0.8110 -3.6161
15411TIP3   OH267723   2.038   0.888  15.164 -0.0757 -0.6503 -0.2601
15411TIP3    H167724   2.065   0.806  15.205  0.3876 -0.4485 -0.1643
15411TIP3    H267725   2.061   0.955  15.228  0.6575 -0.3348 -0.8476
15412TIP3   OH267726   1.749   2.695  14.707  0.0100 -0.9787 -0.2761
15412TIP3    H167727   1.741   2.788  14.686  0.6918 -0.7293  0.5183
15412TIP3    H267728   1.817   2.663  14.649 -1.0286 -1.2606 -1.3686
15413TIP3   OH267729   4.367   3.739  12.719  0.2521 -0.1535 -0.2148
15413TIP3    H167730   4.404   3.659  12.682 -2.2017 -1.4628 -0.0360
15413TIP3    H267731   4.441   3.782  12.761  1.5185 -2.7303  0.4022
15414TIP3   OH267732   2.028   0.198   2.502  0.3363  0.0390  0.0259
15414TIP3    H167733   2.107   0.151   2.528  0.2102 -0.7302 -0.9212
15414TIP3    H267734   2.059   0.284   2.474  1.0902 -0.8571 -2.0436
15415TIP3   OH267735   3.663   3.082  15.549  0.0598 -0.1896 -0.2224
15415TIP3    H167736   3.726   3.012  15.536 -0.6303 -0.8775  0.0045
15415TIP3    H267737   3.591   3.041  15.597 -2.0176 -0.2619 -3.1671
15416TIP3   OH267738   3.859   6.356  13.547  0.3610 -0.4314 -0.2025
15416TIP3    H167739   3.864   6.452  13.545 -0.6476 -0.3715 -0.9031
15416TIP3    H267740   3.798   6.334  13.477 -0.5185 -1.5041  0.8511
15417TIP3   OH267741   0.982   2.302   2.428 -0.7919  0.2138  0.0359
15417TIP3    H167742   1.020   2.359   2.361  0.7470 -0.7925  0.0156
15417TIP3    H267743   0.891   2.331   2.435 -0.1402  2.5026 -0.1393
15418TIP3   OH267744   1.622   6.242  11.339 -0.4178  0.4537  0.2460
15418TIP3    H167745   1.686   6.303  11.303  0.2950 -1.0653 -1.1635
15418TIP3    H267746   1.545   6.253  11.283 -1.1412  1.6467  1.4032
15419TIP3   OH267747   5.433   1.638  13.962  0.6342  0.5724 -0.2946
15419TIP3    H167748   5.412   1.641  14.055  1.4319  0.3614 -0.0960
15419TIP3    H267749   5.370   1.696  13.920  0.6561  1.1390  0.4520
15420TIP3   OH267750   4.733   4.418  11.192 -0.2487  0.4883  0.5558
15420TIP3    H167751   4.652   4.468  11.205 -0.5310 -0.4752  3.0265
15420TIP3    H267752   4.721   4.372  11.109 -2.4725 -0.0023  1.0995
15421TIP3   OH267753   4.853   1.248   2.682  0.5082 -0.6863  0.4826
15421TIP3    H167754   4.875   1.256   2.775  1.6469 -0.9435  0.2532
15421TIP3    H267755   4.823   1.158   2.672  1.0791 -0.8824  0.4791
15422TIP3   OH267756   2.339   2.691   0.789 -0.1502  0.2693 -0.1157
15422TIP3    H167757   2.369   2.641   0.865 -0.4528 -0.4837 -0.4905
15422TIP3    H267758   2.311   2.775   0.826  0.2113  0.1084  0.5355
15423TIP3   OH267759   5.169   0.202   1.122 -0.4501 -0.0014 -0.3768
15423TIP3    H167760   5.167   0.106   1.128  1.1215 -0.0133  0.3833
15423TIP3    H267761   5.173   0.220   1.028 -0.1501 -0.6989 -0.5079
15424TIP3   OH267762   6.330   5.526   5.603 -0.6228 -0.1291 -0.0092
15424TIP3    H167763   6.356   5.604   5.554 -0.5352 -0.8382 -1.1349
15424TIP3    H267764   6.332   5.553   5.695 -0.7858  1.2436 -0.3850
15425TIP3   OH267765   1.210   0.263  12.379 -0.2452 -0.0597  0.0989
15425TIP3    H167766   1.156   0.341  12.364 -0.9638 -0.1337  2.0613
15425TIP3    H267767   1.148   0.191  12.381  0.4183 -0.7319 -1.6869
15426TIP3   OH267768   4.729   3.010   6.142  0.2775  0.0200 -0.0268
15426TIP3    H167769   4.641   2.974   6.153 -0.4681  1.7471 -0.0128
15426TIP3    H267770   4.737   3.076   6.211  1.6265 -0.1604  0.0183
15427TIP3   OH267771   6.237   1.003  14.497 -0.0060  0.0820 -0.3864
15427TIP3    H167772   6.295   0.935  14.462  0.0433 -0.1828  0.1980
15427TIP3    H267773   6.204   0.967  14.579  1.3087  1.3997  0.7928
15428TIP3   OH267774   5.450   5.133  13.027  0.0623 -0.0090  1.0938
15428TIP3    H167775   5.503   5.188  12.969  0.9132 -0.8263  1.0707
15428TIP3    H267776   5.457   5.046  12.989 -1.0048 -0.1980  1.3149
15429TIP3   OH267777   6.353   5.981   1.326  0.0356 -0.0819 -0.1083
15429TIP3    H167778   6.343   6.075   1.341 -1.0301 -0.2864  0.5895
15429TIP3    H267779   6.351   5.971   1.231 -0.3171  0.5540 -0.1733
15430TIP3   OH267780   5.760   5.181   5.922  0.5096 -0.4193  0.2208
15430TIP3    H167781   5.851   5.154   5.910  0.7182  0.8901 -1.4269
15430TIP3    H267782   5.762   5.276   5.908 -0.6727  0.0858  2.8986
15431TIP3   OH267783   1.246   5.214   6.399  0.7770 -0.4672  0.0602
15431TIP3    H167784   1.165   5.257   6.369  0.9098  0.8938  1.5506
15431TIP3    H267785   1.308   5.285   6.412  1.1235 -1.0994  2.2865
15432TIP3   OH267786   0.198   3.854   2.165 -0.0259 -0.1812 -0.3433
15432TIP3    H167787   0.123   3.840   2.107 -1.3834 -1.4860  1.6392
15432TIP3    H267788   0.196   3.948   2.183 -0.8882 -0.1256 -0.6733
15433TIP3   OH267789   5.012   4.521  13.713  0.3610  0.2545 -0.4995
15433TIP3    H167790   4.918   4.517  13.692  0.4726  0.1309 -1.0087
15433TIP3    H267791   5.050   4.572  13.642  0.4701  1.6102  0.5063
15434TIP3   OH267792   1.886   2.880  12.421 -0.3601  0.3118 -0.2203
15434TIP3    H167793   1.907   2.969  12.392 -0.6634 -0.1377 -1.8828
15434TIP3    H267794   1.816   2.851  12.363 -0.4039 -0.9565  0.4335
15435TIP3   OH267795   6.371   0.826   1.221 -0.7551  0.4252  0.0891
15435TIP3    H167796   6.369   0.734   1.247  2.6537  0.3282  0.4842
15435TIP3    H267797   6.428   0.868   1.286 -1.0896  2.5165 -0.8858
15436TIP3   OH267798   6.151   6.697   1.822 -0.1344  0.5132 -0.3017
15436TIP3    H167799   6.190   6.711   1.908  0.4317 -0.0001 -0.4711
15436TIP3    H267800   6.060   6.675   1.841 -0.1993  1.1240  0.1232
15437TIP3   OH267801   1.747   3.589   3.333  0.1869 -0.0758  0.0309
15437TIP3    H167802   1.772   3.640   3.256  1.1631 -2.0611 -1.0642
15437TIP3    H267803   1.652   3.582   3.328  0.3411 -1.6545 -2.0838
15438TIP3   OH267804   5.699   1.681  13.982 -0.2337 -0.6621 -0.1391
15438TIP3    H167805   5.610   1.649  13.973 -0.4510 -0.0922 -0.0581
15438TIP3    H267806   5.715   1.683  14.076 -1.2833  2.2525  0.0640
15439TIP3   OH267807   5.799   0.317   5.856  0.0242 -0.3591  0.7164
15439TIP3    H167808   5.726   0.284   5.909 -1.4474  1.3500 -0.1174
15439TIP3    H267809   5.863   0.348   5.919  0.3149 -2.3697  1.4769
15440TIP3   OH267810   4.212   2.912  13.874 -0.5380  0.1526 -0.0295
15440TIP3    H167811   4.149   2.845  13.848 -0.0097 -0.3905  0.0753
15440TIP3    H267812   4.172   2.953  13.951 -0.6630 -0.3364  0.1690
15441TIP3   OH267813   6.434   5.554   0.948 -0.3155 -0.5099 -0.0920
15441TIP3    H167814   6.510   5.505   0.919  0.0707  0.4591 -0.7746
15441TIP3    H267815   6.470   5.628   0.997 -0.7121  0.8900 -1.8425
15442TIP3   OH267816   5.151   1.227  15.423 -0.1034  0.7171  0.2220
15442TIP3    H167817   5.220   1.288  15.397 -1.3010  1.5657 -1.0569
15442TIP3    H267818   5.165   1.214  15.517  1.5074  1.2246  0.0809
15443TIP3   OH267819   4.366   4.146  16.825  0.0315  0.5182  0.3404
15443TIP3    H167820   4.444   4.146  16.768  0.9549  3.2462  1.4012
15443TIP3    H267821   4.301   4.197  16.776 -0.0721  0.6878  0.6514
15444TIP3   OH267822   3.564   6.859   3.366  0.6178 -0.1747  0.4000
15444TIP3    H167823   3.569   6.769   3.397 -2.6973 -0.6079 -0.0063
15444TIP3    H267824   3.470   6.877   3.358  1.1956  2.7320 -1.2588
15445TIP3   OH267825   1.531   0.117  13.892 -0.3950 -0.6433  0.3145
15445TIP3    H167826   1.492   0.043  13.938  1.0570  0.4373  3.5924
15445TIP3    H267827   1.489   0.194  13.930  2.4789  0.4039  1.7326
15446TIP3   OH267828   0.149   4.122   6.324  0.8459 -0.2278  0.1042
15446TIP3    H167829   0.240   4.101   6.344  1.0903  0.8025  0.1405
15446TIP3    H267830   0.111   4.145   6.409  0.9829  0.8670 -0.1187
15447TIP3   OH267831   3.679   3.067   4.480 -1.0211  0.2712 -0.0139
15447TIP3    H167832   3.735   3.099   4.551 -1.3440 -1.1305  0.9099
15447TIP3    H267833   3.693   3.130   4.409  0.2453  1.0324  0.8548
15448TIP3   OH267834   5.758   2.107  13.180  0.7926  0.6064 -0.3743
15448TIP3    H167835   5.674   2.122  13.222 -0.4745 -0.4859 -2.3532
15448TIP3    H267836   5.779   2.016  13.203  0.5279  0.2965 -1.3364
15449TIP3   OH267837   5.676   2.641   5.527  0.0561  0.0747 -0.7433
15449TIP3    H167838   5.719   2.696   5.592 -1.0589 -1.1646  1.1511
15449TIP3    H267839   5.583   2.662   5.537 -0.1911 -0.6570 -1.4501
15450TIP3   OH267840   5.204   2.550  14.448 -0.3556  0.0538  0.4965
15450TIP3    H167841   5.204   2.600  14.529  2.0104 -2.6657  2.3604
15450TIP3    H267842   5.246   2.608  14.384 -0.5769  1.5577  1.6536
15451TIP3   OH267843   0.513   6.677  14.846 -0.0849 -0.3214 -0.1010
15451TIP3    H167844   0.567   6.655  14.770 -2.4741 -0.4379 -1.8827
15451TIP3    H267845   0.511   6.773  14.847 -1.6945 -0.2943 -1.5215
15452TIP3   OH267846   4.948   5.224  15.533  0.0956 -0.2546  0.2640
15452TIP3    H167847   5.002   5.271  15.596 -3.0585  1.4651  1.9209
15452TIP3    H267848   4.903   5.157  15.584  0.5227 -1.6047 -1.0427
15453TIP3   OH267849   6.232   0.713  11.880 -0.6726  0.3192  0.1740
15453TIP3    H167850   6.271   0.768  11.813  0.1281 -0.8226 -0.3456
15453TIP3    H267851   6.233   0.766  11.960 -1.5282  1.6458 -0.6835
15454TIP3   OH267852   2.845   0.111   3.650 -0.1289 -0.1074  0.2116
15454TIP3    H167853   2.899   0.188   3.631 -0.9750  0.1535 -1.2559
15454TIP3    H267854   2.909   0.040   3.659  0.5023  0.1978 -1.4702
15455TIP3   OH267855   5.733   3.330  10.626 -0.2074  0.8202 -0.1779
15455TIP3    H167856   5.827   3.330  10.646 -0.4121 -2.1371  1.3336
15455TIP3    H267857   5.699   3.406  10.672  0.9228 -0.2578  2.7123
15456TIP3   OH267858   4.626   5.783  13.305  0.3742  0.4523 -0.3730
15456TIP3    H167859   4.683   5.831  13.245 -0.0463  0.8700 -0.4437
15456TIP3    H267860   4.628   5.834  13.386  2.1324 -0.8999  0.5022
15457TIP3   OH267861   1.428   5.521  15.504  0.6973 -0.8282  0.0903
15457TIP3    H167862   1.357   5.490  15.561  0.4014 -0.6315 -0.1644
15457TIP3    H267863   1.508   5.506  15.555  0.3060  1.4502  1.5345
15458TIP3   OH267864   1.249   2.804   6.643  0.1201  0.3924 -0.4620
15458TIP3    H167865   1.214   2.725   6.682  0.7248  0.7236  0.7958
15458TIP3    H267866   1.343   2.787   6.635  0.2630  0.9922 -0.1323
15459TIP3   OH267867   4.721   3.860   0.938  0.1470 -0.4400 -0.1935
15459TIP3    H167868   4.658   3.810   0.886 -0.6710  0.3212  0.0350
15459TIP3    H267869   4.672   3.884   1.017  0.4168  0.9864 -0.4462
15460TIP3   OH267870   3.900   5.305  10.838 -0.8807 -0.6104  0.6806
15460TIP3    H167871   3.977   5.361  10.836 -1.9595  1.0074  1.8957
15460TIP3    H267872   3.865   5.307  10.749  0.5339 -1.5157  0.0695
15461TIP3   OH267873   0.132   0.271  16.077  0.1667 -0.2485 -0.2337
15461TIP3    H167874   0.204   0.268  16.141  0.5185 -1.1329 -0.6538
15461TIP3    H267875   0.155   0.343  16.019 -0.4756  0.9890  0.9825
15462TIP3   OH267876   5.528   6.525  15.915 -0.7345 -0.3508 -0.6831
15462TIP3    H167877   5.576   6.510  15.997  0.6929  0.8656 -1.2449
15462TIP3    H267878   5.475   6.603  15.933  0.3094  0.4969 -1.1828
15463TIP3   OH267879   4.164   0.797  15.050 -0.0944 -0.1331 -0.6405
15463TIP3    H167880   4.179   0.807  14.956  1.1221  0.7248 -0.3858
15463TIP3    H267881   4.250   0.813  15.089 -0.6565 -0.1438  0.6378
15464TIP3   OH267882   1.296   5.825  12.617 -0.5154 -0.4131  0.1286
15464TIP3    H167883   1.392   5.823  12.612 -0.4727 -1.6127  1.0442
15464TIP3    H267884   1.276   5.808  12.708 -1.5978  3.0256  0.6697
15465TIP3   OH267885   0.637   4.853  13.137 -0.3287 -0.3553  0.1720
15465TIP3    H167886   0.732   4.850  13.130  0.2256  0.2751  4.5123
15465TIP3    H267887   0.607   4.770  13.100  1.9673 -1.0012 -0.3709
15466TIP3   OH267888   1.857   6.556   5.606 -0.2480 -0.2108 -0.3851
15466TIP3    H167889   1.910   6.489   5.563 -1.1058 -0.2620 -1.3926
15466TIP3    H267890   1.766   6.527   5.593 -0.5534 -0.1269  1.2956
15467TIP3   OH267891   3.468   5.936   1.148 -0.3508  0.3784 -0.3691
15467TIP3    H167892   3.376   5.946   1.170 -0.5530  0.3931 -1.1726
15467TIP3    H267893   3.508   6.020   1.171 -0.4955  0.2969  0.1795
15468TIP3   OH267894   1.240   6.469   2.071  0.4231  0.7953 -0.2506
15468TIP3    H167895   1.299   6.393   2.061  0.2243  0.8368 -2.0271
15468TIP3    H267896   1.296   6.537   2.110  1.7894  1.0156 -2.4043
15469TIP3   OH267897   2.885   2.489  12.528 -0.1443  0.4565 -0.5792
15469TIP3    H167898   2.943   2.414  12.511 -0.3104  0.4055 -0.9394
15469TIP3    H267899   2.944   2.560  12.553 -0.0369  0.0019  0.5331
15470TIP3   OH267900   0.201   5.362  12.566 -0.0255  0.4610  0.2009
15470TIP3    H167901   0.112   5.329  12.571  0.1078  0.3059  2.0668
15470TIP3    H267902   0.192   5.450  12.529 -0.8844  0.2748 -0.0534
15471TIP3   OH267903   4.202   3.819   5.134  0.3467 -0.1800  0.5300
15471TIP3    H167904   4.136   3.842   5.069  0.9935  0.0884 -0.0482
15471TIP3    H267905   4.248   3.901   5.152  0.6102 -0.3865  0.8211
15472TIP3   OH267906   4.013   4.562  13.017  0.1352 -0.0412 -0.2925
15472TIP3    H167907   4.053   4.598  13.096 -2.2146  1.8045  0.1397
15472TIP3    H267908   4.040   4.621  12.947 -1.7297  1.2086  0.0013
15473TIP3   OH267909   3.622   4.652   3.847  0.3612 -0.1244 -0.0539
15473TIP3    H167910   3.552   4.660   3.782  0.0040 -1.1826  0.1673
15473TIP3    H267911   3.588   4.696   3.925  0.4379  0.4022 -0.3162
15474TIP3   OH267912   3.761   1.581  14.536 -0.1279  0.5796  0.3793
15474TIP3    H167913   3.755   1.613  14.446  0.3755  3.5496  1.2804
15474TIP3    H267914   3.672   1.588  14.570 -0.6825 -2.1445 -0.2672
15475TIP3   OH267915   0.262   6.103   2.185 -0.2812  0.4441 -0.2401
15475TIP3    H167916   0.258   6.007   2.188  1.5749  0.3525  0.8527
15475TIP3    H267917   0.311   6.123   2.105 -0.7386  0.5042 -0.5113
15476TIP3   OH267918   4.975   4.597   0.685 -0.2053  0.8536 -0.3649
15476TIP3    H167919   5.049   4.649   0.653  0.6039 -0.0400 -0.0023
15476TIP3    H267920   4.989   4.591   0.780 -0.9977  1.0498 -0.2268
15477TIP3   OH267921   6.002   2.496   4.457  0.0928 -0.0030  0.0791
15477TIP3    H167922   6.032   2.548   4.382 -0.1686  2.2442  1.4389
15477TIP3    H267923   5.929   2.545   4.493  0.9378 -0.3555  2.4997
15478TIP3   OH267924   3.230   5.574   5.122 -0.3209  0.4214 -0.0697
15478TIP3    H167925   3.310   5.522   5.128 -0.8002 -0.2351  1.2122
15478TIP3    H267926   3.253   5.658   5.162 -0.5410 -0.1603  1.3509
15479TIP3   OH267927   3.067   6.151  13.384  0.2738  0.5477  0.4555
15479TIP3    H167928   3.091   6.217  13.320  0.3954  0.1474  0.0800
15479TIP3    H267929   3.090   6.068  13.342  1.4841  0.3311  1.4924
15480TIP3   OH267930   0.423   3.347   1.684  0.0183  0.0442 -0.4319
15480TIP3    H167931   0.453   3.427   1.728  1.5523  0.3305 -1.9159
15480TIP3    H267932   0.329   3.362   1.670  0.4461  2.0788 -1.5782
15481TIP3   OH267933   0.131   3.808   6.264  0.4458 -0.2201 -0.9822
15481TIP3    H167934   0.204   3.799   6.325 -0.1794 -3.4960 -0.5478
15481TIP3    H267935   0.146   3.893   6.221  2.7794  0.6120  1.2369
15482TIP3   OH267936   0.260   1.409  13.765 -0.1574  0.0521  0.0977
15482TIP3    H167937   0.275   1.326  13.810 -0.4557  0.1767  0.4228
15482TIP3    H267938   0.278   1.476  13.831  1.2258  0.2884 -0.4730
15483TIP3   OH267939   4.817   1.675   3.517 -0.3352 -0.0051  0.8001
15483TIP3    H167940   4.724   1.674   3.537 -0.4304 -0.9596  0.3290
15483TIP3    H267941   4.824   1.723   3.434 -0.4448 -0.2972  0.6241
15484TIP3   OH267942   0.710   6.321  14.379  0.0748 -0.0605  0.1411
15484TIP3    H167943   0.787   6.309  14.323 -1.0912 -1.4226 -1.2462
15484TIP3    H267944   0.724   6.261  14.453  2.2084  2.6166  2.1378
15485TIP3   OH267945   5.731   5.884  11.148  0.0002 -0.6058 -0.4387
15485TIP3    H167946   5.717   5.970  11.187 -0.4968 -1.5194  1.5181
15485TIP3    H267947   5.660   5.875  11.085 -2.1787 -0.9378  1.8795
15486TIP3   OH267948   4.595   0.525  11.994  0.1198  0.2008 -0.2105
15486TIP3    H167949   4.660   0.456  11.986 -0.2296 -0.3696  1.4414
15486TIP3    H267950   4.540   0.517  11.916 -0.3320 -1.8516  0.2635
15487TIP3   OH267951   2.576   5.052   4.208 -0.3238  0.1520  0.5335
15487TIP3    H167952   2.559   5.144   4.227 -2.0800 -0.1354  0.5479
15487TIP3    H267953   2.589   5.011   4.294 -1.6329  0.0339  0.6919
15488TIP3   OH267954   0.603   6.490   0.648 -0.0195  0.5514  0.4122
15488TIP3    H167955   0.558   6.439   0.581 -0.0857  1.8825 -0.5947
15488TIP3    H267956   0.602   6.579   0.615  2.7926  0.7674  0.6322
15489TIP3   OH267957   0.775   5.782  14.306 -0.1486  0.0474 -0.1059
15489TIP3    H167958   0.759   5.730  14.227 -2.1141  1.0989 -0.4752
15489TIP3    H267959   0.689   5.787  14.348  0.2438  1.9717  0.5445
15490TIP3   OH267960   2.047   5.039  13.756  0.0450 -0.0322  0.5049
15490TIP3    H167961   2.022   5.126  13.787 -2.6020 -0.7422  0.6069
15490TIP3    H267962   2.130   5.052  13.710  1.3407  1.9874  3.1292
15491TIP3   OH267963   6.220   1.623   0.040  0.1015 -0.4482 -0.4127
15491TIP3    H167964   6.195   1.710   0.010  1.7277 -0.1884 -1.1509
15491TIP3    H267965   6.243   1.635   0.132 -1.4357 -0.4963 -0.0061
15492TIP3   OH267966   4.790   6.702   5.633  0.2626 -0.3756 -0.0987
15492TIP3    H167967   4.830   6.737   5.713  1.0729 -0.4234 -0.4688
15492TIP3    H267968   4.836   6.620   5.618  0.1836 -0.3165 -0.6639
15493TIP3   OH267969   0.964   3.179   4.418 -0.1168  0.6553 -0.3321
15493TIP3    H167970   1.002   3.266   4.435  1.1376  0.1156 -0.2927
15493TIP3    H267971   1.022   3.140   4.353 -1.2445  0.2211 -1.0934
15494TIP3   OH267972   5.354   3.348   1.597  0.7306 -0.5273 -0.0567
15494TIP3    H167973   5.346   3.278   1.661 -0.4956 -0.1940  0.1911
15494TIP3    H267974   5.279   3.336   1.538  1.2280 -0.1881 -0.7764
15495TIP3   OH267975   2.090   6.259  12.733  0.1856  0.1479 -0.0495
15495TIP3    H167976   2.056   6.337  12.775  1.9349  0.7636  0.3150
15495TIP3    H267977   2.169   6.237  12.783  0.6557 -0.8544 -1.1681
15496TIP3   OH267978   4.098   4.527   5.281  0.0300  0.3869 -0.2585
15496TIP3    H167979   4.178   4.479   5.302 -0.9697 -0.2749  2.5446
15496TIP3    H267980   4.112   4.561   5.193  2.9102 -0.6429 -0.2892
15497TIP3   OH267981   2.852   4.909  14.984  0.5013  0.1326  0.0573
15497TIP3    H167982   2.843   4.915  14.889  1.0350  0.9925  0.0496
15497TIP3    H267983   2.946   4.911  15.000  0.4622 -1.0287  0.5603
15498TIP3   OH267984   1.438   5.625  14.202  0.2429  0.0318 -0.0589
15498TIP3    H167985   1.487   5.608  14.282  0.9797 -0.2234 -0.5457
15498TIP3    H267986   1.430   5.720  14.198  2.2538  0.2260 -0.8276
15499TIP3   OH267987   6.499   1.418   2.620 -0.6964 -0.3692 -0.0345
15499TIP3    H167988   6.573   1.468   2.584 -0.7130  0.3048  0.8390
15499TIP3    H267989   6.519   1.327   2.598 -1.1846  0.0812 -2.5717
15500TIP3   OH267990   0.258   4.142   4.023  0.0211 -0.2176  0.0671
15500TIP3    H167991   0.296   4.068   4.069 -2.1924 -1.2851  0.3076
15500TIP3    H267992   0.308   4.148   3.941  0.2997 -1.9518  0.0702
15501TIP3   OH267993   3.399   5.375   2.718 -0.4382 -0.1131 -0.0197
15501TIP3    H167994   3.322   5.322   2.698  0.0268 -1.3674  1.3309
15501TIP3    H267995   3.466   5.312   2.744  0.8931  0.9875 -0.6480
15502TIP3   OH267996   3.417   5.921  13.378  0.3784 -0.0365  1.0068
15502TIP3    H167997   3.405   5.992  13.314 -0.4123  0.0422  1.2252
15502TIP3    H267998   3.498   5.877  13.351 -0.0271 -0.1055 -0.1491
15503TIP3   OH267999   5.386   6.867   4.513  0.3164 -0.2675 -0.0483
15503TIP3    H168000   5.325   6.844   4.443  0.3950  0.2063 -0.2826
15503TIP3    H268001   5.435   6.942   4.478  1.1784 -0.7684  0.0475
15504TIP3   OH268002   2.652   6.473   1.329  0.3133 -0.7630 -0.1050
15504TIP3    H168003   2.718   6.405   1.347 -1.6015 -2.6282  0.2681
15504TIP3    H268004   2.703   6.553   1.320  2.4630 -1.6271  2.6249
15505TIP3   OH268005   6.463   0.364  10.421  0.3000 -0.1074  0.1121
15505TIP3    H168006   6.492   0.417  10.496 -0.2424  0.3183  0.0228
15505TIP3    H268007   6.375   0.395  10.402  0.9320  0.7974 -1.6010
15506TIP3   OH268008   1.621   5.585  14.444 -0.7052  0.1860 -0.3887
15506TIP3    H168009   1.606   5.678  14.428  1.0385  0.5109 -0.3631
15506TIP3    H268010   1.680   5.583  14.520 -1.9318 -1.0158  0.5839
15507TIP3   OH268011   6.802   4.258   4.870  0.2423 -0.7448 -0.2596
15507TIP3    H168012   6.813   4.264   4.965  1.8768  1.0408 -0.4806
15507TIP3    H268013   6.836   4.172   4.847 -1.1871 -1.6490  0.8447
15508TIP3   OH268014   2.362   6.354  15.038  0.2105  0.1214 -0.1038
15508TIP3    H168015   2.387   6.264  15.018  0.0153 -0.2043  1.0205
15508TIP3    H268016   2.444   6.403  15.034  0.2693 -0.0410 -1.0194
15509TIP3   OH268017   0.940   1.035   3.243 -0.1142  0.2181 -0.1381
15509TIP3    H168018   0.925   1.047   3.149  0.0875  1.3819 -0.0401
15509TIP3    H268019   0.971   0.945   3.251 -1.6452 -0.4223 -1.0001
15510TIP3   OH268020   6.829   1.019   4.908 -0.1937 -0.2752  0.4335
15510TIP3    H168021   6.855   0.928   4.892  2.4145  0.5618 -0.4645
15510TIP3    H268022   6.812   1.055   4.822 -0.4000  0.3314  0.7238
15511TIP3   OH268023   3.469   4.282   3.099 -0.5650 -0.3374 -0.1225
15511TIP3    H168024   3.414   4.359   3.112 -0.2247 -0.0912 -0.1054
15511TIP3    H268025   3.558   4.318   3.090 -0.6440 -0.5388 -2.1715
15512TIP3   OH268026   0.522   0.713   1.113  0.2138  0.7489 -0.3131
15512TIP3    H168027   0.498   0.623   1.135 -1.2714  0.8625 -1.2782
15512TIP3    H268028   0.442   0.750   1.074 -0.0284  3.2296  2.1801
15513TIP3   OH268029   4.571   6.866  14.588  0.3122  0.1054  0.1241
15513TIP3    H168030   4.536   6.938  14.535  1.0005 -0.5942 -1.3353
15513TIP3    H268031   4.532   6.787  14.552  0.7978 -0.3992  0.6610
15514TIP3   OH268032   4.683   4.259  10.973 -0.3327 -0.8130 -0.7520
15514TIP3    H168033   4.680   4.263  10.877  0.1793 -0.3049 -0.7492
15514TIP3    H268034   4.598   4.221  10.998 -1.1361  0.5291 -1.3278
15515TIP3   OH268035   4.078   1.105  10.354  0.6845 -0.0022  0.6459
15515TIP3    H168036   4.168   1.086  10.328  0.3572  0.8937 -1.3305
15515TIP3    H268037   4.087   1.164  10.429  1.7846  1.0045 -0.2327
15516TIP3   OH268038   0.087   0.497   5.932  0.0173 -0.3388  0.0771
15516TIP3    H168039   0.049   0.570   5.981  0.8212  0.3208 -0.2889
15516TIP3    H268040   0.082   0.423   5.994 -1.5670 -0.2061  0.1524
15517TIP3   OH268041   0.674   2.040   4.239  0.8864 -0.4081  0.1019
15517TIP3    H168042   0.622   2.031   4.318  1.3048  1.2851  0.6251
15517TIP3    H268043   0.619   2.092   4.180  1.2928 -0.0894 -0.0022
15518TIP3   OH268044   5.794   2.650   2.902  0.6424  0.1569 -0.1512
15518TIP3    H168045   5.879   2.679   2.867  0.5753  0.5312 -0.0116
15518TIP3    H268046   5.806   2.557   2.920  0.9473  0.1517 -0.3656
15519TIP3   OH268047   1.496   1.999   2.932  0.4316  0.0938 -0.3291
15519TIP3    H168048   1.466   1.943   3.003 -0.4762 -1.6601 -1.9929
15519TIP3    H268049   1.476   1.950   2.852  1.9120  1.7123 -1.8039
15520TIP3   OH268050   4.259   6.096  13.261  0.3027  0.4374 -0.9793
15520TIP3    H168051   4.224   6.021  13.212 -0.2190 -0.5963  0.8632
15520TIP3    H268052   4.181   6.144  13.288  0.2990 -0.7927  1.4887
15521TIP3   OH268053   1.717   6.640   2.138  0.1706  0.1775 -0.1916
15521TIP3    H168054   1.751   6.593   2.062 -0.6698  0.7427 -0.9431
15521TIP3    H268055   1.757   6.727   2.132  0.5894  0.0308  0.3773
15522TIP3   OH268056   4.461   3.546  15.230  0.1704  0.0529 -0.1700
15522TIP3    H168057   4.413   3.628  15.218 -1.7488 -1.0040 -0.0931
15522TIP3    H268058   4.516   3.538  15.152 -1.4022  0.2714 -1.3383
15523TIP3   OH268059   3.920   0.994   4.519  0.0608 -0.2424 -0.1056
15523TIP3    H168060   3.915   1.081   4.479 -0.3563 -0.5415 -0.7276
15523TIP3    H268061   3.938   1.011   4.611 -0.2081  0.5123 -0.1802
15524TIP3   OH268062   1.358   2.184   4.856  0.3510  0.2276  0.0989
15524TIP3    H168063   1.353   2.111   4.918 -0.1206  0.7572  0.6989
15524TIP3    H268064   1.267   2.201   4.832  0.4328  0.8511  0.2374
15525TIP3   OH268065   1.206   5.280   4.075  0.2814  0.3945 -0.6091
15525TIP3    H168066   1.301   5.268   4.073  0.2885 -0.1325  1.1289
15525TIP3    H268067   1.174   5.232   3.999  1.3261 -0.3632 -0.5969
15526TIP3   OH268068   2.609   6.147  16.277  0.0544  0.4684  0.0548
15526TIP3    H168069   2.565   6.184  16.200 -1.9673  1.0178  1.3704
15526TIP3    H268070   2.581   6.204  16.349  0.0339 -1.3462  1.5465
15527TIP3   OH268071   1.565   5.870   4.428 -0.7710  0.1077  0.1933
15527TIP3    H168072   1.516   5.843   4.350 -1.3430 -0.5491  0.7617
15527TIP3    H268073   1.651   5.832   4.417 -1.2407 -1.0616  0.4700
15528TIP3   OH268074   5.974   0.284   3.028  0.2792  0.4960 -0.1240
15528TIP3    H168075   6.000   0.327   2.946  2.3351 -0.1409  0.1283
15528TIP3    H268076   5.976   0.191   3.007  2.0359  0.2512  0.9032
15529TIP3   OH268077   6.242   3.670   4.660  0.1354 -0.3333  0.2982
15529TIP3    H168078   6.213   3.600   4.602  0.4463 -3.1229  3.2239
15529TIP3    H268079   6.301   3.627   4.723 -0.8121  2.1995  3.2151
15530TIP3   OH268080   1.478   5.804  15.813  0.3326  0.7091 -0.0898
15530TIP3    H168081   1.462   5.874  15.876 -1.8350 -0.3482  0.6295
15530TIP3    H268082   1.481   5.849  15.728 -0.1667  1.7665  0.4286
15531TIP3   OH268083   3.951   4.892   3.850  0.2504  0.4510 -0.5454
15531TIP3    H168084   3.970   4.957   3.917  0.6301  1.1725 -1.3267
15531TIP3    H268085   3.946   4.809   3.897  1.7879  0.7497  0.1988
15532TIP3   OH268086   4.873   5.557  15.763 -0.3425 -0.2759  0.6715
15532TIP3    H168087   4.866   5.595  15.675 -3.6647 -2.7499 -0.3460
15532TIP3    H268088   4.919   5.475  15.750  0.9531  0.2659  1.6652
15533TIP3   OH268089   4.511   2.944  13.596  0.4154  0.6396 -0.3876
15533TIP3    H168090   4.606   2.950  13.582  0.9227  1.6402  2.7571
15533TIP3    H268091   4.501   2.875  13.661 -0.8155  1.7634  0.6687
15534TIP3   OH268092   0.195   5.118   5.156  0.2663 -0.0907  0.0376
15534TIP3    H168093   0.122   5.093   5.100  1.5708 -0.7985 -1.4293
15534TIP3    H268094   0.155   5.166   5.228 -1.5881 -0.1303 -0.9143
15535TIP3   OH268095   6.316   3.378  16.354 -0.5285  0.3219 -0.0152
15535TIP3    H168096   6.313   3.296  16.402 -0.0574  0.3301  0.0335
15535TIP3    H268097   6.227   3.413  16.360 -0.5778  0.1140  0.4830
15536TIP3   OH268098   3.248   0.131  13.651  0.0926  0.0550 -0.1531
15536TIP3    H168099   3.177   0.153  13.590  0.4962  1.6842 -0.0687
15536TIP3    H268100   3.320   0.101  13.594 -1.1502 -3.3964 -0.1659
15537TIP3   OH268101   4.159   2.898   0.245 -0.4192  0.4510  0.3085
15537TIP3    H168102   4.143   2.989   0.221  0.2435  0.3765 -0.4576
15537TIP3    H268103   4.215   2.864   0.175  0.4593 -0.1618  1.2841
15538TIP3   OH268104   6.752   0.757  12.486  0.0745  0.0425 -0.1628
15538TIP3    H168105   6.704   0.736  12.406 -1.7453 -1.4566  1.2043
15538TIP3    H268106   6.704   0.831  12.523  0.3072  0.1009  0.0216
15539TIP3   OH268107   4.785   5.443   3.397 -0.2624  0.2496 -0.1637
15539TIP3    H168108   4.859   5.499   3.372 -0.4553  0.3675 -0.4734
15539TIP3    H268109   4.826   5.370   3.444  0.0254  0.4557 -0.0859
15540TIP3   OH268110   6.578   1.789  16.650  0.0304 -0.2104  0.3393
15540TIP3    H168111   6.608   1.709  16.608  0.6500  0.0932  0.2040
15540TIP3    H268112   6.557   1.848  16.578 -2.6179 -0.9972  0.3507
15541TIP3   OH268113   5.308   3.192  12.498 -0.2809 -0.0686 -0.1548
15541TIP3    H168114   5.226   3.232  12.526 -1.1948 -1.4599 -0.7056
15541TIP3    H268115   5.342   3.251  12.431 -2.7594 -1.2050 -2.6316
15542TIP3   OH268116   2.666   3.412   3.611  0.2188 -0.1955 -0.1459
15542TIP3    H168117   2.640   3.372   3.528 -1.2286 -2.7998  1.3978
15542TIP3    H268118   2.639   3.503   3.604 -1.0654 -0.6576 -2.0779
15543TIP3   OH268119   4.951   6.133  13.488  0.2346 -0.3732  0.0833
15543TIP3    H168120   5.017   6.100  13.427  0.8320  0.3900  0.3160
15543TIP3    H268121   5.000   6.166  13.562 -0.1572  2.9522 -0.9886
15544TIP3   OH268122   3.829   3.876  14.376 -0.2461  0.2391 -0.1039
15544TIP3    H168123   3.770   3.950  14.366 -0.7871 -0.3689 -1.8298
15544TIP3    H268124   3.774   3.806  14.411 -0.8884 -0.6172 -2.6041
15545TIP3   OH268125   3.479   2.822  14.636 -0.1853  0.1736 -0.6482
15545TIP3    H168126   3.556   2.766  14.647  0.2289  0.9158  0.4137
15545TIP3    H268127   3.405   2.765  14.658  0.1973 -0.0725  0.0235
15546TIP3   OH268128   0.288   0.062  11.160 -0.0225 -0.4512 -0.2402
15546TIP3    H168129   0.239   0.099  11.087 -0.2808 -2.7100 -1.2966
15546TIP3    H268130   0.338   0.135  11.195 -0.5007  0.8715 -2.1711
15547TIP3   OH268131   2.103   6.296   2.684 -1.2074 -0.2017  0.4035
15547TIP3    H168132   2.032   6.299   2.619 -1.2642 -0.7237  0.4422
15547TIP3    H268133   2.173   6.248   2.640 -0.7668  0.5380  0.2651
15548TIP3   OH268134   0.859   3.012   4.654  0.1797  0.1056  0.3033
15548TIP3    H168135   0.764   3.023   4.641 -0.0032 -1.7308 -0.2829
15548TIP3    H268136   0.898   3.091   4.616 -1.0857  0.6533  0.0825
15549TIP3   OH268137   4.121   5.349  15.087 -0.0940 -0.3830  0.0680
15549TIP3    H168138   4.072   5.270  15.111 -0.0336 -0.2294  0.7126
15549TIP3    H268139   4.213   5.320  15.084  0.1264  0.0255  1.9804
15550TIP3   OH268140   5.111   0.167  12.986  0.3014 -0.3015  0.7163
15550TIP3    H168141   5.056   0.093  12.959 -2.6580  1.2767  1.9389
15550TIP3    H268142   5.183   0.168  12.922 -1.3582 -2.1951 -1.3581
15551TIP3   OH268143   3.452   0.503   3.156 -0.4983  0.4621 -0.9393
15551TIP3    H168144   3.414   0.492   3.244 -0.6758 -0.1051 -1.0829
15551TIP3    H268145   3.378   0.530   3.102 -0.2057  1.7439 -0.7357
15552TIP3   OH268146   4.672   1.614   6.177 -0.0160 -1.1723  0.0395
15552TIP3    H168147   4.727   1.608   6.099  0.3693 -0.3278  0.2342
15552TIP3    H268148   4.667   1.708   6.196  1.0737 -1.4238  1.8444
15553TIP3   OH268149   0.159   1.246   1.366 -0.4130 -0.2801  0.7847
15553TIP3    H168150   0.188   1.166   1.408 -2.0489 -0.9289  0.7429
15553TIP3    H268151   0.115   1.296   1.435 -1.7184 -0.6353  0.2419
15554TIP3   OH268152   6.456   6.683   2.749 -0.1635  0.0575  0.4694
15554TIP3    H168153   6.448   6.670   2.655 -0.8391  1.3300  0.3312
15554TIP3    H268154   6.370   6.658   2.785  0.9042 -3.1767  1.1557
15555TIP3   OH268155   1.493   2.134   5.439 -0.2079 -0.0682 -0.0853
15555TIP3    H168156   1.464   2.225   5.427  0.7094  0.3627  0.8527
15555TIP3    H268157   1.423   2.082   5.398 -1.0511  1.0267 -0.1070
15556TIP3   OH268158   2.514   0.945   0.382 -0.1665  0.0563 -0.6330
15556TIP3    H168159   2.511   0.850   0.367  0.9966 -0.1139  0.0786
15556TIP3    H268160   2.567   0.978   0.309 -0.1827  0.0911 -0.6286
15557TIP3   OH268161   5.069   4.062   2.176 -0.4053  0.0929  0.1732
15557TIP3    H168162   5.076   4.091   2.085 -0.6429  2.1000  0.7424
15557TIP3    H268163   5.147   4.099   2.219 -1.9719  2.1090  1.4596
15558TIP3   OH268164   4.829   2.347  14.789 -0.0771 -0.1243 -0.5800
15558TIP3    H168165   4.789   2.300  14.862  0.0548  0.1764 -0.3107
15558TIP3    H268166   4.755   2.392  14.747 -0.0135  0.5280 -0.0108
15559TIP3   OH268167   1.353   3.787   2.741 -0.6216  0.3023  0.2000
15559TIP3    H168168   1.314   3.788   2.653 -0.7981  1.5279  0.2746
15559TIP3    H268169   1.434   3.836   2.731 -0.6570  0.4727  0.7267
15560TIP3   OH268170   4.090   5.886  15.159 -0.1339  0.1989  0.0453
15560TIP3    H168171   4.056   5.797  15.147  0.7519 -0.2501  0.7553
15560TIP3    H268172   4.033   5.924  15.226  0.1987 -0.2338  0.5781
15561TIP3   OH268173   6.771   6.700   1.633 -0.2304 -0.1078  0.5104
15561TIP3    H168174   6.676   6.698   1.624 -0.3957  0.3056  1.8570
15561TIP3    H268175   6.795   6.611   1.659  0.2203 -1.2317 -3.2239
15562TIP3   OH268176   0.037   2.767   0.178  0.0857  0.8486 -0.1846
15562TIP3    H168177   0.046   2.755   0.083  1.0540  1.5386 -0.2006
15562TIP3    H268178   0.125   2.748   0.212 -0.4929 -0.3629  0.6972
15563TIP3   OH268179   4.521   3.387   3.386  0.1638 -0.4569 -0.6716
15563TIP3    H168180   4.596   3.444   3.405 -0.6942  0.9293 -1.2714
15563TIP3    H268181   4.526   3.317   3.451 -1.4242  2.8341  3.4404
15564TIP3   OH268182   3.455   5.389  13.169 -0.6215  0.2648 -0.1541
15564TIP3    H168183   3.523   5.402  13.103 -0.1566 -1.1085  0.0140
15564TIP3    H268184   3.503   5.374  13.251 -1.1919  2.8250  0.7387
15565TIP3   OH268185   2.345   4.617   2.061  0.5425  0.4900 -0.1747
15565TIP3    H168186   2.429   4.591   2.022  0.4952  1.1919 -0.7912
15565TIP3    H268187   2.361   4.618   2.155  1.0315 -0.0496 -0.2490
15566TIP3   OH268188   3.619   2.799  16.106 -0.4522 -0.1011 -0.0325
15566TIP3    H168189   3.623   2.889  16.074 -0.2100 -0.0537  0.1356
15566TIP3    H268190   3.664   2.747  16.039 -0.2826 -0.0524  0.0450
15567TIP3   OH268191   0.092   3.235  16.298  0.0886  0.5648  0.1724
15567TIP3    H168192  -0.003   3.248  16.304  0.1309  0.6573  0.6177
15567TIP3    H268193   0.130   3.309  16.344  0.3704  0.2370  0.4719
15568TIP3   OH268194   2.994   5.171  16.281  0.4408  0.6446  0.5750
15568TIP3    H168195   3.023   5.258  16.256  1.0198  0.4925  0.7112
15568TIP3    H268196   2.949   5.184  16.365 -0.2210  0.9300  0.1871
15569TIP3   OH268197   0.881   2.830  14.888 -0.0115 -0.1298  0.3115
15569TIP3    H168198   0.855   2.814  14.978 -1.7760  0.8003  0.0120
15569TIP3    H268199   0.846   2.755  14.839 -0.9667  0.4273  0.1135
15570TIP3   OH268200   0.235   5.249  11.297 -0.1905  0.0968  0.0746
15570TIP3    H168201   0.173   5.298  11.352 -0.6553  1.0836 -1.2637
15570TIP3    H268202   0.305   5.312  11.279  0.4725 -0.5482  0.3646
15571TIP3   OH268203   5.753   3.156   0.312 -0.2355 -0.3003  0.5989
15571TIP3    H168204   5.669   3.114   0.296  0.1410 -0.8091 -0.1165
15571TIP3    H268205   5.734   3.249   0.316 -1.0906 -0.5067  2.2085
15572TIP3   OH268206   6.360   5.766  14.092 -0.5092 -0.2779 -0.1444
15572TIP3    H168207   6.308   5.685  14.090 -0.8263 -0.0648 -0.8014
15572TIP3    H268208   6.296   5.836  14.085 -0.3117  0.0858  1.3298
15573TIP3   OH268209   0.712   5.975   3.985  0.4751  0.7858 -0.3065
15573TIP3    H168210   0.744   6.044   3.927 -0.0432  1.0781 -0.2527
15573TIP3    H268211   0.666   6.022   4.055  0.7792  0.4198  0.1488
15574TIP3   OH268212   3.790   4.516  14.461 -0.4470  0.4987 -0.0671
15574TIP3    H168213   3.735   4.438  14.453 -0.6086  0.6004  0.0489
15574TIP3    H268214   3.870   4.484  14.503 -0.1151  0.2104 -0.8922
15575TIP3   OH268215   0.652   2.866   3.263 -0.1164  0.2446  0.3987
15575TIP3    H168216   0.564   2.863   3.227  0.3711 -0.3179 -0.8171
15575TIP3    H268217   0.697   2.790   3.224  0.1363 -1.1166  3.1236
15576TIP3   OH268218   5.399   0.837   4.188 -0.2693 -0.1215 -0.2590
15576TIP3    H168219   5.405   0.916   4.241 -0.1627 -0.1234 -0.2669
15576TIP3    H268220   5.388   0.766   4.251  0.1412 -0.1553 -0.2189
15577TIP3   OH268221   6.490   6.736   2.469  0.3008  0.4842 -0.0851
15577TIP3    H168222   6.549   6.802   2.433 -0.3247  0.8458 -0.4746
15577TIP3    H268223   6.526   6.653   2.441 -0.2254  0.7567 -1.6727
15578TIP3   OH268224   2.151   1.738   1.761 -0.1714 -0.1080 -0.4581
15578TIP3    H168225   2.082   1.718   1.698 -0.6059 -1.4540  0.4009
15578TIP3    H268226   2.232   1.718   1.714 -0.4845 -1.0228 -0.6380
15579TIP3   OH268227   1.877   0.132   1.122  0.0127 -0.3336  0.2263
15579TIP3    H168228   1.903   0.091   1.204 -0.1542 -0.3585  0.2671
15579TIP3    H268229   1.783   0.118   1.117 -0.2682  1.0981  0.8317
15580TIP3   OH268230   1.735   3.198  11.413 -0.1038 -0.0247  0.0378
15580TIP3    H168231   1.771   3.186  11.500  1.9388  0.8952 -0.6225
15580TIP3    H268232   1.642   3.180  11.423  0.0050  0.4304  2.4714
15581TIP3   OH268233   6.839   2.927  12.695 -0.4269  0.0073  0.0184
15581TIP3    H168234   6.767   2.941  12.756 -0.5345  0.3518 -0.1905
15581TIP3    H268235   6.873   3.014  12.676  0.8939 -0.2187  1.1275
15582TIP3   OH268236   0.962   0.869   5.738 -0.2627 -0.0045  0.3523
15582TIP3    H168237   0.879   0.825   5.759 -0.7885 -0.2359 -1.9075
15582TIP3    H268238   1.021   0.843   5.808 -1.7773 -0.7915  1.4057
15583TIP3   OH268239   0.922   1.686  15.520  0.4979  0.9207  0.0968
15583TIP3    H168240   0.828   1.690  15.503  0.6482  0.6669 -0.8839
15583TIP3    H268241   0.938   1.595  15.547  0.7249  0.3941 -1.6469
15584TIP3   OH268242   5.347   4.383  11.869  0.1749  0.0758 -0.2585
15584TIP3    H168243   5.288   4.442  11.821  1.5982  1.5535 -0.2772
15584TIP3    H268244   5.412   4.357  11.804  0.5456 -0.1315  0.1907
15585TIP3   OH268245   4.535   5.288  13.473 -0.1264  0.1308  0.5561
15585TIP3    H168246   4.472   5.219  13.489 -0.6418  0.8255  1.6772
15585TIP3    H268247   4.491   5.348  13.412  0.2817 -0.4555 -0.3344
15586TIP3   OH268248   5.365   5.515  15.182  0.1043  0.1543 -0.0185
15586TIP3    H168249   5.389   5.498  15.273 -1.2638  2.8234  0.9468
15586TIP3    H268250   5.408   5.445  15.132 -1.0365 -2.8589  2.8543
15587TIP3   OH268251   3.628   0.004  13.008 -0.3864  0.1262 -0.5092
15587TIP3    H168252   3.608   0.096  13.023 -1.0779 -0.2639  1.2387
15587TIP3    H268253   3.544  -0.041  13.015  0.3284 -1.0296  2.5221
15588TIP3   OH268254   5.020   3.653  14.453 -0.1027 -0.0677  0.1280
15588TIP3    H168255   4.977   3.669  14.369 -1.0563  2.1935  0.9685
15588TIP3    H268256   4.968   3.702  14.516  0.7116 -1.5370  2.0426
15589TIP3   OH268257   5.604   6.324  11.004 -0.1721 -0.5783 -0.1031
15589TIP3    H168258   5.603   6.413  11.038  0.0703  0.3723 -2.3558
15589TIP3    H268259   5.514   6.308  10.975  0.5512  0.6868 -3.5752
15590TIP3   OH268260   4.311   3.254   4.940 -0.0998 -0.2138 -0.1485
15590TIP3    H168261   4.285   3.168   4.907  0.1734  0.5865 -2.6615
15590TIP3    H268262   4.403   3.243   4.966 -0.2479 -0.8248  0.1213
15591TIP3   OH268263   6.163   2.621  13.596  0.4929  0.4127 -0.8448
15591TIP3    H168264   6.222   2.660  13.532 -0.5977 -0.7384 -2.6180
15591TIP3    H268265   6.193   2.530  13.603  0.2789  0.3910 -0.0720
15592TIP3   OH268266   4.522   4.663  12.112  0.2864  0.2425 -0.3186
15592TIP3    H168267   4.525   4.653  12.207  0.6908  1.5079 -0.1698
15592TIP3    H268268   4.445   4.717  12.096  0.7612  0.8570 -0.6037
15593TIP3   OH268269   6.853   5.375  14.340 -0.1615 -0.3234  0.2119
15593TIP3    H168270   6.904   5.420  14.408  1.0277 -2.1440  0.6130
15593TIP3    H268271   6.912   5.306  14.309 -1.4046 -0.7360 -1.3213
15594TIP3   OH268272   0.754   2.486   5.738 -0.4101 -0.5515 -0.5667
15594TIP3    H168273   0.836   2.532   5.751 -1.3231  0.8553  0.4121
15594TIP3    H268274   0.688   2.540   5.780 -2.1112 -0.7854 -2.7150
15595TIP3   OH268275   1.339   0.102   1.029 -0.3660 -0.0548  0.0906
15595TIP3    H168276   1.300   0.176   0.983  1.2966  1.9290  1.6896
15595TIP3    H268277   1.430   0.127   1.043  0.7593 -3.1816 -0.8157
15596TIP3   OH268278   4.890   4.397  13.107 -0.2993  0.0371  0.7022
15596TIP3    H168279   4.924   4.354  13.029 -2.2864 -1.5505  0.6443
15596TIP3    H268280   4.954   4.378  13.176  0.9605  0.6122 -0.2785
15597TIP3   OH268281   4.423   2.585   6.789 -0.0054  0.5078 -0.1913
15597TIP3    H168282   4.383   2.664   6.754  2.4689  1.2515 -1.6275
15597TIP3    H268283   4.386   2.514   6.736 -0.0979  1.0652 -0.8948
15598TIP3   OH268284   5.422   0.238  11.920 -0.1525 -0.4059 -0.0582
15598TIP3    H168285   5.463   0.158  11.888  0.6287 -0.1518  0.2941
15598TIP3    H268286   5.415   0.294  11.842 -0.5280 -0.7351 -0.2664
15599TIP3   OH268287   2.866   1.832  12.346 -0.0508 -0.3462  0.1864
15599TIP3    H168288   2.956   1.863  12.348 -0.5265  1.1012  0.5482
15599TIP3    H268289   2.873   1.738  12.331  1.5113 -0.2696  0.2867
15600TIP3   OH268290   1.579   6.063  12.699 -0.3516 -0.1572  0.1691
15600TIP3    H168291   1.579   6.058  12.604 -2.0463 -1.4384  0.1931
15600TIP3    H268292   1.541   5.979  12.728 -1.0600  0.7068  1.9118
15601TIP3   OH268293   1.223   6.113   5.520  0.1822  1.3750  0.6494
15601TIP3    H168294   1.242   6.117   5.613 -0.9049  2.5088  0.8442
15601TIP3    H268295   1.128   6.100   5.515  0.4161 -0.2197 -0.3038
15602TIP3   OH268296   6.767   0.255  17.024 -0.3744  0.4143  0.0695
15602TIP3    H168297   6.728   0.285  17.106 -2.0278 -1.8620  0.2056
15602TIP3    H268298   6.805   0.170  17.045 -1.8111 -0.7508 -1.7030
15603TIP3   OH268299   6.511   0.433   3.597 -0.0301 -0.2397 -0.4260
15603TIP3    H168300   6.426   0.442   3.553  0.4405 -1.0388 -1.5553
15603TIP3    H268301   6.530   0.339   3.592  2.0349  0.2215 -2.3732
15604TIP3   OH268302   0.422   0.486   0.222 -0.1348  0.1622 -0.5503
15604TIP3    H168303   0.431   0.477   0.127 -0.1167 -0.6081 -0.4779
15604TIP3    H268304   0.499   0.443   0.257 -0.8649 -0.8356 -0.1400
15605TIP3   OH268305   1.586   5.177   4.562  0.1255 -0.1568 -0.5859
15605TIP3    H168306   1.622   5.230   4.634  1.2980 -0.1605 -1.1415
15605TIP3    H268307   1.503   5.145   4.596  0.2507  0.5362  0.4550
15606TIP3   OH268308   1.891   2.245  14.924 -0.4391 -0.0966 -0.5857
15606TIP3    H168309   1.896   2.164  14.874  0.7997  0.0253 -0.6950
15606TIP3    H268310   1.808   2.240  14.970 -0.5501 -1.2522 -0.8874
15607TIP3   OH268311   2.972   4.064   5.156 -0.5780  0.4640  0.0099
15607TIP3    H168312   2.965   4.104   5.243 -1.5521 -0.9134  0.6007
15607TIP3    H268313   2.973   3.970   5.173  2.2382  0.1635 -1.2897
15608TIP3   OH268314   3.505   6.261  14.429 -0.7559 -0.2122 -0.2423
15608TIP3    H168315   3.457   6.190  14.385 -0.0307 -0.2020 -1.0674
15608TIP3    H268316   3.596   6.247  14.404 -0.3656  0.0020  0.9946
15609TIP3   OH268317   2.772   1.128  11.951 -0.2267 -0.1665  0.2223
15609TIP3    H168318   2.687   1.129  11.906  0.2970 -0.7230 -0.8152
15609TIP3    H268319   2.799   1.036  11.948  0.9821  0.1928 -0.5609
15610TIP3   OH268320   0.681   4.385  13.589  0.3495  0.0811  0.2398
15610TIP3    H168321   0.752   4.442  13.560  0.0377  1.1367  1.4476
15610TIP3    H268322   0.658   4.418  13.676 -1.3488 -0.4889  0.0397
15611TIP3   OH268323   2.500   0.812   4.365 -0.0364  0.5906 -0.3357
15611TIP3    H168324   2.529   0.900   4.343 -0.3813  0.9691  0.6850
15611TIP3    H268325   2.512   0.805   4.459  0.2986 -0.5782 -0.4529
15612TIP3   OH268326   5.677   1.031   0.612 -0.1501 -0.4164  0.3222
15612TIP3    H168327   5.640   0.991   0.691  0.6526 -0.8303  0.4982
15612TIP3    H268328   5.648   1.122   0.617 -1.2087 -0.7413  0.4011
15613TIP3   OH268329   4.334   2.995   0.767 -0.5191  0.6102 -0.4217
15613TIP3    H168330   4.330   2.956   0.854 -1.2520  0.6987 -0.4149
15613TIP3    H268331   4.419   2.967   0.733 -0.5212  0.0023  0.0500
15614TIP3   OH268332   5.934   2.836  16.587  0.7079 -0.7221  0.2614
15614TIP3    H168333   5.873   2.907  16.570 -0.2179 -1.2668  1.2169
15614TIP3    H268334   5.990   2.868  16.658  1.3897 -0.3265 -0.4344
15615TIP3   OH268335   3.801   1.131  11.299 -0.1946 -0.2630  0.0227
15615TIP3    H168336   3.860   1.177  11.239  2.3742 -2.5347  0.6103
15615TIP3    H268337   3.800   1.041  11.267 -3.2301 -0.3966  0.2419
15616TIP3   OH268338   0.404   5.110  12.450  0.6053 -0.0382 -0.4603
15616TIP3    H168339   0.342   5.085  12.519 -0.3391 -0.1971 -1.3337
15616TIP3    H268340   0.442   5.192  12.480 -0.7660  0.5760 -0.3322
15617TIP3   OH268341   4.327   0.698  11.646  0.1010 -0.3437 -0.1679
15617TIP3    H168342   4.232   0.689  11.637  0.0812 -0.9891  0.6502
15617TIP3    H268343   4.354   0.737  11.563 -0.7948 -0.7634 -0.6776
15618TIP3   OH268344   0.180   6.141   4.256  0.1466 -0.4073  0.2266
15618TIP3    H168345   0.151   6.063   4.304  0.7008 -0.2633  0.8002
15618TIP3    H268346   0.237   6.187   4.317 -0.2490  0.5064 -0.0766
15619TIP3   OH268347   1.709   4.455  13.815  0.0128  0.4531  0.1644
15619TIP3    H168348   1.701   4.448  13.720  0.0794  0.7141  0.1402
15619TIP3    H268349   1.704   4.364  13.846 -3.6940  0.5158  0.2093
15620TIP3   OH268350   6.433   2.606  15.728 -0.4553  0.2019 -0.6807
15620TIP3    H168351   6.504   2.573  15.783 -0.3129  0.1134 -0.9222
15620TIP3    H268352   6.468   2.606  15.639 -0.9986 -0.5240 -0.9041
15621TIP3   OH268353   4.983   6.707   2.795  0.8550  0.2276  0.2750
15621TIP3    H168354   4.957   6.796   2.771 -0.1262  0.2737  1.4183
15621TIP3    H268355   5.073   6.699   2.763 -0.0528  0.5099 -2.6586
15622TIP3   OH268356   2.335   3.803  15.176 -0.4936  0.2817  0.4971
15622TIP3    H168357   2.290   3.887  15.171 -0.4738  0.2367 -1.6446
15622TIP3    H268358   2.397   3.805  15.103 -1.0558 -1.8939 -0.1201
15623TIP3   OH268359   4.405   3.583  13.977 -0.1808  0.3713  0.0897
15623TIP3    H168360   4.500   3.589  13.982 -0.2217  0.7375  0.4463
15623TIP3    H268361   4.380   3.534  14.056 -0.1692 -1.1179 -0.7881
15624TIP3   OH268362   0.862   2.695   0.196  0.1820  0.0950 -0.3951
15624TIP3    H168363   0.794   2.646   0.150  0.4787 -0.6376 -0.0716
15624TIP3    H268364   0.816   2.769   0.236 -0.9362 -1.7461  1.9428
15625TIP3   OH268365   3.125   2.224  10.718 -0.3902  0.1031 -0.3067
15625TIP3    H168366   3.109   2.131  10.703 -1.3344  0.1603  0.2574
15625TIP3    H268367   3.100   2.266  10.635  0.0840 -0.1364 -0.5794
15626TIP3   OH268368   3.283   6.809   4.603  0.7839 -0.3057  0.7009
15626TIP3    H168369   3.334   6.888   4.618 -1.0978  1.2525 -0.5856
15626TIP3    H268370   3.192   6.836   4.615  0.1324 -2.5793  1.3610
15627TIP3   OH268371   2.235   5.141   6.297  0.1876 -0.6050  0.3031
15627TIP3    H168372   2.181   5.188   6.360  0.6214  0.1883  0.1042
15627TIP3    H268373   2.172   5.092   6.244 -0.0759 -3.2935  2.8374
15628TIP3   OH268374   4.059   1.729   1.877 -0.5525  0.4532 -0.3828
15628TIP3    H168375   4.051   1.635   1.859  0.1918  0.3741 -0.3109
15628TIP3    H268376   4.047   1.737   1.972 -0.3946  0.4063 -0.3592
15629TIP3   OH268377   2.246   3.148   4.342 -0.3279 -0.4992  0.0268
15629TIP3    H168378   2.279   3.236   4.361 -0.6097 -0.2404 -0.6652
15629TIP3    H268379   2.254   3.102   4.425  1.3284 -0.3054  0.0045
15630TIP3   OH268380   5.552   6.789  13.930  0.2808  0.2845  0.0386
15630TIP3    H168381   5.625   6.767  13.987  0.2972 -0.0312 -0.0993
15630TIP3    H268382   5.580   6.867  13.883  0.4529  0.2754  0.1267
15631TIP3   OH268383   1.210   1.901  13.771  0.2560  0.5640 -0.2535
15631TIP3    H168384   1.172   1.814  13.786  1.5409 -0.0763 -0.5214
15631TIP3    H268385   1.305   1.886  13.773  0.5125  2.0940  0.3832
15632TIP3   OH268386   6.165   1.020   3.795  0.5468 -0.0120  0.5188
15632TIP3    H168387   6.128   0.943   3.839 -0.6227  0.2485  0.0183
15632TIP3    H268388   6.258   1.000   3.788  0.9692  0.2525  3.7921
15633TIP3   OH268389   2.797   1.299   4.167 -0.0842 -0.5756  0.0822
15633TIP3    H168390   2.818   1.218   4.214  0.8981 -0.3734  0.0121
15633TIP3    H268391   2.721   1.276   4.113 -0.2507 -1.2474  0.5824
15634TIP3   OH268392   0.533   0.754  15.791 -0.1192 -0.1688  0.1674
15634TIP3    H168393   0.556   0.820  15.725 -0.4209 -1.9144 -1.7889
15634TIP3    H268394   0.515   0.675  15.741 -2.8641 -0.9690  2.1660
15635TIP3   OH268395   4.069   5.642   3.844  0.1064 -0.6996 -0.3319
15635TIP3    H168396   4.051   5.593   3.763 -1.2655 -2.2338  0.8473
15635TIP3    H268397   4.004   5.712   3.844 -1.5794 -2.1718  0.5732
15636TIP3   OH268398   3.831   6.771  14.070  0.7162  0.2140  0.4991
15636TIP3    H168399   3.853   6.787  13.978 -0.4966 -0.7315  0.0145
15636TIP3    H268400   3.838   6.676  14.080  2.3452  0.4189  1.8244
15637TIP3   OH268401   1.699   4.558   3.390 -0.3643 -0.6273 -0.2168
15637TIP3    H168402   1.676   4.557   3.298 -1.3619 -1.8287  0.0170
15637TIP3    H268403   1.630   4.508   3.433  0.2560 -0.3775  1.1428
15638TIP3   OH268404   0.751   1.102   2.298 -0.4265  0.0072 -0.0502
15638TIP3    H168405   0.710   1.155   2.366 -2.2005  1.0215 -1.8142
15638TIP3    H268406   0.830   1.150   2.273 -0.2567  0.0888  0.6302
15639TIP3   OH268407   5.970   5.160  16.936 -0.1214  0.1441 -0.4920
15639TIP3    H168408   5.982   5.066  16.922 -0.7465  0.0024 -0.1052
15639TIP3    H268409   5.880   5.169  16.965 -0.5482  1.0294 -1.9674
15640TIP3   OH268410   3.418   4.046  15.669  0.4190  0.4604 -0.3335
15640TIP3    H168411   3.419   4.071  15.762  1.2860  1.3169 -0.5445
15640TIP3    H268412   3.451   3.957  15.668 -2.2697 -0.6438  0.4108
15641TIP3   OH268413   5.543   6.652  11.487 -0.0767  0.0972 -0.5783
15641TIP3    H168414   5.598   6.669  11.411  0.6030  0.4707 -0.0074
15641TIP3    H268415   5.490   6.576  11.461  0.5703 -0.1581 -1.1997
15642TIP3   OH268416   4.499   1.709  13.385 -0.1446  0.5376  0.3637
15642TIP3    H168417   4.508   1.756  13.468 -0.4121 -2.7427  2.4245
15642TIP3    H268418   4.426   1.649  13.399  1.1775 -1.6456 -1.4301
15643TIP3   OH268419   4.015   0.930  15.240 -0.3004  0.2667 -0.5367
15643TIP3    H168420   3.963   0.851  15.254  0.3114  0.0234  0.5117
15643TIP3    H268421   4.051   0.921  15.152 -1.4367  0.1005 -1.0018
15644TIP3   OH268422   3.078   4.760  15.418  0.4872 -0.4580 -0.3711
15644TIP3    H168423   3.062   4.685  15.474  1.1272 -1.2998 -1.2900
15644TIP3    H268424   3.020   4.828  15.452 -1.7877 -2.0218 -0.8540
15645TIP3   OH268425   3.870   0.284   4.008  0.2578  0.7943  0.4152
15645TIP3    H168426   3.897   0.320   3.923  1.1829  0.3928  0.5316
15645TIP3    H268427   3.799   0.223   3.986  0.4448  0.7434 -0.0587
15646TIP3   OH268428   5.995   0.556   5.624  0.1534 -0.4770 -0.1657
15646TIP3    H168429   6.050   0.498   5.572  2.2753  0.2720  1.1228
15646TIP3    H268430   6.031   0.552   5.713  0.5872  2.9370 -0.0387
15647TIP3   OH268431   4.344   1.421  11.513  0.0393 -0.2769 -0.5298
15647TIP3    H168432   4.408   1.459  11.573  2.0895 -2.5692 -1.1029
15647TIP3    H268433   4.351   1.473  11.434  0.5921  0.0256 -0.2859
15648TIP3   OH268434   5.455   3.410  16.483 -0.2219  0.0514 -0.2933
15648TIP3    H168435   5.453   3.472  16.556 -1.7819  1.3138 -1.3462
15648TIP3    H268436   5.433   3.326  16.522 -1.5730  0.7932  0.6278
15649TIP3   OH268437   3.129   5.228   4.228  0.4127  0.1130  0.9217
15649TIP3    H168438   3.170   5.146   4.259 -0.5752 -0.6468  0.2877
15649TIP3    H268439   3.117   5.214   4.134 -1.2307  0.3228  1.0798
15650TIP3   OH268440   0.304   1.122  16.877 -0.5963 -0.5274  0.1082
15650TIP3    H168441   0.337   1.195  16.825 -1.2206  0.0538  0.5094
15650TIP3    H268442   0.280   1.056  16.812  0.1203 -0.4413 -0.2521
15651TIP3   OH268443   0.123   0.654   3.873 -0.3838  0.0395  0.0258
15651TIP3    H168444   0.114   0.742   3.910 -2.7739  0.5262 -1.4178
15651TIP3    H268445   0.064   0.600   3.925  0.3295 -0.5020  0.2823
15652TIP3   OH268446   0.397   5.022   5.341  0.2115 -0.3711 -0.1612
15652TIP3    H168447   0.352   5.051   5.420  1.3887 -2.6761  1.4961
15652TIP3    H268448   0.330   5.026   5.272 -1.0478  1.0308  1.0762
15653TIP3   OH268449   1.713   2.243  14.564 -0.5155 -0.3338  0.0893
15653TIP3    H168450   1.773   2.214  14.632 -0.7731 -2.1607 -0.4120
15653TIP3    H268451   1.634   2.190  14.576 -0.7605 -0.3452 -1.2952
15654TIP3   OH268452   2.264   2.781  13.385  0.3651 -0.5705 -0.1733
15654TIP3    H168453   2.204   2.854  13.401 -0.1386 -1.3863  2.0153
15654TIP3    H268454   2.220   2.727  13.320 -0.7204 -0.5191  0.4921
15655TIP3   OH268455   4.697   3.651  14.800 -0.0013  0.1824  0.5507
15655TIP3    H168456   4.776   3.705  14.793  0.7433 -0.9494 -0.0699
15655TIP3    H268457   4.629   3.712  14.829  0.6574  1.6036 -0.6996
15656TIP3   OH268458   5.869   2.696  11.761 -0.3008  0.4015  0.1353
15656TIP3    H168459   5.926   2.706  11.838  1.1112 -1.6846 -0.5507
15656TIP3    H268460   5.830   2.610  11.772  0.0989 -0.0346 -1.5645
15657TIP3   OH268461   2.380   2.862   3.953  0.1851 -0.4110  0.0302
15657TIP3    H168462   2.434   2.934   3.986  0.4202  0.0412 -1.2717
15657TIP3    H268463   2.380   2.798   4.024 -0.0034  0.8462  1.2035
15658TIP3   OH268464   2.784   5.257  11.302  0.0038  0.8272  0.4794
15658TIP3    H168465   2.866   5.295  11.334  0.8322 -1.2336  1.0271
15658TIP3    H268466   2.717   5.292  11.360  1.0131 -0.1732  2.3731
15659TIP3   OH268467   0.006   3.785  14.159 -0.2460 -0.2132  0.0685
15659TIP3    H168468   0.043   3.860  14.114  0.3520  0.0550  0.9781
15659TIP3    H268469   0.073   3.717  14.153 -0.1524 -0.1689  0.5484
15660TIP3   OH268470   2.793   2.684  16.728  0.4091  0.0577 -0.0567
15660TIP3    H168471   2.782   2.658  16.636  0.4537  0.7562 -0.2608
15660TIP3    H268472   2.739   2.762  16.737  0.0676 -0.2485  0.6287
15661TIP3   OH268473   6.099   4.601   3.794 -0.1434 -0.3990  0.0482
15661TIP3    H168474   6.193   4.611   3.776  0.0944 -1.1236  0.7975
15661TIP3    H268475   6.071   4.688   3.821  0.8662 -0.6340  2.1077
15662TIP3   OH268476   0.246   6.726  10.292  0.0973 -1.1666 -0.0155
15662TIP3    H168477   0.270   6.683  10.210 -1.1155 -0.0633 -0.9810
15662TIP3    H268478   0.171   6.781  10.270  0.6257  0.2655  1.5168
15663TIP3   OH268479   4.622   4.592  14.456 -0.1132  0.3609  0.6671
15663TIP3    H168480   4.651   4.504  14.482  2.0229  0.3741 -1.3397
15663TIP3    H268481   4.654   4.649  14.525  0.1500 -0.2171  1.0331
15664TIP3   OH268482   3.872   0.832  13.709  0.0334 -0.6862  0.4845
15664TIP3    H168483   3.889   0.863  13.798 -0.3059  0.0877  0.2853
15664TIP3    H268484   3.959   0.819  13.672  0.1787 -0.4966  0.7521
15665TIP3   OH268485   1.118   3.677   4.319 -0.3326  0.4546 -0.3982
15665TIP3    H168486   1.133   3.669   4.225  0.4521 -0.9337 -0.1906
15665TIP3    H268487   1.201   3.649   4.358 -1.1137 -0.3419  0.7270
15666TIP3   OH268488   2.568   4.048   5.420 -0.1113 -0.3383 -0.0755
15666TIP3    H168489   2.546   4.098   5.342 -0.0472 -1.2254 -0.6800
15666TIP3    H268490   2.664   4.044   5.420 -0.1075 -0.2273  0.1135
15667TIP3   OH268491   2.643   2.555   6.494  0.0519  0.3296 -0.3727
15667TIP3    H168492   2.569   2.601   6.454  0.2588  1.0187  0.0181
15667TIP3    H268493   2.695   2.625   6.535  0.3437 -0.2580  0.2803
15668TIP3   OH268494   2.853   5.027  16.734  0.2170 -0.0946 -0.1049
15668TIP3    H168495   2.941   5.050  16.766 -0.2491  1.5289  0.0844
15668TIP3    H268496   2.822   4.960  16.794  1.2222 -0.5017 -0.0182
15669TIP3   OH268497   1.038   2.344   1.473  0.7898  0.0449 -0.0133
15669TIP3    H168498   1.035   2.291   1.394  0.8312  0.7774 -0.5175
15669TIP3    H268499   1.131   2.364   1.486  0.8471 -0.5557  0.5564
15670TIP3   OH268500   5.657   4.619  16.184 -0.1021 -0.3337  0.1781
15670TIP3    H168501   5.696   4.687  16.238  0.2125 -0.0715 -0.3707
15670TIP3    H268502   5.566   4.615  16.211  0.4893 -1.6538  2.2014
15671TIP3   OH268503   3.957   2.672  11.811  0.4888  0.2255  0.5535
15671TIP3    H168504   3.958   2.629  11.726  0.4327  0.0598  0.6376
15671TIP3    H268505   4.014   2.748  11.800  0.1301  0.4492  0.2398
15672TIP3   OH268506   4.888   3.468   1.929  0.1795  0.3503 -0.5401
15672TIP3    H168507   4.931   3.415   1.862 -0.1606  0.0111 -0.4934
15672TIP3    H268508   4.826   3.523   1.880  0.1238  0.2944 -0.5327
15673TIP3   OH268509   4.056   3.316   1.575 -0.3106 -0.0196  0.7391
15673TIP3    H168510   4.131   3.269   1.539  0.0882  1.1692 -0.0510
15673TIP3    H268511   3.982   3.289   1.520 -0.3816 -0.8739  1.2545
15674TIP3   OH268512   5.322   3.447   3.150  0.2585 -0.3847  0.1314
15674TIP3    H168513   5.296   3.359   3.179  0.9174 -0.2316  1.2482
15674TIP3    H268514   5.386   3.475   3.215  0.2799  0.8077 -0.3876
15675TIP3   OH268515   1.442   3.723  12.530 -0.0804 -0.0583 -0.2598
15675TIP3    H168516   1.361   3.770  12.508  0.3874  0.9741  0.1513
15675TIP3    H268517   1.482   3.703  12.446 -0.0587  0.7169 -0.4443
15676TIP3   OH268518   2.798   0.455  16.744 -0.3613 -0.3511 -0.1015
15676TIP3    H168519   2.851   0.482  16.819  0.6389 -0.0492 -0.9073
15676TIP3    H268520   2.849   0.385  16.702 -0.7820 -0.3274 -0.6684
15677TIP3   OH268521   4.013   5.174  10.058  0.2920  0.2360  0.1561
15677TIP3    H168522   3.959   5.109  10.103  0.8831  0.6960  1.5516
15677TIP3    H268523   4.096   5.173  10.105  1.4111 -0.1770 -1.7107
15678TIP3   OH268524   6.848   2.774  12.454 -0.1087 -0.7301  0.2988
15678TIP3    H168525   6.864   2.818  12.537  2.0847 -0.8020 -0.0440
15678TIP3    H268526   6.833   2.844  12.391  1.0268 -0.5591  0.2141
15679TIP3   OH268527   4.027   4.068   0.374  0.4154  0.6046 -0.1573
15679TIP3    H168528   4.054   4.033   0.289 -0.8502  1.1783 -0.8203
15679TIP3    H268529   3.993   4.155   0.355 -0.3563  0.5414  0.8647
15680TIP3   OH268530   2.192   3.732   1.602 -0.3378 -0.0188  0.3399
15680TIP3    H168531   2.215   3.791   1.673  1.8655 -0.6415  0.2052
15680TIP3    H268532   2.115   3.684   1.634  1.4845 -1.3894  2.9925
15681TIP3   OH268533   2.040   3.540   1.260 -0.1809 -0.2303  0.4760
15681TIP3    H168534   2.085   3.473   1.208  2.0965 -0.0537  2.0753
15681TIP3    H268535   2.076   3.623   1.230  2.2202 -0.1872  3.0964
15682TIP3   OH268536   3.594   6.322  15.454  0.2442 -0.0469 -0.1244
15682TIP3    H168537   3.678   6.277  15.461  0.3378 -0.2292 -2.0440
15682TIP3    H268538   3.539   6.263  15.402 -0.8169  0.4357  0.4116
15683TIP3   OH268539   1.992   6.829  14.159 -0.5967 -0.1520 -0.1840
15683TIP3    H168540   1.922   6.850  14.097  0.2816 -0.9285 -1.4937
15683TIP3    H268541   2.037   6.754  14.120  0.0512 -0.6162  1.3670
15684TIP3   OH268542   0.760   4.290  16.867 -0.0086  0.2006 -0.1560
15684TIP3    H168543   0.773   4.250  16.953  2.2308  2.7068  0.8197
15684TIP3    H268544   0.715   4.373  16.885  0.5930  0.8207 -1.3677
15685TIP3   OH268545   4.886   2.485  13.915  0.2993  0.4168  0.4461
15685TIP3    H168546   4.842   2.523  13.991 -1.6828 -0.7417 -0.0485
15685TIP3    H268547   4.920   2.401  13.947 -0.0579  0.1777  0.2014
15686TIP3   OH268548   4.390   5.381  12.486  0.3672 -0.1035 -0.0443
15686TIP3    H168549   4.379   5.314  12.555  0.5591 -1.0428 -0.9009
15686TIP3    H268550   4.465   5.350  12.435 -1.3236 -0.8381 -2.2353
15687TIP3   OH268551   5.880   3.203   4.697  0.1118 -0.0602 -0.1614
15687TIP3    H168552   5.882   3.198   4.793 -1.2859 -0.1741 -0.1241
15687TIP3    H268553   5.788   3.220   4.676  0.4556  0.2398 -1.4733
15688TIP3   OH268554   5.004   3.206  16.748  0.3162 -0.5465 -0.2954
15688TIP3    H168555   5.026   3.137  16.810  0.0496 -0.2573  0.1253
15688TIP3    H268556   5.031   3.172  16.663 -0.1176 -1.3094 -0.1335
15689TIP3   OH268557   3.617   5.247   2.832  0.0577  0.2505 -0.4443
15689TIP3    H168558   3.693   5.193   2.813  0.9613  1.1721  0.4611
15689TIP3    H268559   3.646   5.337   2.817 -0.6985  0.6505  0.3511
15690TIP3   OH268560   6.881   0.561  16.697 -0.1368 -0.1979  0.3868
15690TIP3    H168561   6.933   0.604  16.629 -0.2452  0.9096  0.9755
15690TIP3    H268562   6.831   0.494  16.650  1.0439 -0.5939 -0.3457
15691TIP3   OH268563   1.692   4.692  12.686 -0.5803 -0.5212 -0.0578
15691TIP3    H168564   1.626   4.627  12.711 -0.0167 -0.9960  0.2271
15691TIP3    H268565   1.775   4.650  12.707 -0.2241  0.6746  1.0769
15692TIP3   OH268566   1.941   6.815  14.551  0.1223 -0.1308 -0.3279
15692TIP3    H168567   2.011   6.862  14.505 -0.9317  1.5514 -0.2822
15692TIP3    H268568   1.899   6.762  14.484  0.9708 -0.6335 -0.4897
15693TIP3   OH268569   0.683   1.103  15.443 -0.3235 -0.1229  0.4886
15693TIP3    H168570   0.765   1.117  15.396  0.7923 -0.1303  2.3398
15693TIP3    H268571   0.616   1.103  15.375  1.0123  1.5348 -0.9126
15694TIP3   OH268572   0.948   2.320   5.319 -0.1261  0.2999  0.0331
15694TIP3    H168573   0.928   2.267   5.395  1.2850  0.2390  0.3876
15694TIP3    H268574   0.993   2.261   5.259 -0.4457  0.5650 -0.4748
15695TIP3   OH268575   4.684   2.291  15.670  0.2060  0.1139  0.1683
15695TIP3    H168576   4.599   2.317  15.705 -0.2319  0.6220 -1.2121
15695TIP3    H268577   4.725   2.242  15.742 -0.4519  1.4743  1.5363
15696TIP3   OH268578   2.801   5.849  10.869  0.4793  0.4858 -0.6799
15696TIP3    H168579   2.761   5.918  10.923 -0.0979 -0.9036  0.7685
15696TIP3    H268580   2.742   5.840  10.794 -1.5503 -0.8922  0.9653
15697TIP3   OH268581   6.829   0.440  11.182 -0.4142 -0.3739  0.1956
15697TIP3    H168582   6.881   0.520  11.189 -1.2952  0.1525  1.0321
15697TIP3    H268583   6.826   0.421  11.089  0.0113  0.4327  0.0056
15698TIP3   OH268584   1.345   3.461  15.436  0.3768 -0.2150 -0.6606
15698TIP3    H168585   1.261   3.464  15.391 -0.1401  1.3975  0.3532
15698TIP3    H268586   1.408   3.437  15.368 -0.7174 -0.2717 -1.6772
15699TIP3   OH268587   1.764   3.595   5.391  0.8135 -0.0268 -0.4558
15699TIP3    H168588   1.690   3.630   5.441  1.6643  1.0762  0.0964
15699TIP3    H268589   1.767   3.649   5.312  0.5632 -0.5744 -0.8393
15700TIP3   OH268590   3.933   3.386   2.133 -0.0326 -0.1036  0.3381
15700TIP3    H168591   3.954   3.304   2.087  2.5277 -0.8405  2.6036
15700TIP3    H268592   3.982   3.453   2.085  0.1340 -0.3513  0.1550
15701TIP3   OH268593   4.184   3.076   0.552  0.3756  0.1595  0.2712
15701TIP3    H168594   4.129   3.005   0.518 -1.6789  1.1685  1.3092
15701TIP3    H268595   4.238   3.033   0.619  0.5112 -0.7583 -0.4002
15702TIP3   OH268596   6.553   4.105  13.973 -0.4418  0.2078  0.0052
15702TIP3    H168597   6.486   4.174  13.982  1.0536  1.6547  0.5775
15702TIP3    H268598   6.552   4.060  14.057 -0.3347  0.5770  0.2066
15703TIP3   OH268599   0.631   6.665  15.310  0.1580  0.1879  0.0601
15703TIP3    H168600   0.593   6.695  15.227  0.0530  0.4134  0.1879
15703TIP3    H268601   0.724   6.650  15.289 -0.2144 -1.4964 -0.5480
15704TIP3   OH268602   2.848   0.303   2.662  0.0000 -0.2067 -0.4345
15704TIP3    H168603   2.907   0.379   2.658  0.5102 -0.5927 -0.3369
15704TIP3    H268604   2.879   0.245   2.593  1.1801 -1.4250  1.0363
15705TIP3   OH268605   6.828   5.451  16.519  0.1851  0.3294 -0.4172
15705TIP3    H168606   6.748   5.504  16.520 -0.2418 -0.2934 -0.8932
15705TIP3    H268607   6.817   5.392  16.444  0.2613 -1.0248  0.6054
15706TIP3   OH268608   1.715   6.290   3.627  0.1891 -0.1814 -0.1469
15706TIP3    H168609   1.713   6.337   3.544 -1.6518 -0.0377 -0.0536
15706TIP3    H268610   1.772   6.343   3.683 -0.4424  1.0080 -0.5941
15707TIP3   OH268611   3.009   2.602  15.194 -0.0942  0.0634  0.4135
15707TIP3    H168612   3.042   2.562  15.113  0.5931  0.4554  0.4957
15707TIP3    H268613   3.079   2.660  15.222 -0.5783  0.3811  0.9746
15708TIP3   OH268614   5.168   2.478  16.085  0.0161 -0.1863 -0.6710
15708TIP3    H168615   5.158   2.400  16.139  0.0676  0.0952 -0.2562
15708TIP3    H268616   5.079   2.504  16.063 -0.1353  1.1101  1.2934
15709TIP3   OH268617   6.500   5.511   5.136 -0.0881  0.4171 -0.2468
15709TIP3    H168618   6.564   5.505   5.066  0.0394  3.0655 -0.4481
15709TIP3    H268619   6.533   5.581   5.193 -0.2786 -1.4800  2.4086
15710TIP3   OH268620   3.252   4.373  12.106  0.2681 -0.1643  0.5356
15710TIP3    H168621   3.182   4.413  12.054  0.0012  0.9553  1.7036
15710TIP3    H268622   3.294   4.311  12.046 -0.1362  0.9462 -0.9527
15711TIP3   OH268623   4.348   6.697   2.589 -0.0084 -0.2813 -0.4476
15711TIP3    H168624   4.440   6.704   2.613  0.0533  1.4816 -1.0725
15711TIP3    H268625   4.342   6.615   2.540  0.7990 -1.4345  1.2638
15712TIP3   OH268626   0.056   1.409   2.353  0.0426 -0.0630 -0.0199
15712TIP3    H168627  -0.034   1.388   2.327 -0.1118 -0.3313  0.7266
15712TIP3    H268628   0.057   1.400   2.448 -0.2218  3.8653  0.5511
15713TIP3   OH268629   6.578   6.679   0.953 -0.0520 -0.5827  0.5524
15713TIP3    H168630   6.599   6.586   0.942  3.2144 -0.1107  1.5425
15713TIP3    H268631   6.619   6.722   0.878  0.3451  0.2217  1.2144
15714TIP3   OH268632   4.539   4.883   0.444 -0.2739 -0.1140 -0.3478
15714TIP3    H168633   4.568   4.880   0.535 -1.1478 -0.2844 -0.0573
15714TIP3    H268634   4.532   4.791   0.418 -1.0839 -0.0957 -0.2206
15715TIP3   OH268635   2.248   4.254  16.672 -0.7680 -0.7657  0.5323
15715TIP3    H168636   2.332   4.237  16.631 -0.8934  0.3722 -0.2616
15715TIP3    H268637   2.256   4.218  16.760  0.4728 -0.8354  0.4050
15716TIP3   OH268638   1.104   5.802  15.653  0.8482 -0.1277  0.1730
15716TIP3    H168639   1.025   5.849  15.677  0.7409 -0.4986  0.5500
15716TIP3    H268640   1.107   5.727  15.712  1.5661 -0.0336  0.2761
15717TIP3   OH268641   1.838   0.794   3.543  0.3713  0.4987 -0.5344
15717TIP3    H168642   1.932   0.774   3.553  1.2424  3.7593 -1.0567
15717TIP3    H268643   1.817   0.766   3.454  0.8508 -0.2667 -0.4126
15718TIP3   OH268644   6.745   5.502   1.783 -0.2707 -0.1572 -0.3748
15718TIP3    H168645   6.754   5.493   1.878 -2.6484 -0.0492 -0.0734
15718TIP3    H268646   6.742   5.412   1.751 -1.5836 -0.2616 -0.0435
15719TIP3   OH268647   2.838   1.809   1.525 -0.2847  0.0728  0.5296
15719TIP3    H168648   2.856   1.808   1.619  1.1532  0.5158  0.2849
15719TIP3    H268649   2.799   1.895   1.508  3.8787  2.1041  0.0421
15720TIP3   OH268650   4.176   3.536   0.920  0.3135 -0.8816 -0.1156
15720TIP3    H168651   4.263   3.506   0.946  0.4749  0.6107  1.2554
15720TIP3    H268652   4.173   3.627   0.950 -0.9277 -0.2105 -2.1001
15721TIP3   OH268653   1.099   4.934   5.414  0.1639 -0.4912 -0.4257
15721TIP3    H168654   1.068   4.985   5.339 -0.1743  1.0037  0.6776
15721TIP3    H268655   1.194   4.943   5.411  0.0562  2.3856  1.1022
15722TIP3   OH268656   3.503   0.538   1.172  0.1893 -1.1242 -0.1653
15722TIP3    H168657   3.448   0.567   1.099  1.7681  0.7206 -0.6838
15722TIP3    H268658   3.458   0.460   1.206 -2.5668  0.1010 -0.7298
15723TIP3   OH268659   2.504   1.340  14.260  0.0089 -0.1169 -0.1309
15723TIP3    H168660   2.585   1.289  14.263  2.4969  3.3119 -1.4771
15723TIP3    H268661   2.441   1.285  14.214  2.4329 -1.9901 -1.4072
15724TIP3   OH268662   2.632   4.751   2.295 -0.3560  0.4200 -0.1365
15724TIP3    H168663   2.677   4.829   2.262  0.1630  0.3366  0.3611
15724TIP3    H268664   2.624   4.694   2.218  2.7518 -0.6864  0.2397
15725TIP3   OH268665   3.557   0.339   3.596  0.1312 -0.6162  0.4362
15725TIP3    H168666   3.551   0.430   3.568  0.4451 -0.9415 -0.7367
15725TIP3    H268667   3.572   0.290   3.515 -0.6920 -1.7845  0.9695
15726TIP3   OH268668   4.228   0.766   4.613  0.0504 -0.0521 -0.3973
15726TIP3    H168669   4.310   0.748   4.658  0.7537  0.7260 -1.3229
15726TIP3    H268670   4.231   0.710   4.536  0.0481  0.4827 -0.7943
15727TIP3   OH268671   2.731   6.741  12.334  0.6838  0.1366 -0.1252
15727TIP3    H168672   2.719   6.778  12.247 -0.6838  0.6841  0.2609
15727TIP3    H268673   2.824   6.751  12.353  0.6805  1.6678 -0.8051
15728TIP3   OH268674   3.788   6.812   5.436  0.5512  0.1229 -0.1310
15728TIP3    H168675   3.724   6.791   5.505  1.6415 -0.3154  0.7939
15728TIP3    H268676   3.828   6.893   5.465 -0.8546  1.4457 -1.6790
15729TIP3   OH268677   6.255   3.554  13.756  0.2483  0.3799  0.0431
15729TIP3    H168678   6.351   3.552  13.758  0.2671 -0.0971 -1.0503
15729TIP3    H268679   6.230   3.473  13.712 -0.6026  1.2457 -1.1224
15730TIP3   OH268680   3.379   3.762  14.988 -0.2258  0.3057 -0.0340
15730TIP3    H168681   3.449   3.717  15.035 -0.3235 -0.4776 -0.6325
15730TIP3    H268682   3.320   3.794  15.058  0.0807 -0.0959  0.4119
15731TIP3   OH268683   4.322   5.085  14.585  0.1983  0.0454 -0.0827
15731TIP3    H168684   4.396   5.037  14.550 -0.5749 -1.1701 -0.0979
15731TIP3    H268685   4.278   5.121  14.509  0.6828  0.6592 -0.0822
15732TIP3   OH268686   4.924   5.114  16.007  0.2549 -0.0650 -0.3490
15732TIP3    H168687   4.882   5.198  15.990  0.2152 -0.1146 -0.5009
15732TIP3    H268688   4.930   5.109  16.102  1.4613  0.7024 -0.3675
15733TIP3   OH268689   4.731   5.572  10.702 -0.1738  0.1999 -0.3365
15733TIP3    H168690   4.704   5.655  10.743  0.1306  0.7508 -1.2234
15733TIP3    H268691   4.821   5.587  10.676  0.7683 -1.3093  1.7805
15734TIP3   OH268692   2.965   1.939  11.104  0.4671 -0.3309 -0.4547
15734TIP3    H168693   3.033   1.995  11.143 -0.5123  0.1907  0.5321
15734TIP3    H268694   2.931   1.990  11.031  1.2945 -0.7058 -1.1255
15735TIP3   OH268695   0.201   5.593   4.851  0.3706  0.0199 -0.0746
15735TIP3    H168696   0.153   5.619   4.930 -0.1921  0.4985 -0.5634
15735TIP3    H268697   0.134   5.554   4.795  0.7423 -0.1797 -0.3838
15736TIP3   OH268698   2.684   3.302  15.355  0.0672  0.0057  0.4493
15736TIP3    H168699   2.686   3.309  15.450  3.5627  0.9322  0.4451
15736TIP3    H268700   2.764   3.255  15.333 -0.0991  0.7867 -2.0940
15737TIP3   OH268701   3.974   2.209   5.604 -0.4715 -0.2679 -0.0419
15737TIP3    H168702   4.002   2.207   5.696 -2.4162 -0.6068  0.5798
15737TIP3    H268703   4.044   2.256   5.559  1.4270 -1.6796  1.2769
15738TIP3   OH268704   2.149   0.155   3.427  0.6027  0.4142  0.4837
15738TIP3    H168705   2.148   0.060   3.412 -1.5472  0.4724 -0.0909
15738TIP3    H268706   2.215   0.188   3.367  0.3752 -0.5850 -0.3432
15739TIP3   OH268707   2.568   4.718  13.444  0.1324  0.2673 -0.1783
15739TIP3    H168708   2.598   4.710  13.535 -1.1227 -0.3176  0.2089
15739TIP3    H268709   2.592   4.635  13.403  0.1799  0.3005 -0.2175
15740TIP3   OH268710   4.041   2.528  12.318  0.3283 -0.0896 -0.1689
15740TIP3    H168711   3.948   2.551  12.319  0.8091  2.0620  0.8610
15740TIP3    H268712   4.060   2.507  12.226 -1.1217 -0.4608 -0.4078
15741TIP3   OH268713   5.946   4.224  13.266 -0.1377  0.3381 -0.1383
15741TIP3    H168714   5.951   4.319  13.257 -1.9251  0.4668 -0.1930
15741TIP3    H268715   5.930   4.210  13.360  0.0404  0.1030 -0.1426
15742TIP3   OH268716   1.953   6.012   2.206  0.2173 -0.6975 -0.2628
15742TIP3    H168717   1.880   5.997   2.266  0.4544 -0.9461 -0.0329
15742TIP3    H268718   2.031   6.002   2.260  0.4333 -0.8516 -0.5967
15743TIP3   OH268719   5.238   1.244  15.689  0.1593 -0.0879  0.5947
15743TIP3    H168720   5.160   1.240  15.745 -0.6347  1.2140 -0.3566
15743TIP3    H268721   5.312   1.240  15.750 -0.6486 -0.4271  1.5810
15744TIP3   OH268722   0.008   3.859   4.358  0.2176  0.2094 -0.2367
15744TIP3    H168723   0.024   3.922   4.288  1.5506  0.9406  0.6874
15744TIP3    H268724   0.061   3.783   4.335  0.9666  0.6036  0.1671
15745TIP3   OH268725   4.303   5.684  14.264  0.4916  0.2880 -0.0954
15745TIP3    H168726   4.339   5.752  14.208  0.1002  1.8165  1.4122
15745TIP3    H268727   4.227   5.726  14.306 -0.7976 -1.6321 -0.3870
15746TIP3   OH268728   1.199   3.310   3.213 -0.0823 -0.4896  0.2629
15746TIP3    H168729   1.188   3.217   3.194 -0.0918 -0.8663  1.9809
15746TIP3    H268730   1.292   3.319   3.236 -0.4213 -0.4197  1.7122
15747TIP3   OH268731   4.872   3.831  14.594  0.1168  0.0416  0.3946
15747TIP3    H168732   4.878   3.829  14.690  2.3805  0.2022  0.3179
15747TIP3    H268733   4.867   3.925  14.573 -2.2153 -0.0429  0.3799
15748TIP3   OH268734   2.598   1.205   4.012  0.1391 -0.0682  0.0503
15748TIP3    H168735   2.534   1.272   3.986  0.4827  0.3085  0.1663
15748TIP3    H268736   2.583   1.132   3.952 -0.8964 -0.2739  0.5386
15749TIP3   OH268737   6.832   0.487   4.006  0.0633  0.4592  0.0611
15749TIP3    H168738   6.759   0.506   3.946  0.5881  0.0418 -0.7293
15749TIP3    H268739   6.792   0.486   4.093 -1.1624 -1.0964 -0.4683
15750TIP3   OH268740   5.129   2.246  16.230  1.1110 -0.0443 -0.0231
15750TIP3    H168741   5.078   2.221  16.306 -0.9740 -1.6128 -1.8336
15750TIP3    H268742   5.220   2.230  16.256  0.5434  0.1957  2.3442
15751TIP3   OH268743   1.635   4.290   3.201 -0.7552  0.0914  0.4699
15751TIP3    H168744   1.581   4.316   3.127 -0.2939  0.6395  0.3162
15751TIP3    H268745   1.584   4.314   3.278 -0.8779  0.2767  0.3304
15752TIP3   OH268746   6.732   5.971   4.554 -0.3938 -0.0533 -0.2469
15752TIP3    H168747   6.662   5.905   4.545 -1.3567  0.5242  2.1755
15752TIP3    H268748   6.709   6.039   4.491 -0.0955 -1.4167 -1.8823
15753TIP3   OH268749   6.780   4.838  12.230 -0.0704 -0.0013 -0.4092
15753TIP3    H168750   6.796   4.928  12.201 -2.1363  0.2667 -0.8938
15753TIP3    H268751   6.863   4.809  12.268  0.9602  1.7179 -1.2487
15754TIP3   OH268752   6.229   6.560  14.407  0.3041 -0.1988 -0.7528
15754TIP3    H168753   6.139   6.530  14.395  0.4873 -0.9244 -0.3990
15754TIP3    H268754   6.236   6.639  14.354 -0.0044 -1.1558 -2.2628
15755TIP3   OH268755   1.899   2.687  15.339 -0.5488 -0.3381  0.2546
15755TIP3    H168756   1.993   2.693  15.321 -0.3938 -1.7590  0.4198
15755TIP3    H268757   1.894   2.670  15.433 -1.0795  1.4379  0.5790
15756TIP3   OH268758   5.060   1.810   0.249 -0.3463  0.2949 -0.2376
15756TIP3    H168759   5.122   1.767   0.190  0.0394  1.7308 -0.9374
15756TIP3    H268760   5.105   1.890   0.276 -0.3877 -0.4454  2.2865
15757TIP3   OH268761   4.162   3.498  13.853  0.1723  0.1567  0.5784
15757TIP3    H168762   4.158   3.531  13.763 -1.2715 -3.0668 -0.7187
15757TIP3    H268763   4.252   3.516  13.882  1.6251 -1.1559 -2.6296
15758TIP3   OH268764   1.362   2.381  14.703 -0.2802 -0.2822 -0.8089
15758TIP3    H168765   1.281   2.376  14.754  0.8758 -0.2909  1.1156
15758TIP3    H268766   1.391   2.290  14.696  0.2824 -0.1537 -0.2492
15759TIP3   OH268767   4.065   1.221  14.980 -0.2305 -0.0088  0.2037
15759TIP3    H168768   3.970   1.231  14.973 -0.2349 -0.5219 -0.7171
15759TIP3    H268769   4.078   1.176  15.063 -0.9190 -1.1525 -0.2622
15760TIP3   OH268770   3.744   5.845  15.545 -0.0445 -0.1956 -0.1492
15760TIP3    H168771   3.771   5.856  15.636 -0.0671  0.1412 -0.1830
15760TIP3    H268772   3.716   5.753  15.540 -0.7395 -0.0243  0.3740
15761TIP3   OH268773   6.023   3.639   3.276 -0.1905  0.1916 -0.1720
15761TIP3    H168774   5.967   3.565   3.252  0.9621 -0.4178 -1.0671
15761TIP3    H268775   6.035   3.631   3.370 -0.1590 -0.7093 -0.2419
15762TIP3   OH268776   1.274   4.065  15.959 -0.3837 -0.2425 -0.2681
15762TIP3    H168777   1.268   4.129  15.888 -1.6764  0.0381  0.0755
15762TIP3    H268778   1.186   4.031  15.969 -0.4351  0.3454  1.7609
15763TIP3   OH268779   2.634   0.229   4.025 -0.1203 -0.0477  0.1352
15763TIP3    H168780   2.636   0.141   3.986  1.1047  0.6779 -1.6033
15763TIP3    H268781   2.577   0.280   3.966 -0.8657  0.3306  1.1536
15764TIP3   OH268782   2.206   0.773   3.819  0.2840  0.5077  0.4002
15764TIP3    H168783   2.133   0.807   3.768  0.9977  0.1926 -0.8636
15764TIP3    H268784   2.259   0.850   3.840 -0.7003  0.8355  1.8802
15765TIP3   OH268785   5.644   1.614  16.544 -0.5943 -0.2658  0.2412
15765TIP3    H168786   5.625   1.521  16.556 -1.5112 -0.1478 -0.2093
15765TIP3    H268787   5.723   1.630  16.597 -1.2374 -0.9893  1.4603
15766TIP3   OH268788   2.075   2.907   2.453  0.0744 -0.1751  0.0110
15766TIP3    H168789   2.162   2.928   2.419 -0.4996 -1.2979 -2.3393
15766TIP3    H268790   2.061   2.816   2.428 -0.3071 -1.3195  3.7225
15767TIP3   OH268791   3.767   6.091  15.144  0.3665 -0.0478  0.1310
15767TIP3    H168792   3.838   6.148  15.174  0.6930  0.9139 -2.2430
15767TIP3    H268793   3.773   6.014  15.201  1.8809  0.9595  1.4412
15768TIP3   OH268794   6.054   1.183  11.213  0.5102  0.2007  0.5592
15768TIP3    H168795   5.969   1.220  11.186  0.4419  0.4401  1.1035
15768TIP3    H268796   6.032   1.095  11.246  0.4199  0.4128  1.0698
15769TIP3   OH268797   3.698   3.520  13.327  0.3013  0.2643  0.2322
15769TIP3    H168798   3.608   3.487  13.320  0.2715  0.1783  0.9619
15769TIP3    H268799   3.721   3.508  13.419  0.2152  2.4191  0.6013
15770TIP3   OH268800   6.098   5.081  15.702 -0.1525  0.1973  0.4634
15770TIP3    H168801   6.013   5.073  15.746 -0.5867 -0.0692 -0.4126
15770TIP3    H268802   6.134   4.993  15.703 -0.3599  0.1069 -0.1082
15771TIP3   OH268803   2.435   6.222  11.664  1.0901  0.3444 -0.2068
15771TIP3    H168804   2.492   6.197  11.737  1.0836  1.3114  0.1394
15771TIP3    H268805   2.493   6.226  11.588  1.0484 -0.9302 -0.3288
15772TIP3   OH268806   2.313   4.647  15.007 -0.7986  0.7290 -0.4231
15772TIP3    H168807   2.291   4.737  15.031  0.7553  1.3461 -1.1725
15772TIP3    H268808   2.408   4.649  14.991 -0.4372 -1.3782  1.0114
15773TIP3   OH268809   2.543   6.412  16.064 -0.5019 -0.0408  0.1826
15773TIP3    H168810   2.507   6.324  16.052 -1.1007  0.0582  1.0980
15773TIP3    H268811   2.506   6.463  15.992 -1.0561 -0.2860  0.2822
15774TIP3   OH268812   2.755   6.339   2.229 -0.4489 -0.1054  0.0125
15774TIP3    H168813   2.679   6.339   2.171 -1.6123 -0.2181  1.4522
15774TIP3    H268814   2.746   6.421   2.279 -1.6878 -1.6909  2.6508
15775TIP3   OH268815   2.338   4.349   2.547  0.3917  0.4470  0.0144
15775TIP3    H168816   2.308   4.382   2.632  1.7019  2.1280 -0.1296
15775TIP3    H268817   2.267   4.292   2.518 -0.8489  1.1684  1.4566
15776TIP3   OH268818   1.591   0.756  14.596 -0.1671  0.5777 -0.1639
15776TIP3    H168819   1.652   0.709  14.539 -1.5201 -1.4582 -0.0809
15776TIP3    H268820   1.506   0.747  14.552 -1.1388 -0.4992  1.7897
15777TIP3   OH268821   4.348   2.297   3.856 -0.1660  0.6058  0.4439
15777TIP3    H168822   4.367   2.204   3.846  0.9845  0.5300  2.7262
15777TIP3    H268823   4.299   2.320   3.777 -1.7875 -2.2649  0.4661
15778TIP3   OH268824   2.353   3.393   3.983 -0.3902  0.0216  0.5538
15778TIP3    H168825   2.443   3.406   4.010 -0.2084 -0.9612  0.4706
15778TIP3    H268826   2.324   3.479   3.952  0.4653  0.3775  0.7160
15779TIP3   OH268827   4.936   2.310  11.439  0.2290 -0.5683  0.1125
15779TIP3    H168828   4.857   2.360  11.459  0.5639  0.6453 -1.3793
15779TIP3    H268829   5.006   2.356  11.485  0.1613 -1.3180  0.9843
15780TIP3   OH268830   3.018   5.992   0.314 -0.3227 -0.1725  0.4837
15780TIP3    H168831   3.080   6.058   0.347  1.2979 -1.6489  0.5491
15780TIP3    H268832   2.934   6.016   0.354  1.0197 -0.4517  3.8376
15781TIP3   OH268833   5.814   5.942   2.090  0.6003 -0.0361  0.2699
15781TIP3    H168834   5.729   5.961   2.050 -0.5499 -0.9830  2.1534
15781TIP3    H268835   5.850   5.872   2.036  0.0797  0.1707 -0.3742
15782TIP3   OH268836   3.449   3.296   3.293 -0.2912  0.6482  0.2494
15782TIP3    H168837   3.501   3.366   3.255  0.4646  1.1856  2.1417
15782TIP3    H268838   3.508   3.221   3.299 -0.1850  0.7840  0.9814
15783TIP3   OH268839   5.998   2.608   5.776  0.4732 -0.3642 -0.3182
15783TIP3    H168840   5.946   2.687   5.758  0.5128  0.4755  2.6515
15783TIP3    H268841   6.025   2.577   5.690 -0.6669  2.1050 -1.6861
15784TIP3   OH268842   5.589   3.687  11.052 -0.3060 -0.2502 -0.1690
15784TIP3    H168843   5.540   3.682  10.969  1.3153 -0.5390 -1.1582
15784TIP3    H268844   5.570   3.603  11.095 -1.6402  0.1456  0.0651
15785TIP3   OH268845   1.213   3.985   2.875  0.0712  0.0419  0.6334
15785TIP3    H168846   1.214   3.948   2.963 -0.6103 -1.2847  0.1147
15785TIP3    H268847   1.231   3.910   2.817 -1.9875  0.3512 -0.5016
15786TIP3   OH268848   0.592   4.018  11.934  0.2762  0.2028 -0.6501
15786TIP3    H168849   0.672   3.974  11.964  1.0169  2.0072  0.2031
15786TIP3    H268850   0.557   4.060  12.012 -2.1326 -1.3357 -0.7894
15787TIP3   OH268851   1.814   0.951   2.685  0.3282 -0.5958  0.5067
15787TIP3    H168852   1.786   1.037   2.715 -0.4621 -0.8452  0.5077
15787TIP3    H268853   1.850   0.966   2.598 -1.7096 -0.5431 -0.3774
15788TIP3   OH268854   1.262   0.266   2.250 -1.0580 -0.3180  0.6688
15788TIP3    H168855   1.287   0.177   2.226  0.1846  0.4259 -0.9593
15788TIP3    H268856   1.246   0.262   2.344 -0.4452 -2.1202  0.7315
15789TIP3   OH268857   2.150   4.569   3.526 -1.1511 -0.3796  0.0121
15789TIP3    H168858   2.118   4.517   3.453 -1.2314  1.0121 -0.9912
15789TIP3    H268859   2.080   4.632   3.543  0.3052  1.7241 -1.2120
15790TIP3   OH268860   0.494   3.419   3.131 -0.0383 -0.0307 -0.2151
15790TIP3    H168861   0.544   3.496   3.156 -1.1627  0.3092  1.1543
15790TIP3    H268862   0.464   3.436   3.042 -0.9649  1.5322  0.3516
15791TIP3   OH268863   4.819   4.094  15.989 -0.0030  0.1238  0.0249
15791TIP3    H168864   4.727   4.116  16.001  0.4817  3.1064 -1.0485
15791TIP3    H268865   4.834   4.021  16.049 -2.9050 -0.0967  0.6082
15792TIP3   OH268866   0.264   4.449  12.135  0.0267  0.1850 -0.2900
15792TIP3    H168867   0.201   4.521  12.129 -0.4025 -0.1872 -0.3009
15792TIP3    H268868   0.297   4.439  12.046 -0.2609  0.0571 -0.3815
15793TIP3   OH268869   6.132   3.422   6.508 -0.3763 -0.5169 -0.3398
15793TIP3    H168870   6.149   3.456   6.595 -1.1625  0.8352 -0.6830
15793TIP3    H268871   6.142   3.498   6.450 -1.9865 -0.8760 -1.1560
15794TIP3   OH268872   0.639   0.170  11.994  0.1322 -0.7281 -0.2483
15794TIP3    H168873   0.707   0.231  11.965  0.3360 -1.2869 -0.9547
15794TIP3    H268874   0.684   0.109  12.052  0.2206 -1.0330 -0.6311
15795TIP3   OH268875   1.385   4.678  11.123 -0.2826 -0.5396  0.6553
15795TIP3    H168876   1.405   4.750  11.063 -1.8108 -0.1901  0.5213
15795TIP3    H268877   1.406   4.713  11.210 -0.0180 -0.3033  0.4950
15796TIP3   OH268878   3.748   0.971  14.181  0.5402  0.3171 -0.0360
15796TIP3    H168879   3.801   1.049  14.194  0.1584  0.3372  1.5534
15796TIP3    H268880   3.659   1.004  14.166  0.6249  0.2154 -0.8380
15797TIP3   OH268881   2.949   0.362  15.663 -0.0999  0.1609  0.9445
15797TIP3    H168882   2.862   0.392  15.688  0.3148  0.6816  1.7994
15797TIP3    H268883   3.007   0.433  15.691  0.5153  0.2206 -0.3958
15798TIP3   OH268884   1.246   1.726  12.273  0.0356  0.2091  0.8245
15798TIP3    H168885   1.256   1.743  12.367  2.3195 -0.8530  0.8422
15798TIP3    H268886   1.164   1.678  12.266  0.6268 -1.1555  2.5281
15799TIP3   OH268887   5.570   2.141  13.641 -0.2443  0.3078 -0.1516
15799TIP3    H168888   5.663   2.120  13.628 -0.3374 -0.9444  1.0101
15799TIP3    H268889   5.568   2.188  13.725 -0.8777 -1.7198  1.0328
15800TIP3   OH268890   0.990   1.953  10.456  0.3105  0.1212  0.1906
15800TIP3    H168891   0.903   1.945  10.495 -0.3368 -0.4402 -1.2712
15800TIP3    H268892   0.981   2.022  10.391  2.2581  3.5369  3.1635
15801TIP3   OH268893   3.140   1.906  14.043  0.1422 -0.2599 -0.1773
15801TIP3    H168894   3.214   1.958  14.011 -0.8735  1.7207  0.5418
15801TIP3    H268895   3.079   1.970  14.078 -1.4039 -1.9375  0.3449
15802TIP3   OH268896   0.858   3.203  11.158 -0.2129 -0.1692 -0.3551
15802TIP3    H168897   0.917   3.128  11.151  0.5744  0.4676 -0.7293
15802TIP3    H268898   0.882   3.260  11.085 -3.7453 -1.5137 -2.8483
15803TIP3   OH268899   0.892   3.163  14.134  0.0062  0.0114  0.1761
15803TIP3    H168900   0.877   3.105  14.059  0.1890 -1.0859  0.9591
15803TIP3    H268901   0.821   3.228  14.129 -1.9586 -1.9400  0.8319
15804TIP3   OH268902   4.863   2.720  14.694  0.4646  0.1059 -0.5781
15804TIP3    H168903   4.865   2.815  14.695  0.3073  0.1439  1.5803
15804TIP3    H268904   4.931   2.694  14.757 -1.6382 -1.0542  1.4156
15805TIP3   OH268905   5.839   2.207   1.372 -0.2068 -0.4309  0.3570
15805TIP3    H168906   5.815   2.164   1.454 -1.4641  0.0204  0.2567
15805TIP3    H268907   5.772   2.179   1.310  0.8147 -0.8786 -0.5600
15806TIP3   OH268908   4.849   5.635  15.498  0.5104  0.2269 -0.2909
15806TIP3    H168909   4.901   5.572  15.449  1.9233  1.6538 -0.7081
15806TIP3    H268910   4.822   5.700  15.433  0.6968  1.0688  0.4583
15807TIP3   OH268911   5.771   5.887  14.182 -0.1526 -0.0904 -0.9028
15807TIP3    H168912   5.689   5.936  14.187  1.0465  2.0868 -1.5835
15807TIP3    H268913   5.805   5.887  14.271  0.0162  0.6219 -0.9680
15808TIP3   OH268914   2.961   6.402  14.599 -0.3520 -0.2070 -0.0587
15808TIP3    H168915   2.957   6.484  14.550 -1.5983 -0.2544 -0.0767
15808TIP3    H268916   3.018   6.346  14.547 -0.5701  0.2006 -0.7554
15809TIP3   OH268917   3.087   0.587   5.839  0.7543 -0.6607  0.4496
15809TIP3    H168918   3.079   0.616   5.929 -0.2952 -0.9008  0.4442
15809TIP3    H268919   3.164   0.634   5.805 -0.9951  2.4123  0.3358
15810TIP3   OH268920   4.729   5.171  14.008  0.0302 -0.1977 -0.5935
15810TIP3    H168921   4.774   5.138  13.931 -2.2246 -1.1580 -1.5995
15810TIP3    H268922   4.668   5.236  13.974  1.5600  2.1738  0.8995
15811TIP3   OH268923   5.285   2.090  11.831  0.3053  0.5131  0.2839
15811TIP3    H168924   5.227   2.084  11.756  1.4373 -1.6189 -0.5131
15811TIP3    H268925   5.231   2.062  11.906  0.0556 -0.6806 -0.3145
15812TIP3   OH268926   6.861   3.981  16.622 -0.4295 -0.2989  0.1908
15812TIP3    H168927   6.854   3.887  16.639  0.1975 -0.0945  1.7025
15812TIP3    H268928   6.792   3.999  16.557 -0.0069 -1.9299 -0.7734
15813TIP3   OH268929   3.498   3.770  13.324 -0.5904 -0.6988  0.1159
15813TIP3    H168930   3.584   3.728  13.328 -1.2065 -2.0198  0.0586
15813TIP3    H268931   3.515   3.862  13.342  0.5930 -1.2537  2.0905
15814TIP3   OH268932   5.536   2.672  16.375 -0.2133 -0.0053 -0.6447
15814TIP3    H168933   5.601   2.634  16.316  1.0165 -1.1862  1.3651
15814TIP3    H268934   5.520   2.760  16.339  0.8386 -0.4776 -2.4191
15815TIP3   OH268935   5.210   5.244  17.011 -0.2647  0.1906  1.1064
15815TIP3    H168936   5.278   5.239  17.078  0.0747 -0.6390  0.7089
15815TIP3    H268937   5.144   5.181  17.040  0.3507 -0.9251  0.1585
15816TIP3   OH268938   3.417   6.464  13.308  0.5275 -0.0655  0.4224
15816TIP3    H168939   3.362   6.433  13.380  1.0758  0.0983  0.9171
15816TIP3    H268940   3.445   6.551  13.336 -0.8701  0.8634 -0.8737
15817TIP3   OH268941   2.627   4.739  14.753 -0.2400  0.0812  0.3134
15817TIP3    H168942   2.623   4.742  14.849 -1.4353 -1.0918  0.3343
15817TIP3    H268943   2.677   4.817  14.728 -0.5288  0.7912  1.8496
15818TIP3   OH268944   4.168   4.018   2.924 -0.0152  0.1191  0.1834
15818TIP3    H168945   4.098   3.963   2.961 -1.8832  1.7660 -0.6794
15818TIP3    H268946   4.249   3.974   2.948 -1.3286 -1.6210  1.7001
15819TIP3   OH268947   0.067   6.491   2.927  0.2758  0.1323  0.0610
15819TIP3    H168948   0.005   6.561   2.908 -0.7195 -0.6631  0.3317
15819TIP3    H268949   0.062   6.479   3.022  0.8410  0.0461  0.0876
15820TIP3   OH268950   3.753   1.768   4.583 -0.2401  0.2068 -0.2979
15820TIP3    H168951   3.800   1.729   4.657 -0.7397 -1.0469 -0.6213
15820TIP3    H268952   3.798   1.852   4.568 -0.2024  0.5475  1.4835
15821TIP3   OH268953   4.934   6.548  16.037  0.4393 -0.4118  0.0066
15821TIP3    H168954   4.986   6.612  15.987  0.1632  0.5684  0.9288
15821TIP3    H268955   4.857   6.597  16.066  0.9340 -0.7165  1.9931
15822TIP3   OH268956   5.209   6.767   4.216  0.0730  0.6805  0.0789
15822TIP3    H168957   5.183   6.831   4.150 -2.3536  0.7171  0.9757
15822TIP3    H268958   5.172   6.684   4.185  1.1185  0.1683  0.1418
15823TIP3   OH268959   1.370   1.743   3.494  0.6081  0.3562  0.3094
15823TIP3    H168960   1.331   1.657   3.509  1.8620 -0.2419  0.3045
15823TIP3    H268961   1.450   1.743   3.547  1.1362  1.1364 -0.4468
15824TIP3   OH268962   5.991   0.143   4.979  0.2879  0.0898  0.2504
15824TIP3    H168963   5.905   0.101   4.974  0.9315 -1.2604  0.1526
15824TIP3    H268964   6.025   0.118   5.065  1.3658 -0.9832 -0.4596
15825TIP3   OH268965   0.440   1.767  13.694  0.0623  0.4373 -0.5696
15825TIP3    H168966   0.489   1.810  13.624  2.1463 -1.4841 -0.4282
15825TIP3    H268967   0.507   1.743  13.759 -1.2372 -1.2486  0.2384
15826TIP3   OH268968   3.721   3.371   3.779 -0.0044 -0.7186  0.8485
15826TIP3    H168969   3.630   3.383   3.751  0.4485  0.4056 -0.2159
15826TIP3    H268970   3.723   3.402   3.870 -0.5834 -0.3070  0.7238
15827TIP3   OH268971   3.322   6.537   1.616 -0.0047 -1.0295 -0.0550
15827TIP3    H168972   3.251   6.602   1.613 -0.3633 -1.4170 -0.0988
15827TIP3    H268973   3.352   6.531   1.525  0.2851 -0.6497  0.0133
15828TIP3   OH268974   2.291   0.315  12.631 -0.5681 -0.0297 -0.3326
15828TIP3    H168975   2.291   0.296  12.537  0.5635  0.1948 -0.3992
15828TIP3    H268976   2.383   0.305  12.657 -0.7030  0.8768  0.5460
15829TIP3   OH268977   0.522   0.432   2.653  0.5613  0.1009 -0.1262
15829TIP3    H168978   0.556   0.351   2.615 -0.3048  0.5082 -1.8710
15829TIP3    H268979   0.441   0.450   2.604  0.1762  1.4551  0.9389
15830TIP3   OH268980   5.137   4.341   1.712 -0.2542  0.4706  0.8627
15830TIP3    H168981   5.099   4.375   1.793 -0.8169 -0.8422  1.1668
15830TIP3    H268982   5.062   4.321   1.656 -0.1586 -2.7190  1.7035
15831TIP3   OH268983   4.316   3.528  10.906 -0.8430 -0.1080  0.0791
15831TIP3    H168984   4.318   3.557  10.815 -1.1004 -1.2887 -0.3189
15831TIP3    H268985   4.330   3.433  10.902 -1.1180 -0.2197  1.2496
15832TIP3   OH268986   5.043   5.037   3.940  0.7912 -0.4869 -0.1354
15832TIP3    H168987   5.128   5.076   3.920 -0.4644  2.3161 -0.4864
15832TIP3    H268988   5.028   5.056   4.032  0.8690 -1.7592  0.1672
15833TIP3   OH268989   4.516   5.425   0.226  1.2453 -0.2116 -0.1152
15833TIP3    H168990   4.469   5.508   0.224 -1.1100 -1.4761 -0.6461
15833TIP3    H268991   4.465   5.369   0.284  1.7392 -1.8413 -1.1617
15834TIP3   OH268992   1.195   2.213   0.681  0.0666  0.7593  0.0928
15834TIP3    H168993   1.144   2.270   0.739 -0.5600  0.0041  0.2963
15834TIP3    H268994   1.147   2.213   0.598 -0.0026  0.4396  0.1308
15835TIP3   OH268995   1.320   4.132  16.826 -0.0612  0.0169  0.2029
15835TIP3    H168996   1.295   4.127  16.734  0.5789  0.7316 -0.0229
15835TIP3    H268997   1.415   4.119  16.825 -0.1229 -0.5171  0.8197
15836TIP3   OH268998   2.533   3.943   4.350  0.1017 -0.4430  0.1864
15836TIP3    H168999   2.452   3.970   4.393  0.3949  1.4960 -0.3872
15836TIP3    H269000   2.505   3.904   4.267 -0.4587 -4.0765  1.9001
15837TIP3   OH269001   4.023   5.566  16.809 -0.2068 -0.1125  0.6683
15837TIP3    H169002   4.059   5.652  16.828  0.0445 -0.4362  1.7281
15837TIP3    H269003   4.071   5.506  16.866 -1.3308 -0.7621  0.9786
15838TIP3   OH269004   0.985   0.459   5.720  0.6826  0.2438  0.0900
15838TIP3    H169005   0.990   0.364   5.709  1.4406  0.4513 -1.7142
15838TIP3    H269006   0.988   0.494   5.631  0.0073  1.9578  0.6897
15839TIP3   OH269007   0.072   5.149   2.816 -0.4448  0.4795 -0.4321
15839TIP3    H169008  -0.021   5.135   2.834  0.0139 -0.1855  1.7452
15839TIP3    H269009   0.076   5.169   2.722 -2.5342 -1.6156 -1.0511
15840TIP3   OH269010   0.309   2.986  14.527  0.0351  0.0719 -0.0139
15840TIP3    H169011   0.253   3.061  14.543  0.4935  0.0499  2.0706
15840TIP3    H269012   0.301   2.968  14.433 -0.0067  2.7627 -0.5978
15841TIP3   OH269013   6.334   6.842   4.049 -0.0087 -0.3215 -0.1911
15841TIP3    H169014   6.330   6.751   4.020  2.4962 -0.3316 -0.8168
15841TIP3    H269015   6.426   6.867   4.034 -1.0596  3.0066 -2.2741
15842TIP3   OH269016   2.287   6.302  15.602  0.0392 -0.0698 -0.1078
15842TIP3    H169017   2.263   6.394  15.596  0.1249 -0.0956 -1.1236
15842TIP3    H269018   2.308   6.277  15.511  0.4394 -0.9679  0.2171
15843TIP3   OH269019   3.608   1.264   2.082 -0.6885 -0.1630 -0.0214
15843TIP3    H169020   3.551   1.284   2.156 -0.4496  0.6328 -0.0383
15843TIP3    H269021   3.559   1.294   2.006 -0.8123 -0.7173 -0.1618
15844TIP3   OH269022   5.348   0.339  14.785  0.2440 -0.3830 -0.1089
15844TIP3    H169023   5.428   0.379  14.818  0.8171 -0.2141 -1.6219
15844TIP3    H269024   5.374   0.250  14.760 -0.2734 -0.6505  0.2839
15845TIP3   OH269025   1.904   1.334   2.551 -0.2736 -0.0056 -0.1500
15845TIP3    H169026   1.835   1.371   2.496  1.5771  0.7506 -2.1216
15845TIP3    H269027   1.980   1.389   2.534  0.8473 -0.7874  1.9583
15846TIP3   OH269028   4.169   0.428   0.509  0.0503  0.7548 -0.3403
15846TIP3    H169029   4.093   0.422   0.566  1.2421 -0.8367  1.1955
15846TIP3    H269030   4.242   0.395   0.562  1.5490  0.8481 -2.2180
15847TIP3   OH269031   0.580   2.644   0.207  0.0931  0.1140  0.1935
15847TIP3    H169032   0.603   2.727   0.248 -2.8793  0.3918  1.5725
15847TIP3    H269033   0.596   2.659   0.113  2.4877  1.1136  0.6892
15848TIP3   OH269034   1.705   6.692   2.885  0.2667  0.2451  0.2153
15848TIP3    H169035   1.764   6.695   2.810 -0.0880  0.1606 -0.0700
15848TIP3    H269036   1.712   6.602   2.917 -1.4562 -0.4618 -1.2474
15849TIP3   OH269037   5.682   5.718  13.244  0.0744 -0.1601 -0.5840
15849TIP3    H169038   5.659   5.670  13.164 -0.5959  0.7485 -0.9576
15849TIP3    H269039   5.640   5.669  13.314  0.6270 -0.9394 -0.7931
15850TIP3   OH269040   6.271   1.685   0.777 -0.6167  0.3184  0.5841
15850TIP3    H169041   6.265   1.617   0.845  0.2213  0.3217  0.6675
15850TIP3    H269042   6.351   1.733   0.798 -1.7203  2.0048  1.1341
15851TIP3   OH269043   0.660   3.678   5.970 -0.2218 -0.3732 -0.0029
15851TIP3    H169044   0.733   3.721   5.926 -0.2347 -2.0397 -1.7742
15851TIP3    H269045   0.584   3.731   5.947  0.0982  0.0903 -0.0198
15852TIP3   OH269046   0.735   2.526   1.523 -0.0004 -0.6058  0.1527
15852TIP3    H169047   0.691   2.513   1.607  0.0667 -2.0725 -0.0063
15852TIP3    H269048   0.763   2.438   1.497  1.6933  0.0851 -0.4804
15853TIP3   OH269049   5.289   0.690  16.409 -0.4457 -0.6231 -0.2663
15853TIP3    H169050   5.304   0.630  16.336 -1.2727 -1.5232  0.2811
15853TIP3    H269051   5.377   0.712  16.440 -0.0913 -0.4536 -1.3371
15854TIP3   OH269052   1.242   2.878   1.057  0.3733 -0.5716  0.1912
15854TIP3    H169053   1.210   2.965   1.080  0.5995 -0.6739  0.9254
15854TIP3    H269054   1.317   2.894   0.999  3.0016 -0.0606  3.3942
15855TIP3   OH269055   2.110   5.897   5.725  0.1990  0.4181  0.3160
15855TIP3    H169056   2.039   5.838   5.702 -0.0796  1.8969 -3.0519
15855TIP3    H269057   2.067   5.977   5.753  0.5892  0.3250  1.2278
15856TIP3   OH269058   6.784   2.354  12.945 -0.4888  0.4672  0.3025
15856TIP3    H169059   6.837   2.433  12.960  2.9760 -1.4976 -0.3546
15856TIP3    H269060   6.765   2.322  13.033  0.4961  0.6282  0.5965
15857TIP3   OH269061   4.707   0.979   1.234  0.3474 -0.0398  0.1550
15857TIP3    H169062   4.726   1.025   1.152 -0.3098 -0.6300 -0.3565
15857TIP3    H269063   4.778   0.915   1.242 -0.1570 -0.7212 -0.5560
15858TIP3   OH269064   0.204   6.273   1.752 -0.0607 -0.4308  0.1096
15858TIP3    H169065   0.250   6.357   1.746 -0.8339  0.0029  0.1570
15858TIP3    H269066   0.228   6.227   1.672 -0.7168  0.4071 -0.5949
15859TIP3   OH269067   0.701   2.244   4.746  0.6364  0.0586 -0.1764
15859TIP3    H169068   0.737   2.169   4.699  0.1696 -0.1912 -0.1480
15859TIP3    H269069   0.682   2.309   4.678 -2.0585 -1.1030 -0.6861
15860TIP3   OH269070   3.146   2.034   1.648 -0.0969 -0.0904 -0.0321
15860TIP3    H169071   3.189   1.966   1.596 -1.2162 -1.5934  0.9045
15860TIP3    H269072   3.108   2.094   1.584  0.2759 -0.7643 -0.8994
15861TIP3   OH269073   4.105   3.456  13.185 -0.5226 -0.2168  0.1945
15861TIP3    H169074   4.026   3.505  13.162 -0.3870 -0.2651 -0.4088
15861TIP3    H269075   4.128   3.409  13.105  0.4429  0.2492  0.1717
15862TIP3   OH269076   4.929   3.942   5.368 -0.4315  0.0237  0.0721
15862TIP3    H169077   5.012   3.920   5.327 -0.9671  1.4303 -1.9538
15862TIP3    H269078   4.863   3.913   5.305 -1.6164 -2.1165  2.1354
15863TIP3   OH269079   5.297   1.142  11.931  0.0025  0.3678  0.0278
15863TIP3    H169080   5.272   1.157  12.022  0.3296 -1.2659  0.4190
15863TIP3    H269081   5.223   1.175  11.879 -0.4360  0.7830  0.9035
15864TIP3   OH269082   4.465   6.793  16.671  0.3489 -0.3261 -0.3853
15864TIP3    H169083   4.442   6.802  16.764 -0.8331 -0.2917 -0.6580
15864TIP3    H269084   4.494   6.881  16.645  0.3347 -0.2456 -0.1307
15865TIP3   OH269085   1.706   1.838  14.440 -0.2499  0.5123 -0.2658
15865TIP3    H169086   1.685   1.926  14.409  0.8004  0.0316 -2.5165
15865TIP3    H269087   1.780   1.810  14.387  2.0338 -0.2833  3.0507
15866TIP3   OH269088   6.130   4.703   5.075 -0.0059  0.3233  0.4114
15866TIP3    H169089   6.097   4.740   5.156 -2.9761 -1.0567 -0.0194
15866TIP3    H269090   6.097   4.760   5.006  2.5564  1.5344  0.0605
15867TIP3   OH269091   5.313   5.305  12.232 -0.1769  0.1375 -0.2825
15867TIP3    H169092   5.365   5.380  12.259  0.4950 -0.1142 -0.8295
15867TIP3    H269093   5.301   5.254  12.312  0.6271  0.0854 -0.1850
15868TIP3   OH269094   6.251   4.277  16.115  0.8693  0.5351  0.5577
15868TIP3    H169095   6.177   4.264  16.175  1.6772  0.7503  1.6327
15868TIP3    H269096   6.210   4.285  16.028 -0.5411  2.7198  1.3517
15869TIP3   OH269097   0.470   1.937   1.866 -0.2692  0.2119  0.1417
15869TIP3    H169098   0.458   1.919   1.959  0.6197 -0.7174  0.0943
15869TIP3    H269099   0.489   1.851   1.827 -1.3126  0.4765 -1.0107
15870TIP3   OH269100   0.414   1.742  16.519  0.0785  0.1766 -0.1192
15870TIP3    H169101   0.458   1.750  16.604  1.8769  0.8268 -1.0563
15870TIP3    H269102   0.473   1.688  16.467 -0.9419 -0.1140 -1.0006
15871TIP3   OH269103   0.421   4.473  11.604  0.1223 -0.5064  0.2965
15871TIP3    H169104   0.386   4.556  11.572  0.8067 -0.2480  0.2070
15871TIP3    H269105   0.516   4.479  11.589  0.2989 -0.9086  1.1635
15872TIP3   OH269106   1.985   1.521   4.250 -0.1659  0.0422 -0.6927
15872TIP3    H169107   1.936   1.518   4.168 -1.0137  1.8706 -0.3073
15872TIP3    H269108   1.917   1.528   4.317  0.5739  1.5716 -0.0669
15873TIP3   OH269109   5.078   3.826  16.070  0.2366  0.0843  0.0608
15873TIP3    H169110   5.020   3.862  16.138  1.5049 -0.3378  1.4216
15873TIP3    H269111   5.163   3.868  16.087  0.7393 -0.5476 -0.8492
15874TIP3   OH269112   6.334   3.909   3.102 -0.0391 -0.1676 -0.1013
15874TIP3    H169113   6.282   3.890   3.023 -0.0235  0.6461 -0.3118
15874TIP3    H269114   6.353   3.822   3.138 -1.7808 -0.4967  0.1438
15875TIP3   OH269115   5.825   3.177   5.539 -0.0334  0.5990 -0.0401
15875TIP3    H169116   5.898   3.238   5.552 -0.3693  1.8847 -3.3306
15875TIP3    H269117   5.759   3.204   5.603  1.6244  0.4918  1.8293
15876TIP3   OH269118   1.531   1.713  13.593 -0.7833 -0.3511 -0.0417
15876TIP3    H169119   1.492   1.698  13.679 -1.4822 -0.9487 -0.4493
15876TIP3    H269120   1.512   1.805  13.574 -1.4435 -0.4676  0.0434
15877TIP3   OH269121   1.642   3.067   5.513 -0.0789  0.1079  0.4150
15877TIP3    H169122   1.642   2.972   5.525  1.1223  0.1950  1.2500
15877TIP3    H269123   1.666   3.080   5.421 -2.1518 -0.4155 -0.2499
15878TIP3   OH269124   4.440   4.291   1.112  0.1047  0.0923  0.1017
15878TIP3    H169125   4.422   4.232   1.039  1.3592 -1.2333  0.8065
15878TIP3    H269126   4.367   4.278   1.172  0.6871 -1.3015  0.5562
15879TIP3   OH269127   4.211   1.394  14.495 -0.2436  0.4221 -0.1184
15879TIP3    H169128   4.160   1.378  14.416 -1.4328  0.0687  0.6919
15879TIP3    H269129   4.169   1.339  14.562  1.8791 -0.7489  0.3334
15880TIP3   OH269130   0.711   3.295  13.698  0.4642  0.6610 -0.4412
15880TIP3    H169131   0.716   3.379  13.743 -0.1970  0.1979  0.5311
15880TIP3    H269132   0.773   3.303  13.626  1.3749  1.5146  0.4020
15881TIP3   OH269133   0.668   4.159  11.456  0.0783 -0.0424  0.1304
15881TIP3    H169134   0.654   4.235  11.400 -0.1112  0.1429  0.4258
15881TIP3    H269135   0.656   4.193  11.545  0.9966 -0.1917  0.3198
15882TIP3   OH269136   5.856   5.903  12.381  0.1559  0.1553  0.9164
15882TIP3    H169137   5.824   5.991  12.403  1.4547  0.7959  0.3761
15882TIP3    H269138   5.943   5.899  12.420  1.4162  0.3180 -1.6667
15883TIP3   OH269139   0.601   1.762   4.190  0.0995 -0.0531  0.7262
15883TIP3    H169140   0.677   1.710   4.215 -0.0421 -0.2082  0.8316
15883TIP3    H269141   0.635   1.851   4.182  0.4327 -0.2302  0.1171
15884TIP3   OH269142   0.420   3.658  12.745 -0.6486  0.5335  0.0019
15884TIP3    H169143   0.390   3.639  12.656 -0.9801  0.3068  0.1609
15884TIP3    H269144   0.340   3.661  12.797 -0.3425 -1.0449  0.6213
15885TIP3   OH269145   0.235   3.976   0.118  0.0148  0.6443 -0.5512
15885TIP3    H169146   0.143   4.000   0.132 -0.6021 -0.6109 -2.0915
15885TIP3    H269147   0.285   4.050   0.151 -1.5239  1.0573  0.9684
15886TIP3   OH269148   6.595   1.196  16.503  0.1149 -0.1455  0.1291
15886TIP3    H169149   6.675   1.151  16.528  0.4707  1.0459  1.2711
15886TIP3    H269150   6.625   1.279  16.466 -0.5740 -0.0448 -0.2207
15887TIP3   OH269151   5.021   3.677   5.909  0.0593  0.1462 -0.4296
15887TIP3    H169152   4.939   3.637   5.939  1.3920 -2.5412 -0.0725
15887TIP3    H269153   4.998   3.721   5.828 -1.9992  0.6699  0.3705
15888TIP3   OH269154   1.482   2.139  14.664 -0.0573 -0.0768  0.3297
15888TIP3    H169155   1.509   2.060  14.712 -0.9454 -0.9995 -0.6439
15888TIP3    H269156   1.455   2.107  14.578 -0.2032  1.3311 -0.1711
15889TIP3   OH269157   4.306   0.953   1.519  0.3380  0.0321 -0.0790
15889TIP3    H169158   4.353   1.037   1.513  1.1435 -0.3917  0.0883
15889TIP3    H269159   4.264   0.954   1.604 -0.7988  0.8341 -0.6220
15890TIP3   OH269160   0.271   4.436   1.560  0.7459 -0.1890  0.1573
15890TIP3    H169161   0.358   4.398   1.573  0.5664 -0.6846 -0.0754
15890TIP3    H269162   0.223   4.411   1.639  0.7873  0.0261  0.2537
15891TIP3   OH269163   6.128   5.020  11.825 -0.3852 -0.5210 -0.2639
15891TIP3    H169164   6.054   5.080  11.829 -2.2614 -2.6907 -0.6396
15891TIP3    H269165   6.146   4.998  11.917  0.8758  1.1424 -0.0501
15892TIP3   OH269166   5.763   4.340  14.857  0.4166 -0.2527 -0.6727
15892TIP3    H169167   5.727   4.425  14.835 -0.6782 -0.6886 -0.6142
15892TIP3    H269168   5.802   4.352  14.944  0.3552  0.2048 -0.7087
15893TIP3   OH269169   2.514   1.179  12.600  0.3015  0.1862 -0.3536
15893TIP3    H169170   2.453   1.250  12.622  0.1542  0.9104 -2.8272
15893TIP3    H269171   2.517   1.125  12.679 -1.6595  1.4718  0.6845
15894TIP3   OH269172   1.611   3.514   4.085  0.4065 -0.0721  0.8915
15894TIP3    H169173   1.638   3.604   4.105  1.1444  0.1869 -1.1146
15894TIP3    H269174   1.517   3.520   4.069  0.7093  0.6574 -0.7567
15895TIP3   OH269175   0.960   0.376  12.274  0.0176  0.6216  0.8755
15895TIP3    H169176   0.966   0.471  12.282 -1.8338  0.9187 -0.5592
15895TIP3    H269177   0.886   0.352  12.330 -0.3133  0.2195  0.2849
15896TIP3   OH269178   3.533   2.760   4.061  0.3422 -0.1202 -0.1428
15896TIP3    H169179   3.622   2.789   4.081 -0.5803  2.3851  0.8857
15896TIP3    H269180   3.535   2.665   4.070  3.0592 -0.2173 -0.9661
15897TIP3   OH269181   2.271   1.873   4.682  0.3627 -0.2746  0.0481
15897TIP3    H169182   2.366   1.866   4.690  0.4997 -0.2382 -1.2923
15897TIP3    H269183   2.237   1.807   4.742  1.2912 -1.4271 -0.6474
15898TIP3   OH269184   2.919   0.946   1.847 -0.0042 -0.1551 -0.2565
15898TIP3    H169185   2.865   0.912   1.918  1.0295 -1.7623 -0.2061
15898TIP3    H269186   2.856   0.964   1.776 -0.9464  0.8183  0.7853
15899TIP3   OH269187   3.341   5.882   2.094 -0.3808  0.6196  0.4276
15899TIP3    H169188   3.318   5.814   2.031 -2.4305  0.5878  1.1100
15899TIP3    H269189   3.372   5.955   2.041  0.2240 -0.2395 -0.4312
15900TIP3   OH269190   6.003   2.033  16.689  0.1887 -0.6848 -0.1221
15900TIP3    H169191   5.940   1.961  16.678  1.6139 -1.7833 -1.7060
15900TIP3    H269192   6.089   1.991  16.679  1.0454  1.3579 -2.1745
15901TIP3   OH269193   4.343   1.273  16.892 -0.2798 -0.1218 -0.1379
15901TIP3    H169194   4.285   1.347  16.875 -0.9672 -0.4455  0.7213
15901TIP3    H269195   4.355   1.231  16.806  1.1292  1.6591 -0.8926
15902TIP3   OH269196   3.826   2.849  14.845 -0.4585  0.4005 -0.9233
15902TIP3    H169197   3.832   2.766  14.892 -0.3937  0.2074 -1.2645
15902TIP3    H269198   3.737   2.880  14.860 -0.5495  0.1604 -0.9693
15903TIP3   OH269199   2.160   2.749  15.619  0.5349  0.7081 -0.1397
15903TIP3    H169200   2.085   2.788  15.664  0.2900 -0.5474  0.6089
15903TIP3    H269201   2.126   2.666  15.584  1.3914  0.4469 -0.3781
15904TIP3   OH269202   2.342   5.737   1.510 -0.3429  0.3429  0.2408
15904TIP3    H169203   2.360   5.830   1.528 -2.4627  0.9323 -0.2988
15904TIP3    H269204   2.376   5.722   1.423 -0.7735  0.8940 -0.0314
15905TIP3   OH269205   1.245   5.925  13.654 -0.3595 -0.0767 -0.0492
15905TIP3    H169206   1.291   5.859  13.706  1.6454  0.9894 -0.3760
15905TIP3    H269207   1.162   5.937  13.699  1.5029  1.2596  3.3854
15906TIP3   OH269208   5.612   3.878  12.905  0.0469 -0.3791 -0.2069
15906TIP3    H169209   5.681   3.942  12.889 -0.5207  0.4164  0.4334
15906TIP3    H269210   5.653   3.811  12.959  0.3705 -0.0233 -0.0111
15907TIP3   OH269211   5.463   6.081  11.861  0.2881  0.3855  0.0974
15907TIP3    H169212   5.558   6.083  11.851  0.2554  0.5843 -0.1811
15907TIP3    H269213   5.447   6.128  11.943  0.4383  0.2511  0.2026
15908TIP3   OH269214   5.645   4.476   4.003 -0.4739  0.4759  0.3862
15908TIP3    H169215   5.638   4.432   3.918  0.5517  0.3732  0.3407
15908TIP3    H269216   5.694   4.556   3.984  0.8975 -0.1641  1.0755
15909TIP3   OH269217   3.854   4.036   1.846  0.2084 -0.1535 -0.4226
15909TIP3    H169218   3.796   4.009   1.774 -0.5313  2.2348 -0.8235
15909TIP3    H269219   3.942   4.014   1.816 -0.2601 -1.1702 -1.0961
15910TIP3   OH269220   5.967   2.900   6.159 -0.3028  0.0008  0.0267
15910TIP3    H169221   6.009   2.906   6.245  0.1590  2.2980 -0.3075
15910TIP3    H269222   6.037   2.870   6.101 -0.3826 -0.6923  0.2813
15911TIP3   OH269223   0.607   2.659  16.490  0.7311 -0.4015 -0.0975
15911TIP3    H169224   0.590   2.727  16.425  0.0659  0.4512  0.9469
15911TIP3    H269225   0.703   2.655  16.494  0.7839 -0.2054 -0.8441
15912TIP3   OH269226   0.142   0.775  12.389 -0.2874  0.1550 -0.6232
15912TIP3    H169227   0.130   0.693  12.341 -0.6172 -0.1634 -0.0145
15912TIP3    H269228   0.069   0.777  12.451  0.8338 -0.0768  0.7401
15913TIP3   OH269229   1.159   4.238   1.937 -0.0291  0.6452 -0.0840
15913TIP3    H169230   1.248   4.215   1.963 -0.6206 -2.6787 -0.5218
15913TIP3    H269231   1.164   4.250   1.842 -0.0827  0.0230 -0.1724
15914TIP3   OH269232   2.983   1.890   4.071  0.3795 -0.3362  0.2581
15914TIP3    H169233   2.972   1.800   4.102  2.0618 -0.3302  0.9788
15914TIP3    H269234   2.985   1.882   3.976 -0.1701 -0.9661  0.2905
15915TIP3   OH269235   0.177   4.375  11.602  0.0580  0.2807  0.2770
15915TIP3    H169236   0.268   4.403  11.594 -0.4657  1.5738 -1.6333
15915TIP3    H269237   0.153   4.401  11.691  0.4445  3.6087 -0.4351
15916TIP3   OH269238   1.758   2.777   4.379  0.1480  0.6202 -0.7999
15916TIP3    H169239   1.666   2.766   4.355  0.2237  1.4317 -1.4793
15916TIP3    H269240   1.780   2.696   4.425 -0.6942  0.1019 -1.2833
15917TIP3   OH269241   0.964   6.097   5.918 -0.1935 -0.4682 -0.1954
15917TIP3    H169242   0.889   6.153   5.900  0.2758  0.2351 -0.0270
15917TIP3    H269243   0.977   6.104   6.012  1.2200  0.9302 -0.4572
15918TIP3   OH269244   2.550   0.383  15.342 -0.2742 -0.1713 -0.1669
15918TIP3    H169245   2.589   0.471  15.339 -0.7663  0.0238 -2.6452
15918TIP3    H269246   2.622   0.324  15.322  0.3477 -0.5375  2.7143
15919TIP3   OH269247   6.482   1.813  13.704 -0.1346 -0.0499  0.3043
15919TIP3    H169248   6.421   1.757  13.752  0.0650 -1.7550 -1.3026
15919TIP3    H269249   6.442   1.900  13.706 -1.6016 -0.7100  0.9783
15920TIP3   OH269250   5.450   3.177  15.811  0.4656 -0.4423 -0.1865
15920TIP3    H169251   5.527   3.147  15.859 -0.8977  1.2413  3.4086
15920TIP3    H269252   5.378   3.123  15.845 -0.3759 -0.1977 -1.4899
15921TIP3   OH269253   2.053   3.140   5.820  0.1582 -0.6443  0.0618
15921TIP3    H169254   2.058   3.077   5.748  1.1389  1.0761 -1.4747
15921TIP3    H269255   2.050   3.086   5.899 -1.7747 -2.6380 -1.2410
15922TIP3   OH269256   1.354   3.527  13.892 -0.3895  0.2964  0.3933
15922TIP3    H169257   1.441   3.530  13.930 -0.4202  0.9289  0.4244
15922TIP3    H269258   1.352   3.599  13.829 -1.2550  1.0403  1.2176
15923TIP3   OH269259   2.365   1.454   1.719  0.4401 -0.0522 -0.2725
15923TIP3    H169260   2.285   1.415   1.755  2.0314 -1.0847  2.4693
15923TIP3    H269261   2.358   1.441   1.624 -1.3204 -2.7319  0.1180
15924TIP3   OH269262   6.744   6.009  15.769  0.3216 -0.2558 -0.2751
15924TIP3    H169263   6.653   5.986  15.785  0.6137 -0.1507  1.7530
15924TIP3    H269264   6.773   6.053  15.849  2.0724 -0.0317 -0.9795
15925TIP3   OH269265   2.398   0.756   0.752 -0.0265  0.5691 -0.2348
15925TIP3    H169266   2.485   0.728   0.724 -0.5442 -1.2475 -0.1520
15925TIP3    H269267   2.410   0.784   0.843  0.6491  1.4160 -0.5613
15926TIP3   OH269268   5.426   4.083  14.323  0.4748  0.0592  0.5008
15926TIP3    H169269   5.362   4.149  14.346 -0.0017  0.1027 -0.8537
15926TIP3    H269270   5.419   4.075  14.227  0.8078 -1.6420  0.5877
15927TIP3   OH269271   6.520   3.666   2.998 -0.1660  0.1581 -0.3242
15927TIP3    H169272   6.566   3.749   2.988 -1.5047  0.7335 -2.3141
15927TIP3    H269273   6.429   3.691   3.013 -0.4995 -0.9445 -0.4261
15928TIP3   OH269274   6.602   2.463   4.560  0.0336  0.0701  0.4573
15928TIP3    H169275   6.606   2.537   4.500 -0.0590 -0.9694 -0.8716
15928TIP3    H269276   6.693   2.450   4.588  0.0839  0.5399  0.5096
15929TIP3   OH269277   5.500   0.896   3.724 -0.3587  0.1111 -0.5815
15929TIP3    H169278   5.501   0.844   3.804  0.6132  1.0107  0.0144
15929TIP3    H269279   5.509   0.832   3.653  0.4319 -0.5633  0.1114
15930TIP3   OH269280   5.588   0.185   4.473 -0.2232 -0.1107  0.4132
15930TIP3    H169281   5.683   0.170   4.472  0.2218  2.2344 -0.0382
15930TIP3    H269282   5.576   0.265   4.421 -2.3120  0.2868  1.3965
15931TIP3   OH269283   3.099   0.669   0.823 -0.3902  0.0005  0.0149
15931TIP3    H169284   3.013   0.629   0.811 -0.4507 -0.1867  0.9811
15931TIP3    H269285   3.091   0.756   0.783 -1.2653  0.2706  0.7522
15932TIP3   OH269286   2.602   4.730  16.038 -0.4989 -0.0889 -0.2266
15932TIP3    H169287   2.584   4.636  16.044 -2.3112  0.2399  0.0548
15932TIP3    H269288   2.565   4.766  16.118 -0.5247  0.9682 -0.7023
15933TIP3   OH269289   1.083   1.930  15.602  0.1662 -0.2334  0.7258
15933TIP3    H169290   1.032   1.972  15.672 -1.8806  1.8372 -1.7878
15933TIP3    H269291   1.038   1.847  15.587 -1.8687  0.9991 -0.5722
15934TIP3   OH269292   5.581   1.198  11.401 -0.2306  0.4042 -0.1022
15934TIP3    H169293   5.518   1.268  11.384 -0.6452 -0.0847 -0.5938
15934TIP3    H269294   5.630   1.189  11.319 -1.1160 -0.8170 -0.5290
15935TIP3   OH269295   3.509   0.582  17.031 -0.3764 -0.1214 -0.6967
15935TIP3    H169296   3.453   0.506  17.012  0.2052 -0.6711 -0.2408
15935TIP3    H269297   3.496   0.598  17.125  1.2919 -1.1481 -0.2459
15936TIP3   OH269298   0.612   1.222   2.517 -0.3394  0.9755 -0.2941
15936TIP3    H169299   0.575   1.299   2.561 -0.3451 -0.6333  2.7691
15936TIP3    H269300   0.570   1.148   2.559  0.6817 -0.7973 -2.1942
15937TIP3   OH269301   3.877   2.355  15.355  0.3953  0.4348  0.1576
15937TIP3    H169302   3.793   2.400  15.355 -0.2475 -0.6041 -2.4559
15937TIP3    H269303   3.942   2.426  15.350 -0.4159  1.1762 -0.0146
15938TIP3   OH269304   3.154   0.096  15.840 -0.1841  0.2519  0.2642
15938TIP3    H169305   3.194   0.143  15.913 -0.8540 -1.1054  1.5668
15938TIP3    H269306   3.102   0.027  15.882 -1.0042 -0.2444 -1.4904
15939TIP3   OH269307   3.911   0.008   0.212  0.0270  0.2884 -0.3045
15939TIP3    H169308   3.963  -0.025   0.138  1.4151 -0.3840  0.9303
15939TIP3    H269309   3.838  -0.054   0.220  1.7393 -1.6787  0.9840
15940TIP3   OH269310   4.915   0.813   2.893 -0.8059 -0.5593  0.0715
15940TIP3    H169311   4.973   0.812   2.969 -0.3039  2.1898 -0.1753
15940TIP3    H269312   4.972   0.833   2.819 -2.0212  3.6064 -0.0044
15941TIP3   OH269313   5.334   2.550   5.859 -0.2400  0.0579  0.2589
15941TIP3    H169314   5.340   2.455   5.856  1.3037  0.1602 -0.6722
15941TIP3    H269315   5.262   2.567   5.921 -0.8631 -1.6943  0.0800
15942TIP3   OH269316   3.240   5.225  10.942  0.0414  0.1336 -0.0557
15942TIP3    H169317   3.180   5.193  10.874 -1.3017 -0.2482  1.2693
15942TIP3    H269318   3.185   5.273  11.002  1.2221  0.5190  0.7558
15943TIP3   OH269319   2.030   6.295  11.817 -0.3018 -0.1151 -0.2361
15943TIP3    H169320   1.999   6.243  11.891  0.3856  0.4549  0.4834
15943TIP3    H269321   1.952   6.316  11.767 -1.1892  1.5604  1.6930
15944TIP3   OH269322   3.213   6.046   3.296  0.2371  0.2442  0.4659
15944TIP3    H169323   3.162   6.053   3.377  1.0961  0.5837  0.9953
15944TIP3    H269324   3.256   6.131   3.288  0.5432  0.0433 -0.0977
15945TIP3   OH269325   2.268   3.280  15.841 -0.8078 -0.2988 -0.2516
15945TIP3    H169326   2.331   3.318  15.779 -1.9627  2.4524  0.0956
15945TIP3    H269327   2.248   3.194  15.805  1.8260 -0.5770 -1.2876
15946TIP3   OH269328   4.263   2.489  16.196 -0.5171  0.2929 -0.3030
15946TIP3    H169329   4.207   2.453  16.127  1.2556 -1.4083 -0.9508
15946TIP3    H269330   4.351   2.489  16.159  0.2350  1.0307  1.3461
15947TIP3   OH269331   4.031   0.673  11.615  0.1379  0.5590 -0.3457
15947TIP3    H169332   4.046   0.709  11.702 -0.4884 -1.2998  0.5968
15947TIP3    H269333   3.958   0.724  11.580 -0.0146  0.9253  0.4807
15948TIP3   OH269334   2.713   0.762   2.896 -0.1138 -0.0379  0.6351
15948TIP3    H169335   2.777   0.794   2.960  1.5157 -0.0679 -0.8857
15948TIP3    H269336   2.737   0.807   2.814 -0.0573 -2.3396 -0.6999
15949TIP3   OH269337   4.247   5.783  11.061  0.0995  0.2194  0.0538
15949TIP3    H169338   4.231   5.693  11.089  0.6661  0.7261  2.2388
15949TIP3    H269339   4.163   5.813  11.026 -0.1548 -1.0640 -0.4780
15950TIP3   OH269340   1.126   5.570   3.183 -0.3107 -0.0006 -0.6488
15950TIP3    H169341   1.152   5.520   3.105  1.2444  1.0335 -0.8482
15950TIP3    H269342   1.202   5.564   3.241 -0.9951  0.2327  0.2892
15951TIP3   OH269343   1.714   3.794  15.396 -0.4570  0.0340  0.0810
15951TIP3    H169344   1.748   3.775  15.309 -0.1826 -0.7387  0.3528
15951TIP3    H269345   1.773   3.748  15.456 -1.7397 -1.0195  0.5810
15952TIP3   OH269346   0.328   4.524   0.863 -0.2061  0.3986 -0.1276
15952TIP3    H169347   0.417   4.510   0.894 -0.6271 -0.8585  0.5840
15952TIP3    H269348   0.274   4.521   0.943 -1.0253 -0.2882 -0.6867
15953TIP3   OH269349   5.745   1.066  16.648 -0.3701 -0.1385  0.5734
15953TIP3    H169350   5.650   1.081  16.647 -0.6535 -1.7815 -0.1101
15953TIP3    H269351   5.764   1.028  16.562  0.5997 -1.5198  1.3682
15954TIP3   OH269352   6.619   1.882   2.925 -0.8529  0.4034  0.4588
15954TIP3    H169353   6.578   1.886   3.012 -0.7194  1.2476  0.4915
15954TIP3    H269354   6.713   1.882   2.944 -0.8044 -1.3758  0.3794
15955TIP3   OH269355   3.540   4.047  13.312  0.6614  0.3196  0.2895
15955TIP3    H169356   3.591   4.119  13.276 -0.1060  1.5309  1.5177
15955TIP3    H269357   3.555   4.052  13.406 -0.5354 -0.2169  0.5318
15956TIP3   OH269358   0.889   4.187  13.268  0.0138  0.2364  0.1933
15956TIP3    H169359   0.866   4.207  13.178 -2.6851  1.0708  0.9752
15956TIP3    H269360   0.843   4.105  13.288  1.1071 -0.2996  0.6724
15957TIP3   OH269361   3.635   0.037  14.816 -0.3246  0.0834 -0.3333
15957TIP3    H169362   3.702   0.097  14.848 -0.8580  0.9562 -0.8111
15957TIP3    H269363   3.662  -0.049  14.848  0.6859  0.5127 -0.0077
15958TIP3   OH269364   6.361   5.472  13.367  0.1083 -0.1061  0.4865
15958TIP3    H169365   6.364   5.459  13.273  1.0498  1.6167  0.2364
15958TIP3    H269366   6.397   5.560  13.380 -1.1427  0.1816  2.3424
15959TIP3   OH269367   3.643   1.657   1.940  0.1086  0.5212  0.1643
15959TIP3    H169368   3.707   1.619   2.000  2.0455  0.4862 -1.7677
15959TIP3    H269369   3.674   1.746   1.926 -1.7539  1.3710  1.0834
15960TIP3   OH269370   1.915   4.232  12.052 -0.2375 -0.0482  0.1799
15960TIP3    H169371   1.983   4.297  12.070 -0.5981  0.2718  0.3968
15960TIP3    H269372   1.947   4.185  11.975  0.0883  0.3032  0.0970
15961TIP3   OH269373   4.491   0.544  14.762 -0.3086 -0.0913  0.2005
15961TIP3    H169374   4.418   0.510  14.710 -0.6728  0.8236  0.0959
15961TIP3    H269375   4.450   0.604  14.824  0.4568  1.3858 -0.6537
15962TIP3   OH269376   5.544   3.058  12.627  0.0689 -0.1052  0.5285
15962TIP3    H169377   5.470   3.075  12.568 -0.0686 -0.6234  0.5452
15962TIP3    H269378   5.607   3.009  12.574 -0.0158 -0.4970  0.7851
15963TIP3   OH269379   1.295   3.407   2.661  0.1089 -0.2700 -0.3732
15963TIP3    H169380   1.288   3.321   2.703 -0.4075  0.0948  0.3116
15963TIP3    H269381   1.334   3.463   2.728 -0.0690  0.1626 -0.6307
15964TIP3   OH269382   5.717   5.015  14.384 -0.3099 -0.4522  0.1327
15964TIP3    H169383   5.729   5.085  14.447  0.6453 -0.0181 -0.4975
15964TIP3    H269384   5.730   4.935  14.435 -4.0905 -0.4118  1.4729
15965TIP3   OH269385   2.694   3.031  13.347 -0.2303  0.6699 -0.1823
15965TIP3    H169386   2.739   3.034  13.262  1.4060 -2.3705  0.4492
15965TIP3    H269387   2.640   2.952  13.343 -2.1541  1.8577  0.7521
15966TIP3   OH269388   5.786   6.035   2.417 -0.2753  0.1895  0.6040
15966TIP3    H169389   5.791   6.031   2.321 -1.9238  0.7259  0.4725
15966TIP3    H269390   5.878   6.039   2.446  0.2330  0.3581 -0.9555
15967TIP3   OH269391   1.630   2.208   3.325 -0.4483 -0.0626  0.4874
15967TIP3    H169392   1.714   2.164   3.318 -1.0332 -1.2871  0.8721
15967TIP3    H269393   1.567   2.137   3.338 -1.3534  0.9324  1.8005
15968TIP3   OH269394   6.806   2.450  13.968 -0.1778  0.3384  0.4308
15968TIP3    H169395   6.878   2.404  13.924  1.1361  2.6544 -0.0414
15968TIP3    H269396   6.782   2.521  13.908 -0.9152  1.3144  1.8025
15969TIP3   OH269397   3.927   0.162   5.268  0.5297  0.2904  0.4497
15969TIP3    H169398   3.864   0.200   5.330  0.2264 -0.1744  0.4225
15969TIP3    H269399   3.877   0.149   5.188  0.4079 -0.9735  0.7205
15970TIP3   OH269400   3.234   4.024   6.029 -0.4672  0.2790 -0.9631
15970TIP3    H169401   3.154   3.978   6.054  0.1175  0.0650  0.6201
15970TIP3    H269402   3.297   4.002   6.098  1.3142 -0.4598 -2.6977
15971TIP3   OH269403   3.752   4.627  11.316 -0.4589  0.0066  0.0961
15971TIP3    H169404   3.748   4.646  11.410 -2.4903  2.0114 -0.3150
15971TIP3    H269405   3.780   4.535  11.311 -0.6969 -0.2655  2.6598
15972TIP3   OH269406   0.136   2.441   1.751 -0.0592  0.4052  0.4207
15972TIP3    H169407   0.206   2.384   1.784 -1.3402 -0.4810  1.7242
15972TIP3    H269408   0.133   2.513   1.814 -1.1428 -0.2367  1.1533
15973TIP3   OH269409   1.150   6.080  16.222 -0.5921  0.4199  0.3681
15973TIP3    H169410   1.141   6.160  16.172  0.2024  1.0808  1.2382
15973TIP3    H269411   1.071   6.030  16.203  0.1771  0.0971 -2.4339
15974TIP3   OH269412   2.333   1.527   2.217  0.1858  0.4973 -0.0636
15974TIP3    H169413   2.313   1.587   2.290  1.3585  0.2551  0.4888
15974TIP3    H269414   2.338   1.584   2.140  1.9936  1.2860  0.5678
15975TIP3   OH269415   1.867   0.961   3.765  0.0483 -0.5247  0.1776
15975TIP3    H169416   1.853   0.930   3.676 -2.2763  0.9268 -0.0394
15975TIP3    H269417   1.942   1.020   3.759 -0.8647  0.5716 -1.1375
15976TIP3   OH269418   4.620   2.093  14.570  0.2118  0.2780  0.4427
15976TIP3    H169419   4.637   2.083  14.663  0.5498 -0.5000  0.3009
15976TIP3    H269420   4.547   2.155  14.566  0.6790  0.9077  1.1891
15977TIP3   OH269421   4.021   4.624  11.639  0.8839 -0.3561  0.1245
15977TIP3    H169422   4.067   4.697  11.597 -0.0272  0.0832 -0.1245
15977TIP3    H269423   4.089   4.579  11.690  1.8830 -0.5021 -1.2789
15978TIP3   OH269424   5.963   2.903   3.357 -0.2198 -0.0566 -0.0101
15978TIP3    H169425   5.936   2.888   3.448  1.4997 -0.6635  0.4382
15978TIP3    H269426   6.057   2.884   3.356 -0.2690 -0.4413 -2.0118
15979TIP3   OH269427   0.031   6.079  13.864 -0.1351 -0.4355  0.2194
15979TIP3    H169428   0.118   6.088  13.826 -0.4517 -3.1323 -1.4341
15979TIP3    H269429   0.037   6.000  13.919 -1.3227 -0.1478  0.8151
15980TIP3   OH269430   5.809   1.730  11.114  0.0758  0.7073  0.3628
15980TIP3    H169431   5.728   1.700  11.154  0.5517 -0.9431  0.1890
15980TIP3    H269432   5.784   1.751  11.024  0.0448 -1.1018 -0.0956
15981TIP3   OH269433   3.313   1.649  16.953  0.6856  0.7243 -0.2653
15981TIP3    H169434   3.357   1.646  16.868 -1.0562  2.3346 -1.2946
15981TIP3    H269435   3.315   1.742  16.978 -0.2852  0.5242  0.6518
15982TIP3   OH269436   3.515   0.131   2.430 -0.1215 -0.0989 -0.0258
15982TIP3    H169437   3.477   0.075   2.498 -1.6326  0.0244 -0.7149
15982TIP3    H269438   3.559   0.201   2.478 -1.4918  0.1996  0.8508
15983TIP3   OH269439   4.238   1.187   2.554  0.4975  0.0574  0.3435
15983TIP3    H169440   4.290   1.180   2.474  0.6003  2.1582  0.1521
15983TIP3    H269441   4.166   1.246   2.530  0.3733  0.4928  1.7018
15984TIP3   OH269442   6.587   5.877  12.312  0.5807 -0.1842  0.2540
15984TIP3    H169443   6.517   5.824  12.350  1.8527 -0.3518  2.5760
15984TIP3    H269444   6.543   5.954  12.276 -0.7771  0.0077  2.1997
15985TIP3   OH269445   4.553   6.169   0.078 -0.6409 -0.1843 -0.2912
15985TIP3    H169446   4.572   6.244   0.134 -1.6755 -1.8243  2.5289
15985TIP3    H269447   4.503   6.110   0.135 -0.6537 -2.6148 -2.6314
15986TIP3   OH269448   6.680   0.520  12.782 -0.3289  0.2327 -0.5332
15986TIP3    H169449   6.718   0.606  12.764 -1.6583  1.1467  0.7284
15986TIP3    H269450   6.737   0.482  12.849 -0.3684  0.6124 -0.2833
15987TIP3   OH269451   3.097   4.859  14.185  1.0688  0.0226  0.1469
15987TIP3    H169452   3.047   4.892  14.110  0.6452  1.4410  1.0079
15987TIP3    H269453   3.057   4.775  14.205 -1.8399  1.5663  1.4763
15988TIP3   OH269454   0.691   5.407   0.995  0.5839  0.0369  0.2412
15988TIP3    H169455   0.636   5.452   1.059 -0.3381  1.7714 -1.6510
15988TIP3    H269456   0.667   5.315   1.002 -1.5062  0.5542  0.5137
15989TIP3   OH269457   2.219   2.279  10.630  0.2198  0.0854  0.2083
15989TIP3    H169458   2.306   2.251  10.657  0.1580  1.4314  2.0149
15989TIP3    H269459   2.161   2.207  10.656  0.4890  0.3104  1.5172
15990TIP3   OH269460   2.866   0.556  16.039  0.4086 -0.2366  0.5459
15990TIP3    H169461   2.896   0.496  16.108  3.2076  0.9513  0.4687
15990TIP3    H269462   2.842   0.636  16.086  1.0339  0.1186  0.2659
15991TIP3   OH269463   3.204   4.112   3.834 -0.0679  0.4733 -0.3424
15991TIP3    H169464   3.187   4.141   3.745  1.4079  0.5493 -0.6180
15991TIP3    H269465   3.252   4.184   3.874  2.0790 -0.7898 -0.4853
15992TIP3   OH269466   4.616   4.001   4.907  0.2976  0.2622 -0.1101
15992TIP3    H169467   4.521   4.006   4.915  0.0498 -1.5411 -1.2880
15992TIP3    H269468   4.639   4.074   4.849 -0.3291  0.8517  0.3700
15993TIP3   OH269469   2.587   1.425   4.341 -0.2809 -0.1506 -0.1579
15993TIP3    H169470   2.666   1.381   4.310 -0.5572 -1.4338  0.8568
15993TIP3    H269471   2.551   1.468   4.264  1.2859  0.2842 -0.6821
15994TIP3   OH269472   4.945   0.698   0.407  0.2928  0.0952  0.2806
15994TIP3    H169473   4.936   0.791   0.427 -0.6366 -0.3211  2.0141
15994TIP3    H269474   5.039   0.683   0.403  0.4612  1.3299 -1.2918
15995TIP3   OH269475   6.044   3.202  14.014  0.7448  0.1072 -0.1367
15995TIP3    H169476   5.957   3.164  14.025  0.8875 -0.0155  0.6073
15995TIP3    H269477   6.102   3.126  14.009  0.7645  0.1716 -1.1513
15996TIP3   OH269478   2.594   1.039   5.323 -0.0555 -0.6806 -0.2703
15996TIP3    H169479   2.572   1.040   5.416  1.4490  1.0762  0.1199
15996TIP3    H269480   2.681   0.999   5.319  0.6545  0.8091 -0.6639
15997TIP3   OH269481   6.365   1.827   2.003  0.0700  0.3662 -0.1905
15997TIP3    H169482   6.412   1.908   1.980  1.5836 -0.0962  1.1560
15997TIP3    H269483   6.368   1.823   2.098 -0.8409 -0.8091 -0.1881
15998TIP3   OH269484   1.219   5.998   2.443  0.5049  0.3244 -0.2365
15998TIP3    H169485   1.222   6.077   2.498 -0.3085  0.1711  0.0541
15998TIP3    H269486   1.216   5.926   2.506 -0.4179  0.1440 -0.4712
15999TIP3   OH269487   0.144   2.255  11.307 -0.5223 -0.1059  0.2477
15999TIP3    H169488   0.110   2.332  11.260  0.3735 -0.7075 -1.4749
15999TIP3    H269489   0.075   2.235  11.371 -0.2812  2.7776  1.5912
16000TIP3   OH269490   0.154   0.650  16.486  0.2108 -0.2968  0.3391
16000TIP3    H169491   0.160   0.738  16.449  1.5808 -0.7358 -0.5392
16000TIP3    H269492   0.242   0.633  16.521  0.1530 -1.5594 -0.0875
16001TIP3   OH269493   2.768   2.556   1.032  0.4096 -0.2540  0.3123
16001TIP3    H169494   2.705   2.498   1.075 -1.4843  1.1219 -0.4358
16001TIP3    H269495   2.713   2.621   0.987  2.3729  0.5639 -1.0388
16002TIP3   OH269496   5.300   4.162  16.038 -0.3469  0.1002  0.1287
16002TIP3    H169497   5.256   4.164  16.123 -0.4402 -0.2834  0.0908
16002TIP3    H269498   5.231   4.184  15.975 -0.3252  0.1838  0.1344
16003TIP3   OH269499   2.168   5.223  12.729 -0.3711  0.0836  0.5779
16003TIP3    H169500   2.223   5.165  12.677 -2.3100 -1.6642  0.3473
16003TIP3    H269501   2.203   5.311  12.712  1.3497 -0.7848 -0.7144
16004TIP3   OH269502   5.627   0.784   0.430  0.0383 -0.2707  0.0212
16004TIP3    H169503   5.568   0.849   0.470 -0.2121 -0.1977 -0.4674
16004TIP3    H269504   5.706   0.789   0.483  0.1096  0.6034 -0.1537
16005TIP3   OH269505   0.844   3.858  14.530 -0.7101  0.2449  0.2990
16005TIP3    H169506   0.782   3.915  14.577 -0.4025  0.1169  0.8648
16005TIP3    H269507   0.840   3.775  14.576 -0.7273 -0.0166 -0.1740
16006TIP3   OH269508   6.768   4.747  12.807  0.4667 -0.2567  0.6406
16006TIP3    H169509   6.797   4.656  12.800  0.9548 -0.0071 -1.1242
16006TIP3    H269510   6.697   4.756  12.743  1.8381  1.0784 -0.8001
16007TIP3   OH269511   4.069   1.880  14.575 -0.1669 -0.5787 -0.2547
16007TIP3    H169512   3.977   1.905  14.580  0.0596  0.0125  2.1815
16007TIP3    H269513   4.082   1.820  14.649  1.5050 -0.2147 -0.2002
16008TIP3   OH269514   1.650   6.847  14.258 -0.4753 -0.1243 -0.6433
16008TIP3    H169515   1.607   6.782  14.203  1.2797 -1.5469 -0.4197
16008TIP3    H269516   1.628   6.821  14.348  1.0058 -1.0388 -0.5135
16009TIP3   OH269517   1.747   0.267   1.684 -0.8067 -0.5253 -0.7627
16009TIP3    H169518   1.690   0.308   1.620 -2.1348  0.1340  0.7683
16009TIP3    H269519   1.687   0.223   1.744  0.4654 -2.5947 -0.9130
16010TIP3   OH269520   3.064   2.306  16.400  0.1411  0.0534 -0.7041
16010TIP3    H169521   3.095   2.304  16.310  1.2695 -1.0281 -0.3058
16010TIP3    H269522   3.101   2.228  16.441 -0.4323  0.4699  0.6764
16011TIP3   OH269523   6.841   6.271   0.495  0.2558  0.0452  1.0565
16011TIP3    H169524   6.775   6.203   0.507 -0.2314 -0.2080 -2.3434
16011TIP3    H269525   6.809   6.345   0.548 -2.3196 -0.3621  0.2080
16012TIP3   OH269526   3.497   0.331   1.453  0.2052 -0.5580 -0.0491
16012TIP3    H169527   3.465   0.253   1.407  0.1455  0.7843 -2.4219
16012TIP3    H269528   3.442   0.402   1.421 -0.1941  0.4128  2.5960
16013TIP3   OH269529   1.407   0.747   1.757 -0.8500  0.1315  0.0920
16013TIP3    H169530   1.464   0.702   1.819  0.4040  2.6735  0.9294
16013TIP3    H269531   1.322   0.702   1.765 -0.0407 -1.1917  1.7771
16014TIP3   OH269532   4.268   1.692  14.476 -0.1580  0.2422 -0.3195
16014TIP3    H169533   4.284   1.600  14.457 -1.5128 -0.1997  0.5216
16014TIP3    H269534   4.193   1.715  14.421 -0.2766  0.6322 -0.0041
16015TIP3   OH269535   2.763   1.924  15.785  0.0406  0.4735 -0.3227
16015TIP3    H169536   2.800   1.970  15.709  1.7026 -0.3944 -0.0843
16015TIP3    H269537   2.711   1.853  15.747  0.4853  0.3262 -0.6596
16016TIP3   OH269538   2.487   6.004   0.281 -0.1611 -0.0859 -0.3952
16016TIP3    H169539   2.478   6.011   0.186  0.3248 -2.0949 -0.6313
16016TIP3    H269540   2.506   6.093   0.310 -0.2949  0.5591 -2.1779
16017TIP3   OH269541   1.654   0.628   1.042 -0.0113  0.4634  0.0991
16017TIP3    H169542   1.586   0.694   1.057 -1.2656 -0.6727 -0.3456
16017TIP3    H269543   1.637   0.597   0.953 -0.2752 -1.3585  0.7485
16018TIP3   OH269544   4.503   1.149  15.669  0.1878 -0.1295 -0.2198
16018TIP3    H169545   4.585   1.194  15.650 -0.9027  1.1733 -2.2380
16018TIP3    H269546   4.488   1.093  15.593  0.8471 -3.0474  1.6620
16019TIP3   OH269547   2.433   1.325  14.978 -0.2210 -0.0237 -0.2514
16019TIP3    H169548   2.510   1.363  15.019  0.2603  0.6746 -1.7198
16019TIP3    H269549   2.460   1.307  14.888 -1.2093 -1.5447 -0.2886
16020TIP3   OH269550   2.570   2.981  15.282  0.2292 -0.0893 -0.1269
16020TIP3    H169551   2.519   2.961  15.361  1.3578  1.0239  0.9229
16020TIP3    H269552   2.659   2.953  15.303  0.2881 -1.1057 -1.5730
16021TIP3   OH269553   3.866   2.428   2.077  1.1182 -0.3681  0.1068
16021TIP3    H169554   3.830   2.341   2.096  1.6189 -0.7384 -0.5954
16021TIP3    H269555   3.920   2.415   1.999  1.0673  0.6128 -0.1025
16022TIP3   OH269556   1.477   4.735  11.384  0.6617 -0.1994  0.2694
16022TIP3    H169557   1.447   4.811  11.435 -0.3924  0.8146 -1.7476
16022TIP3    H269558   1.568   4.723  11.412  1.0091  2.0832  0.3751
16023TIP3   OH269559   4.849   1.093  15.540 -0.1915  0.4187  0.7018
16023TIP3    H169560   4.800   1.175  15.531 -2.0431 -0.7784 -1.0650
16023TIP3    H269561   4.926   1.105  15.486  1.0217  1.9071  2.5994
16024TIP3   OH269562   4.325   1.832   0.167  0.1974  0.1633 -0.0126
16024TIP3    H169563   4.288   1.890   0.101  2.2847 -0.9444 -2.3320
16024TIP3    H269564   4.269   1.754   0.165  0.1441  0.2116 -0.3516
16025TIP3   OH269565   5.852   5.377   3.968 -0.0464  0.3356  0.5785
16025TIP3    H169566   5.886   5.307   4.024  1.6681  0.6461  0.0029
16025TIP3    H269567   5.927   5.401   3.913 -0.8424  2.0570  0.1952
16026TIP3   OH269568   3.952   5.632  12.161  0.5296  0.0013  0.9420
16026TIP3    H169569   3.991   5.591  12.239  1.0329  0.9217  1.1867
16026TIP3    H269570   3.905   5.708  12.195 -0.9034 -0.6851  0.5595
16027TIP3   OH269571   3.826   2.498   4.286  0.2808  0.4122 -0.1501
16027TIP3    H169572   3.740   2.476   4.321  0.9800 -1.0940  0.7448
16027TIP3    H269573   3.843   2.587   4.317  0.1389 -0.2414  1.9047
16028TIP3   OH269574   1.900   0.679   2.647 -0.7118 -0.1292  0.4099
16028TIP3    H169575   1.858   0.765   2.643 -1.6482 -0.5148  1.4147
16028TIP3    H269576   1.916   0.657   2.555  0.9552  1.7624  0.1803
16029TIP3   OH269577   2.779   0.182   0.274  0.3697 -0.0534  0.0653
16029TIP3    H169578   2.842   0.231   0.327  0.3879 -1.2166  1.1629
16029TIP3    H269579   2.726   0.249   0.232  1.3161  0.9233  0.3927
16030TIP3   OH269580   6.312   6.805  11.630 -0.3999 -0.3045 -0.1440
16030TIP3    H169581   6.368   6.757  11.569  0.8258  0.3887  0.3933
16030TIP3    H269582   6.231   6.822  11.581 -0.3835 -1.8475 -0.7359
16031TIP3   OH269583   0.319   1.811   4.546 -0.8200  0.1929 -0.7161
16031TIP3    H169584   0.329   1.785   4.455 -2.2590  2.4166 -1.5750
16031TIP3    H269585   0.268   1.741   4.586  0.6617 -1.2970 -1.2966
16032TIP3   OH269586   0.176   6.470   3.646  0.0133 -0.1950 -0.3265
16032TIP3    H169587   0.185   6.427   3.731 -0.7719 -0.1951 -0.2307
16032TIP3    H269588   0.181   6.563   3.666  0.9364 -0.2201 -0.4300
16033TIP3   OH269589   6.178   3.485   4.391 -0.1395  0.1161 -0.2774
16033TIP3    H169590   6.159   3.471   4.299  0.1753 -1.1238 -0.1644
16033TIP3    H269591   6.108   3.440   4.438  1.0264 -1.4119  0.0921
16034TIP3   OH269592   0.828   0.558   1.404  0.0118  0.0581  0.1843
16034TIP3    H169593   0.897   0.530   1.465  0.3942 -1.6393 -0.9473
16034TIP3    H269594   0.770   0.482   1.397 -0.9012  0.7837 -0.3635
16035TIP3   OH269595   6.157   3.622  14.449  0.0993 -0.2112  0.2458
16035TIP3    H169596   6.066   3.632  14.477 -0.1774  0.4844 -0.8172
16035TIP3    H269597   6.152   3.602  14.356  1.0364  0.2601  0.0733
16036TIP3   OH269598   4.280   2.891  16.409 -0.4461  0.2568  0.1644
16036TIP3    H169599   4.368   2.929  16.407 -0.6410  0.7115 -1.8294
16036TIP3    H269600   4.289   2.814  16.465  0.7329  1.3770  1.6036
16037TIP3   OH269601   3.274   2.515   2.898 -0.0106 -0.1109 -0.0302
16037TIP3    H169602   3.226   2.474   2.970  2.6007  0.1553  2.0345
16037TIP3    H269603   3.286   2.606   2.927  2.7359 -0.4692  0.2286
16038TIP3   OH269604   4.023   1.275  11.166 -0.2699 -0.2680 -0.4988
16038TIP3    H169605   4.115   1.275  11.193 -0.2986 -0.6759 -0.4059
16038TIP3    H269606   4.010   1.362  11.128 -0.0277  0.0459  0.1121
16039TIP3   OH269607   4.895   0.125   2.900 -0.2982  0.0401  0.2621
16039TIP3    H169608   4.891   0.093   2.810  0.6147 -2.5652  1.0501
16039TIP3    H269609   4.820   0.184   2.908 -0.1624  0.6745 -2.2720
16040TIP3   OH269610   6.274   1.149   6.512  0.1509  0.3200  0.0405
16040TIP3    H169611   6.344   1.088   6.537  0.2036  0.9272  1.4304
16040TIP3    H269612   6.292   1.169   6.420  0.4687 -1.2946 -0.2821
16041TIP3   OH269613   5.702   4.010  14.948  0.0580 -0.1480 -0.3311
16041TIP3    H169614   5.635   3.942  14.955 -0.7774  0.6496 -0.3684
16041TIP3    H269615   5.703   4.032  14.854 -0.8700  1.0257 -0.1004
16042TIP3   OH269616   0.644   2.087   6.474 -0.0188 -0.5075  0.4398
16042TIP3    H169617   0.667   2.132   6.555  2.0545  0.6555 -0.7181
16042TIP3    H269618   0.594   2.152   6.425  1.7700  0.1220 -0.6438
16043TIP3   OH269619   0.582   5.573  16.278 -0.0924 -0.3915  0.0297
16043TIP3    H169620   0.535   5.612  16.353  1.3112 -0.0674  0.7805
16043TIP3    H269621   0.587   5.644  16.214  0.4320 -0.0414  0.4498
16044TIP3   OH269622   2.789   2.460  15.770  0.3340 -0.2496  0.0183
16044TIP3    H169623   2.777   2.380  15.719  1.7206 -0.1700 -0.4855
16044TIP3    H269624   2.884   2.468  15.780  0.1440  0.4206  1.5461
16045TIP3   OH269625   5.888   4.332   0.269 -0.2237  0.1055  0.1438
16045TIP3    H169626   5.898   4.378   0.353 -1.3355 -1.4687  1.2158
16045TIP3    H269627   5.873   4.241   0.295 -1.4092 -0.2797 -1.7544
16046TIP3   OH269628   1.435   4.446  14.107  0.1677 -0.0410 -0.0365
16046TIP3    H169629   1.383   4.470  14.031 -0.2096 -0.9800 -0.0902
16046TIP3    H269630   1.371   4.419  14.173  0.5535 -1.5092 -0.2075
16047TIP3   OH269631   0.389   2.839  13.625 -0.1207  0.0018 -0.2653
16047TIP3    H169632   0.319   2.833  13.690 -0.8999  0.1641 -1.0744
16047TIP3    H269633   0.442   2.914  13.653 -0.9726  0.6370 -0.3147
16048TIP3   OH269634   6.243   4.683   0.676 -0.0461 -0.2989  0.1887
16048TIP3    H169635   6.151   4.681   0.701 -0.1598 -0.6802 -0.2619
16048TIP3    H269636   6.288   4.715   0.755 -0.5471 -0.2151  0.4445
16049TIP3   OH269637   0.438   3.438  12.065 -0.8590  0.5153 -0.2265
16049TIP3    H169638   0.528   3.416  12.088 -0.8530  1.8608  1.1409
16049TIP3    H269639   0.446   3.512  12.005 -1.0261 -0.5591 -1.6355
16050TIP3   OH269640   2.529   4.601  16.904 -0.2238  0.2768 -0.4577
16050TIP3    H169641   2.599   4.659  16.933  1.9172 -1.9002 -0.9533
16050TIP3    H269642   2.517   4.623  16.811  0.2341  0.2772 -0.5210
16051TIP3   OH269643   1.578   2.491   4.549 -0.6033 -0.4833 -0.3338
16051TIP3    H169644   1.632   2.413   4.552  0.2652  0.1109  0.3243
16051TIP3    H269645   1.506   2.470   4.489  0.3743 -1.2805 -1.2519
16052TIP3   OH269646   0.647   4.589   3.173  0.0124 -0.2670  0.1466
16052TIP3    H169647   0.591   4.525   3.217 -0.2010  1.3673  2.4528
16052TIP3    H269648   0.673   4.547   3.091 -1.0117 -2.8176  1.0442
16053TIP3   OH269649   5.429   3.786  14.977  0.5799  0.4266  0.9031
16053TIP3    H169650   5.439   3.840  15.055  1.7926  1.9731 -0.2587
16053TIP3    H269651   5.489   3.712  14.991  0.4142  0.4268  1.6336
16054TIP3   OH269652   0.067   1.906   5.164  0.6117  0.4299  0.5927
16054TIP3    H169653   0.081   1.965   5.090  0.5862 -0.2870  0.0066
16054TIP3    H269654   0.132   1.933   5.229  0.9186  0.7883  0.1441
16055TIP3   OH269655   2.194   6.402   0.246 -0.6092  0.4015  0.3651
16055TIP3    H169656   2.114   6.396   0.194 -1.7730  1.1025  1.9890
16055TIP3    H269657   2.261   6.433   0.184 -1.7429  0.4807 -0.8618
16056TIP3   OH269658   1.213   3.651  15.982 -0.2368 -0.3251  0.1757
16056TIP3    H169659   1.138   3.706  15.957 -0.2674 -0.6747 -0.5216
16056TIP3    H269660   1.180   3.561  15.976  0.5298 -0.5391 -1.1835
16057TIP3   OH269661   4.971   3.134  11.757 -0.0285  0.2071 -0.3682
16057TIP3    H169662   4.907   3.148  11.826 -1.9190 -1.3140 -1.7090
16057TIP3    H269663   5.048   3.098  11.803 -0.6806  0.5818  1.0813
16058TIP3   OH269664   2.280   0.368   0.911 -0.2152 -0.4815 -0.2479
16058TIP3    H169665   2.213   0.362   0.980 -1.4614 -1.1397 -1.4612
16058TIP3    H269666   2.357   0.404   0.956 -1.1227 -0.4365  1.3747
16059TIP3   OH269667   3.690   6.446  15.158  0.2237 -0.3645 -0.5845
16059TIP3    H169668   3.780   6.445  15.189  0.4366  0.1280 -1.1657
16059TIP3    H269669   3.649   6.370  15.200  1.0734 -0.9466 -0.7911
16060TIP3   OH269670   1.316   0.581  12.818 -0.4998  0.0099 -0.3993
16060TIP3    H169671   1.290   0.657  12.767 -0.6379  0.1601 -0.1083
16060TIP3    H269672   1.360   0.523  12.755  0.5175  0.7804 -0.4203
16061TIP3   OH269673   4.595   3.317   1.995 -0.2815  0.2865  0.1623
16061TIP3    H169674   4.675   3.277   1.961 -0.3972  1.1394 -1.1815
16061TIP3    H269675   4.546   3.244   2.033 -0.2854 -0.8135 -1.8292
16062TIP3   OH269676   0.541   1.295  14.850 -0.0415  0.3233 -0.1278
16062TIP3    H169677   0.500   1.373  14.888 -0.2801 -0.4995  1.3739
16062TIP3    H269678   0.635   1.307  14.866  0.0058  0.6821 -0.6491
16063TIP3   OH269679   2.579   0.777  14.752  0.8979  0.5205  0.2499
16063TIP3    H169680   2.530   0.822  14.683  0.3814  0.6997  0.7211
16063TIP3    H269681   2.630   0.710  14.706 -0.9222 -0.6777 -0.1212
16064TIP3   OH269682   6.469   0.563  11.929  0.2648  0.6761 -0.2117
16064TIP3    H169683   6.390   0.615  11.921 -1.1036 -1.5310 -2.5550
16064TIP3    H269684   6.438   0.474  11.946  2.2951 -0.0679 -0.0892
16065TIP3   OH269685   1.229   0.219  12.989  0.5240  0.8798 -0.3895
16065TIP3    H169686   1.278   0.264  13.057  1.6319  0.9721 -1.2252
16065TIP3    H269687   1.293   0.201  12.920  0.6375 -3.4338  0.5245
16066TIP3   OH269688   1.384   6.412   4.489 -0.3643 -0.0043  0.5857
16066TIP3    H169689   1.388   6.466   4.568  2.6059 -1.6848  1.7438
16066TIP3    H269690   1.297   6.370   4.494 -0.5506  0.5022  2.5782
16067TIP3   OH269691   5.012   6.746  12.640 -0.2851 -0.4150  0.2630
16067TIP3    H169692   4.957   6.769  12.565  0.5113 -0.6495 -0.4017
16067TIP3    H269693   4.972   6.793  12.714  0.2097  1.6099 -0.7024
16068TIP3   OH269694   0.367   4.197   0.176 -0.0662 -0.4256  0.3666
16068TIP3    H169695   0.461   4.206   0.188 -0.0557 -1.1448  0.8783
16068TIP3    H269696   0.329   4.271   0.223  0.1382 -1.4728  2.2917
16069TIP3   OH269697   0.118   0.523  14.576  0.2552  0.0008 -0.1852
16069TIP3    H169698   0.035   0.482  14.552 -2.5134  4.5878  0.2955
16069TIP3    H269699   0.138   0.487  14.663 -1.1380 -1.3547 -0.3807
16070TIP3   OH269700   5.639   1.287   2.020  0.4919  0.0098 -0.6147
16070TIP3    H169701   5.605   1.248   1.939  2.0871  0.8925 -1.7620
16070TIP3    H269702   5.734   1.286   2.009  0.7471  0.1321  1.2851
16071TIP3   OH269703   2.937   6.519   3.556 -0.3014  0.3332  0.0573
16071TIP3    H169704   2.877   6.457   3.599  1.3778 -1.8106 -0.4959
16071TIP3    H269705   2.902   6.530   3.468 -0.0525 -0.7274 -0.1887
16072TIP3   OH269706   5.826   3.312   1.336 -0.5670 -0.2922 -0.0440
16072TIP3    H169707   5.754   3.297   1.398  0.0104 -0.3123  0.6423
16072TIP3    H269708   5.881   3.234   1.344  0.4603  0.4825  0.7572
16073TIP3   OH269709   5.231   0.458   2.541  0.6413 -0.5157 -0.5599
16073TIP3    H169710   5.216   0.519   2.613  0.0494  0.0699 -1.1683
16073TIP3    H269711   5.144   0.442   2.505  0.9661 -0.5564 -1.3394
16074TIP3   OH269712   0.552   1.238  13.309 -0.2435 -0.1372  0.4914
16074TIP3    H169713   0.482   1.250  13.245  0.5103  0.4918 -0.2296
16074TIP3    H269714   0.530   1.298  13.380 -0.1710  0.4388  0.0332
16075TIP3   OH269715   0.130   0.268   0.648  0.0344  0.4753  0.1735
16075TIP3    H169716   0.174   0.319   0.579  2.7286 -0.0023  1.4226
16075TIP3    H269717   0.155   0.311   0.729 -2.5250  0.6064  0.9734
16076TIP3   OH269718   6.328   0.149  13.484  0.3057  0.1262  0.2509
16076TIP3    H169719   6.245   0.187  13.510 -0.0489  2.7389 -3.7491
16076TIP3    H269720   6.394   0.198  13.534 -0.4398  0.8973  0.4917
16077TIP3   OH269721   3.309   0.691  14.943 -0.1872  0.5134  0.0449
16077TIP3    H169722   3.335   0.614  14.994 -1.0803  1.4818  2.0971
16077TIP3    H269723   3.388   0.714  14.894  0.9648 -0.1144  1.4972
16078TIP3   OH269724   1.331   0.156   3.743  0.2348 -0.2168  0.3675
16078TIP3    H169725   1.276   0.078   3.737  1.2493 -0.8664 -0.9019
16078TIP3    H269726   1.330   0.192   3.655  2.3630 -0.6312  0.1356
16079TIP3   OH269727   6.549   4.358   5.653  0.3410  0.0021  0.2865
16079TIP3    H169728   6.628   4.332   5.605 -0.3769 -0.4264 -0.7043
16079TIP3    H269729   6.495   4.279   5.654  0.6573 -0.2342  2.5199
16080TIP3   OH269730   5.454   0.182  13.568  0.1192  0.7212 -0.3476
16080TIP3    H169731   5.421   0.270  13.547 -1.1282  0.2281 -0.5169
16080TIP3    H269732   5.388   0.123  13.533  0.3591 -0.2555  0.8171
16081TIP3   OH269733   4.059   4.029  16.956  0.4996  0.7145  0.3399
16081TIP3    H169734   4.006   3.988  17.024 -1.4894 -0.9126 -1.9767
16081TIP3    H269735   4.145   3.989  16.964  0.0346 -0.1190  1.3199
16082TIP3   OH269736   0.682   3.720   5.390 -0.2384  0.0481  0.1181
16082TIP3    H169737   0.625   3.645   5.408 -0.1583  0.1938  1.0303
16082TIP3    H269738   0.767   3.682   5.371  0.6667 -0.0918  3.6932
16083TIP3   OH269739   4.766   4.088   3.621  0.1203  0.7538  0.2306
16083TIP3    H169740   4.787   4.054   3.708  0.8417 -1.2175 -0.6656
16083TIP3    H269741   4.847   4.130   3.592  0.2300  0.4216  0.0589
16084TIP3   OH269742   6.231   6.781   4.535 -0.6654  0.5300  0.6719
16084TIP3    H169743   6.139   6.758   4.522 -0.2659 -1.2186  0.6937
16084TIP3    H269744   6.279   6.714   4.487  0.6295  0.8323  1.5023
16085TIP3   OH269745   6.402   5.951   3.755  0.3610 -0.1038 -0.1758
16085TIP3    H169746   6.348   6.028   3.737 -0.2872 -0.3558  0.6300
16085TIP3    H269747   6.418   5.956   3.849  1.0971 -0.4576 -0.2805
16086TIP3   OH269748   4.579   5.276   3.606  0.4233 -0.2645 -0.2107
16086TIP3    H169749   4.662   5.242   3.636 -0.8586 -1.7816  1.8508
16086TIP3    H269750   4.535   5.309   3.684 -1.4683 -0.7510 -0.9947
16087TIP3   OH269751   4.720   5.028   5.883 -0.2897  0.3142  0.7748
16087TIP3    H169752   4.747   5.057   5.970 -0.6942 -0.1923  1.0770
16087TIP3    H269753   4.719   4.932   5.888  0.4374  0.2496 -0.0267
16088TIP3   OH269754   3.956   2.140  11.204  0.0210  0.1936  0.0674
16088TIP3    H169755   3.938   2.230  11.179 -0.0636 -0.0188 -0.6586
16088TIP3    H269756   4.048   2.127  11.185  0.1452  0.2552  0.5970
16089TIP3   OH269757   1.797   0.794   4.151  0.5171  0.0874 -0.0951
16089TIP3    H169758   1.795   0.700   4.172  1.2930 -0.0252 -0.4888
16089TIP3    H269759   1.875   0.827   4.196 -0.5328  0.8455  1.2163
16090TIP3   OH269760   4.190   6.354   0.099 -0.2313 -0.6024 -0.8659
16090TIP3    H169761   4.108   6.379   0.057 -0.0710 -0.0726 -0.8753
16090TIP3    H269762   4.173   6.362   0.193 -0.5832 -1.7668 -0.8096
16091TIP3   OH269763   2.326   5.135  16.441  0.0291  0.8149 -0.1777
16091TIP3    H169764   2.304   5.051  16.481  0.7269 -0.6897 -2.7931
16091TIP3    H269765   2.282   5.200  16.497 -1.5654 -1.3256  1.2044
16092TIP3   OH269766   6.846   2.159  15.980  0.6514 -0.1671 -0.2391
16092TIP3    H169767   6.790   2.160  16.058  1.2751 -0.0097  0.2142
16092TIP3    H269768   6.859   2.066  15.961 -0.0416 -0.2046 -0.5540
16093TIP3   OH269769   2.359   3.761   5.739  0.0180  0.5448  0.1008
16093TIP3    H169770   2.394   3.771   5.828  0.4596  0.4283 -0.0575
16093TIP3    H269771   2.323   3.848   5.718  1.1075  0.9636 -0.1114
16094TIP3   OH269772   4.441   5.410   1.404  0.1643 -0.2618  0.1348
16094TIP3    H169773   4.492   5.342   1.449 -0.3423  0.3005  1.6476
16094TIP3    H269774   4.429   5.376   1.316  1.1034 -1.4998  0.4371
16095TIP3   OH269775   4.621   4.112  11.891 -0.3211  0.2450  0.1244
16095TIP3    H169776   4.627   4.208  11.889  1.2235  0.1833  0.5338
16095TIP3    H269777   4.668   4.083  11.813  0.6591 -0.2103  0.8649
16096TIP3   OH269778   6.487   3.460  11.655  0.4059  0.2432  0.0289
16096TIP3    H169779   6.509   3.444  11.747  0.1743  1.2406  0.2659
16096TIP3    H269780   6.417   3.398  11.636 -0.0762  0.5526  0.7533
16097TIP3   OH269781   1.178   5.799  11.184  0.1923  0.1571 -0.4878
16097TIP3    H169782   1.227   5.873  11.219 -1.7318  1.4768 -0.4556
16097TIP3    H269783   1.239   5.758  11.122  1.2541  1.8673 -0.6640
16098TIP3   OH269784   6.688   4.747   1.725  0.4638  0.4003 -0.7008
16098TIP3    H169785   6.606   4.796   1.734  0.9064  1.0619 -0.2488
16098TIP3    H269786   6.665   4.658   1.752 -0.7900 -0.1514 -3.2595
16099TIP3   OH269787   0.764   4.356  15.057  0.4482 -0.2507 -0.3589
16099TIP3    H169788   0.670   4.376  15.056  0.3215 -0.8522 -1.0521
16099TIP3    H269789   0.800   4.410  14.987  0.9245  1.3410  1.0596
16100TIP3   OH269790   3.312   1.718  16.233  0.9314 -0.6398  0.0461
16100TIP3    H169791   3.226   1.739  16.198  0.5747  0.9954  1.7202
16100TIP3    H269792   3.373   1.772  16.183  0.8476 -0.9202 -0.3599
16101TIP3   OH269793   4.050   0.248   5.733 -0.1719  0.0493  0.3152
16101TIP3    H169794   4.062   0.225   5.641 -1.6212  0.5445 -0.0284
16101TIP3    H269795   3.960   0.282   5.738  0.4477  1.6245  1.5935
16102TIP3   OH269796   5.772   2.332  13.436 -0.2356  0.4777  0.4438
16102TIP3    H169797   5.687   2.366  13.409 -0.3236 -0.9810 -1.2789
16102TIP3    H269798   5.835   2.397  13.407 -0.6459  0.8358  0.3568
16103TIP3   OH269799   5.015   1.349   0.973 -0.3571  0.4221 -0.2932
16103TIP3    H169800   5.102   1.364   1.010 -0.3231  2.0777 -0.9710
16103TIP3    H269801   4.961   1.322   1.048  0.8039 -1.1011  0.0545
16104TIP3   OH269802   4.090   4.518   1.388 -0.2818  0.1592 -0.2250
16104TIP3    H169803   4.058   4.495   1.301  0.7285 -0.4945 -0.4486
16104TIP3    H269804   4.186   4.511   1.381 -0.1644  0.4759  0.8323
16105TIP3   OH269805   4.955   4.474   0.958 -0.8250  0.0142  0.1925
16105TIP3    H169806   4.933   4.387   0.925 -2.3150  0.3139  0.3039
16105TIP3    H269807   4.871   4.509   0.991 -0.2199  1.3998  0.3406
16106TIP3   OH269808   3.833   1.797   5.962 -0.1795  0.6156  0.2080
16106TIP3    H169809   3.888   1.735   5.914 -0.9239  1.6655 -2.2043
16106TIP3    H269810   3.788   1.744   6.027 -0.9288 -1.4908 -1.8619
16107TIP3   OH269811   1.681   3.848   5.540 -0.2648  0.3000 -0.2790
16107TIP3    H169812   1.693   3.918   5.604  2.1465  0.2395 -0.5994
16107TIP3    H269813   1.677   3.768   5.592  1.1510  0.3020 -0.1414
16108TIP3   OH269814   0.083   3.963  16.867 -0.3433  0.0987  0.0284
16108TIP3    H169815   0.174   3.960  16.839 -0.0841  0.7194  0.7822
16108TIP3    H269816   0.033   3.956  16.785  0.3306 -2.1181 -0.2503
16109TIP3   OH269817   1.455   2.755   2.434 -0.0871 -0.4027  0.3454
16109TIP3    H169818   1.539   2.798   2.451  0.1007 -0.1763 -1.0252
16109TIP3    H269819   1.474   2.662   2.443 -0.2855 -0.2890  2.4308
16110TIP3   OH269820   6.035   1.592  15.763  0.2765 -0.1249 -0.6690
16110TIP3    H169821   5.976   1.528  15.803  1.3063 -0.4987  0.3215
16110TIP3    H269822   5.994   1.677  15.779 -0.5170 -0.4568 -0.9353
16111TIP3   OH269823   5.377   0.323  12.462  0.0894 -0.3522 -0.1914
16111TIP3    H169824   5.422   0.298  12.381 -2.3649 -0.2357 -1.7212
16111TIP3    H269825   5.297   0.368  12.431 -1.5217 -1.3444  2.2707
16112TIP3   OH269826   6.721   4.100  14.289  0.1305  0.2855 -0.4679
16112TIP3    H169827   6.703   4.190  14.317  0.5657  0.5267 -0.9440
16112TIP3    H269828   6.642   4.051  14.313 -0.9956  1.2078 -2.0926
16113TIP3   OH269829   2.309   5.223  12.191  0.1503 -0.6183  0.2097
16113TIP3    H169830   2.264   5.164  12.130  2.1017 -0.3463 -1.6236
16113TIP3    H269831   2.308   5.308  12.147  3.0331 -0.7523 -0.3508
16114TIP3   OH269832   3.880   3.688   5.731  0.0574  0.7310 -0.1935
16114TIP3    H169833   3.887   3.656   5.821  1.7864  0.6487 -0.3259
16114TIP3    H269834   3.788   3.675   5.708 -0.0534 -0.8514  0.9797
16115TIP3   OH269835   2.641   6.852  14.793 -0.1134 -0.2764  0.2305
16115TIP3    H169836   2.602   6.867  14.880 -0.6236 -1.5643  0.2456
16115TIP3    H269837   2.732   6.830  14.812  0.3236  1.4161  0.2820
16116TIP3   OH269838   0.947   5.837   5.571  0.7477 -0.0049 -0.4086
16116TIP3    H169839   0.958   5.930   5.592 -0.4740  0.1373 -0.3324
16116TIP3    H269840   0.939   5.794   5.656 -2.1483  0.3034 -0.4371
16117TIP3   OH269841   0.685   4.362   5.498  0.7451  0.3259  0.4352
16117TIP3    H169842   0.763   4.309   5.482  2.2598  2.7489 -0.7700
16117TIP3    H269843   0.716   4.436   5.550 -0.9993  0.7835  0.8826
16118TIP3   OH269844   0.211   5.108   2.245  0.2233 -0.5323 -0.5679
16118TIP3    H169845   0.126   5.087   2.205  0.2954  0.1395 -1.0901
16118TIP3    H269846   0.202   5.081   2.336 -0.9703  0.6294 -0.3164
16119TIP3   OH269847   4.249   5.136   0.710 -0.2224  0.7267  0.1759
16119TIP3    H169848   4.344   5.139   0.723 -0.0109  1.1341 -1.2838
16119TIP3    H269849   4.237   5.073   0.639 -1.0737  0.5291  0.4903
16120TIP3   OH269850   5.971   6.007   5.934 -0.1070  0.1641  0.6048
16120TIP3    H169851   5.914   6.081   5.911 -1.8477 -1.5184 -0.7557
16120TIP3    H269852   5.936   5.976   6.018  1.4303  1.5644  1.8521
16121TIP3   OH269853   5.742   0.405   3.336  0.2226 -0.5056  0.2023
16121TIP3    H169854   5.683   0.433   3.406 -1.6106 -0.9131 -1.0969
16121TIP3    H269855   5.827   0.392   3.379 -0.7191 -0.2689  2.2274
16122TIP3   OH269856   5.912   3.259   6.418  0.1716  0.0344 -0.1013
16122TIP3    H169857   5.909   3.172   6.458  1.3985 -1.1831 -2.4472
16122TIP3    H269858   5.973   3.309   6.473  0.0964 -0.8282  0.7944
16123TIP3   OH269859   0.457   3.469   0.047 -0.1301  0.5537 -0.1495
16123TIP3    H169860   0.396   3.513   0.106 -0.3120 -0.0683  0.1271
16123TIP3    H269861   0.543   3.487   0.085 -0.1673  1.0204 -0.2728
16124TIP3   OH269862   3.737   6.308  10.806  0.4384  0.3069  0.3347
16124TIP3    H169863   3.715   6.262  10.725  2.8460 -0.8091  0.2374
16124TIP3    H269864   3.739   6.240  10.872  0.8064  0.8281  0.8692
16125TIP3   OH269865   0.577   4.565   3.569 -0.0518  0.5942 -0.1201
16125TIP3    H169866   0.585   4.644   3.517  0.4119  0.6461  0.0286
16125TIP3    H269867   0.494   4.576   3.617 -0.1002  0.8827 -0.2709
16126TIP3   OH269868   2.638   6.168   5.078  0.0656  0.2704 -0.0139
16126TIP3    H169869   2.659   6.217   4.998  0.6900  2.2690  1.2889
16126TIP3    H269870   2.551   6.131   5.062  0.7981 -0.6741 -2.1619
16127TIP3   OH269871   4.848   1.128   3.823 -0.1548 -0.3813 -0.0924
16127TIP3    H169872   4.775   1.185   3.848 -0.3172 -0.5804 -0.1044
16127TIP3    H269873   4.830   1.105   3.732 -0.0936 -0.4536 -0.0863
16128TIP3   OH269874   6.813   4.685   4.967 -0.1420  0.3477  0.1106
16128TIP3    H169875   6.848   4.609   4.920  0.7197  0.0064  1.2538
16128TIP3    H269876   6.722   4.664   4.984  0.2337 -0.7073  0.9170
16129TIP3   OH269877   6.138   0.041  15.821  0.0412 -0.0404  0.1064
16129TIP3    H169878   6.215   0.083  15.783 -0.6215 -0.4169 -1.7849
16129TIP3    H269879   6.094  -0.001  15.747 -1.1726 -1.1383  1.3733
16130TIP3   OH269880   5.833   6.786  10.516  0.3520 -0.1195 -0.3711
16130TIP3    H169881   5.856   6.779  10.424 -0.0697 -1.1933 -0.4122
16130TIP3    H269882   5.745   6.824  10.516 -0.8159 -2.6083 -0.5927
16131TIP3   OH269883   2.036   1.091   3.308  0.1070  0.1510  0.1471
16131TIP3    H169884   1.983   1.068   3.232  0.1796  0.0540  0.1259
16131TIP3    H269885   2.115   1.037   3.300  1.1343  1.7015 -0.8992
16132TIP3   OH269886   1.818   3.852   0.076 -0.1327  0.2190  0.0885
16132TIP3    H169887   1.818   3.938   0.036 -1.4248 -0.3945 -1.3271
16132TIP3    H269888   1.755   3.859   0.148  0.6785  0.7572  0.7737
16133TIP3   OH269889   5.831   2.899   4.625 -0.1214 -0.4755 -0.9535
16133TIP3    H169890   5.877   2.881   4.708  2.1834 -0.2260 -2.0908
16133TIP3    H269891   5.740   2.912   4.651  0.2218 -2.0201  1.3403
16134TIP3   OH269892   3.686   1.375   1.156 -0.4737 -0.6550 -0.0749
16134TIP3    H169893   3.770   1.334   1.136 -0.6592 -0.5855 -1.0472
16134TIP3    H269894   3.662   1.422   1.076  0.0489  1.9390  1.1951
16135TIP3   OH269895   4.248   5.848   0.943 -0.4269  0.0514  0.9119
16135TIP3    H169896   4.304   5.914   0.902 -0.0680 -0.6401  0.2518
16135TIP3    H269897   4.170   5.897   0.970 -1.0453  0.4368 -1.3372
16136TIP3   OH269898   3.115   0.973   2.712 -0.1126 -0.1305 -0.3160
16136TIP3    H169899   3.040   0.924   2.679  0.8587 -2.1802  0.3243
16136TIP3    H269900   3.087   1.007   2.797  0.1634 -2.4684  0.8128
16137TIP3   OH269901   5.742   3.332  14.880  0.0757 -0.0232 -0.7093
16137TIP3    H169902   5.795   3.358  14.805  0.9585 -2.5081 -1.0374
16137TIP3    H269903   5.671   3.280  14.842 -0.4479  0.1238  0.0476
16138TIP3   OH269904   0.192   5.422   1.457  0.0634  0.0286 -0.1035
16138TIP3    H169905   0.157   5.389   1.374 -0.8416 -1.5306  0.8452
16138TIP3    H269906   0.118   5.418   1.518  1.1916 -0.8157  1.2856
16139TIP3   OH269907   0.802   6.042  14.020  0.2825  0.3721 -0.0243
16139TIP3    H169908   0.882   5.991  14.028  0.7747  1.0905 -0.2038
16139TIP3    H269909   0.816   6.096  13.942 -0.6926 -0.0424 -0.4977
16140TIP3   OH269910   3.605   0.845  12.115 -0.9841 -0.1682 -0.0116
16140TIP3    H169911   3.691   0.836  12.074 -1.2951 -0.1426 -0.6865
16140TIP3    H269912   3.600   0.773  12.178 -0.7131 -0.5383 -0.4099
16141TIP3   OH269913   1.489   2.231  13.027 -0.5956  0.1113 -0.4857
16141TIP3    H169914   1.396   2.235  13.048 -0.8428 -0.5409 -1.3925
16141TIP3    H269915   1.504   2.140  13.001  0.0872  0.4304 -1.2481
16142TIP3   OH269916   0.173   5.628  13.450 -0.4529 -0.0048  0.3190
16142TIP3    H169917   0.261   5.635  13.414 -0.3376  1.1727  0.7956
16142TIP3    H269918   0.163   5.535  13.470 -0.0150 -0.4787 -1.4406
16143TIP3   OH269919   4.086   0.608  10.590 -0.0797  0.2755  0.2063
16143TIP3    H169920   4.167   0.658  10.589  0.0861  0.0116  0.5111
16143TIP3    H269921   4.112   0.521  10.620 -0.8994  0.9242  3.1261
16144TIP3   OH269922   1.468   2.042   5.971 -0.0467 -1.0535 -0.7962
16144TIP3    H169923   1.388   1.990   5.974 -1.5981  1.2304 -0.5493
16144TIP3    H269924   1.470   2.078   5.882  1.1409 -1.6651 -1.0405
16145TIP3   OH269925   3.528   2.612   5.893  0.6164 -0.1312  0.1196
16145TIP3    H169926   3.575   2.664   5.958  3.2638 -2.2419  0.0805
16145TIP3    H269927   3.438   2.610   5.924  1.4862  0.1557  2.9246
16146TIP3   OH269928   2.417   4.539  11.136 -0.3284  0.2684  0.5192
16146TIP3    H169929   2.393   4.490  11.215  0.9187 -0.6923  0.3405
16146TIP3    H269930   2.399   4.479  11.064 -1.7204  1.2402  0.0267
16147TIP3   OH269931   3.737   3.603  11.611  0.4579  0.1955  0.8593
16147TIP3    H169932   3.669   3.657  11.652 -0.6818 -1.7068  1.6310
16147TIP3    H269933   3.787   3.569  11.685 -0.4413 -1.7846  0.6044
16148TIP3   OH269934   2.402   1.372   3.915 -0.5912 -0.2696 -0.5591
16148TIP3    H169935   2.414   1.424   3.835 -2.1931  0.0454 -0.6238
16148TIP3    H269936   2.309   1.351   3.916 -0.8049  0.5374  1.7145
16149TIP3   OH269937   2.911   4.000  13.019  0.1001 -0.2369  0.3577
16149TIP3    H169938   2.912   4.069  13.086  0.5731 -0.5926  0.7278
16149TIP3    H269939   2.909   4.047  12.936 -1.7975  0.2207  0.6185
16150TIP3   OH269940   2.777   1.191  16.043  0.2733 -0.0716 -0.1759
16150TIP3    H169941   2.706   1.127  16.057  0.0786  0.0864 -0.4332
16150TIP3    H269942   2.759   1.260  16.107 -0.0402  0.1626 -0.5075
16151TIP3   OH269943   1.214   4.256   5.495  1.1463  0.1022  0.2358
16151TIP3    H169944   1.214   4.335   5.548 -1.4036  1.1994 -1.2336
16151TIP3    H269945   1.294   4.262   5.443  1.4010  1.2598  0.7292
16152TIP3   OH269946   5.773   2.739   3.169 -0.2684  0.7228 -0.4532
16152TIP3    H169947   5.852   2.783   3.200  0.3029  0.0545 -0.9187
16152TIP3    H269948   5.804   2.677   3.103 -0.8485 -1.2748  1.0252
16153TIP3   OH269949   2.915   4.096  13.621 -0.2816  0.4919 -0.2077
16153TIP3    H169950   2.958   4.170  13.665 -1.3908  0.4937  0.9225
16153TIP3    H269951   2.822   4.107  13.641 -0.3899 -1.6757  0.7260
16154TIP3   OH269952   2.550   4.686  12.455  0.3887 -0.3231  0.1996
16154TIP3    H169953   2.606   4.655  12.526 -0.3319 -0.2783  0.7958
16154TIP3    H269954   2.571   4.779  12.448  1.1815 -0.5298 -0.3250
16155TIP3   OH269955   1.898   4.597   2.327 -0.0557  0.2161  0.0049
16155TIP3    H169956   1.900   4.548   2.409  1.0930  0.0550 -0.1077
16155TIP3    H269957   1.813   4.575   2.288  0.6975 -2.2992 -0.4115
16156TIP3   OH269958   5.203   4.320  12.102 -0.6779 -0.0939  0.4273
16156TIP3    H169959   5.256   4.348  12.027 -0.2988 -0.0846  0.6962
16156TIP3    H269960   5.231   4.230  12.118 -2.2677 -0.8441 -0.7678
16157TIP3   OH269961   0.995   4.109   4.749 -0.2938 -0.0688  0.4157
16157TIP3    H169962   1.052   4.142   4.680 -0.2434 -0.2541  0.3681
16157TIP3    H269963   0.913   4.088   4.705 -0.4808  0.4115  0.5224
16158TIP3   OH269964   3.791   4.264   5.796  0.8937  0.4048  0.2741
16158TIP3    H169965   3.851   4.198   5.828 -0.5139  0.4034  3.2571
16158TIP3    H269966   3.800   4.337   5.858 -1.9047  0.4943  0.6969
16159TIP3   OH269967   3.697   2.171  14.718  0.4004 -0.4111  0.2985
16159TIP3    H169968   3.619   2.174  14.662 -0.0647 -0.5362  0.9289
16159TIP3    H269969   3.768   2.201  14.661 -0.0281 -0.7158 -0.4112
16160TIP3   OH269970   2.381   1.138   3.294  0.4048 -0.4886 -0.4275
16160TIP3    H169971   2.351   1.060   3.342  0.5928  0.0796  0.6424
16160TIP3    H269972   2.425   1.103   3.217  0.6175 -1.4628  0.1144
16161TIP3   OH269973   5.395   4.544   4.818 -1.0939  0.7942 -0.0949
16161TIP3    H169974   5.307   4.508   4.802 -0.2430 -0.9737 -1.1131
16161TIP3    H269975   5.451   4.501   4.753  0.5456  1.8418  0.5584
16162TIP3   OH269976   2.433   3.720   2.625 -0.3556  1.0823  0.4114
16162TIP3    H169977   2.423   3.642   2.680 -2.6630 -0.0802 -1.4668
16162TIP3    H269978   2.528   3.727   2.611  0.0915 -0.0075  2.4653
16163TIP3   OH269979   1.953   3.401   5.389  0.3157 -0.0734 -0.4723
16163TIP3    H169980   1.961   3.386   5.483  2.0279 -1.1244 -0.7246
16163TIP3    H269981   1.914   3.488   5.381  1.8900  0.8606  1.2403
16164TIP3   OH269982   0.159   6.394  10.636  0.0788 -0.0701  0.0147
16164TIP3    H169983   0.220   6.437  10.696  0.9395 -2.1589  0.7566
16164TIP3    H269984   0.208   6.317  10.604 -2.2120 -1.9812  0.8274
16165TIP3   OH269985   0.082   2.707  12.125 -0.1845  0.4758  0.5683
16165TIP3    H169986   0.037   2.738  12.047 -1.2720  1.2004  1.4569
16165TIP3    H269987   0.170   2.682  12.094  0.0246  2.4371 -0.5573
16166TIP3   OH269988   2.273   6.629  12.805  0.0903  0.1413  0.3034
16166TIP3    H169989   2.321   6.696  12.757  0.3230  1.0844  1.7860
16166TIP3    H269990   2.325   6.550  12.794 -0.1204  0.1909 -1.3729
16167TIP3   OH269991   0.253   4.509   3.390  0.1811  0.2093 -0.0477
16167TIP3    H169992   0.215   4.508   3.302  0.6986  2.4433 -0.3614
16167TIP3    H269993   0.181   4.484   3.448 -0.5826  0.2018 -0.9767
16168TIP3   OH269994   2.171   1.381  15.057 -0.5829  0.3919  0.7437
16168TIP3    H169995   2.201   1.375  15.148  0.2896 -0.2248  0.4328
16168TIP3    H269996   2.248   1.355  15.006 -1.8624 -2.0575 -0.0840
16169TIP3   OH269997   0.377   2.868  14.309 -0.1878  0.4107 -0.1964
16169TIP3    H169998   0.345   2.859  14.220 -3.9545 -0.5531  1.0845
16169TIP3    H269999   0.427   2.787  14.325  0.0306  0.3366 -1.2141
16170TIP3   OH270000   2.372   4.175  11.700  0.4371 -0.0457 -0.2887
16170TIP3    H170001   2.382   4.259  11.744  0.1637 -0.0880 -0.1394
16170TIP3    H270002   2.313   4.193  11.626 -0.9934 -0.4181  0.6997
16171TIP3   OH270003   5.006   2.974  16.906 -0.0565 -0.0553 -0.6046
16171TIP3    H170004   5.048   2.904  16.955  0.3732  0.0488 -0.8224
16171TIP3    H270005   4.980   3.038  16.973 -0.2068 -0.2947 -0.4342
16172TIP3   OH270006   3.285   5.773   2.593  0.1557 -0.5321  0.2601
16172TIP3    H170007   3.285   5.749   2.500  1.0232  2.0139 -0.4969
16172TIP3    H270008   3.209   5.830   2.603  1.5193  1.3801  0.3922
16173TIP3   OH270009   6.702   5.683   0.814 -0.1713 -0.0165 -0.0115
16173TIP3    H170010   6.623   5.727   0.781 -0.1115  0.7614  0.8129
16173TIP3    H270011   6.701   5.702   0.908  0.2671 -1.1784  0.2388
16174TIP3   OH270012   3.611   4.510  11.827  0.4255  0.4547 -0.0060
16174TIP3    H170013   3.638   4.568  11.755  0.9529 -0.1995 -0.3488
16174TIP3    H270014   3.577   4.432  11.784 -0.5743  0.6188  0.4535
16175TIP3   OH270015   0.410   4.312  15.117 -0.2618 -0.1470 -0.1460
16175TIP3    H170016   0.385   4.373  15.186 -1.3325  0.3727 -0.9626
16175TIP3    H270017   0.445   4.236  15.163  1.5670  1.2291  0.8901
16176TIP3   OH270018   3.080   5.689   3.804 -0.0542  0.5744 -0.1440
16176TIP3    H170019   3.044   5.608   3.769 -0.2174  0.9071 -0.7606
16176TIP3    H270020   3.087   5.673   3.898 -1.2630  0.2874 -0.0778
16177TIP3   OH270021   5.170   6.224  11.497 -0.4166  0.4645 -0.0194
16177TIP3    H170022   5.128   6.171  11.429 -1.4873  2.0966 -0.7008
16177TIP3    H270023   5.202   6.161  11.561 -0.8736 -1.0315 -1.2138
16178TIP3   OH270024   6.630   3.193   5.402 -0.1880 -0.1895 -0.2271
16178TIP3    H170025   6.552   3.201   5.458 -0.1009  0.0645 -0.1433
16178TIP3    H270026   6.643   3.280   5.366 -1.3638 -0.7317 -2.1605
16179TIP3   OH270027   4.288   4.990  11.435  0.3983 -0.1500  0.0586
16179TIP3    H170028   4.297   5.057  11.368  1.0612 -1.8004 -1.6106
16179TIP3    H270029   4.341   5.021  11.508 -0.7609  1.9456  0.0779
16180TIP3   OH270030   1.816   4.016   3.451 -0.2798  0.2002  0.0349
16180TIP3    H170031   1.720   4.011   3.452 -0.2388 -0.7967 -0.3438
16180TIP3    H270032   1.835   4.106   3.478 -1.3667  1.0157 -1.6906
16181TIP3   OH270033   6.550   0.309  14.687  0.1802 -0.3290  0.7037
16181TIP3    H170034   6.624   0.318  14.747 -0.7118 -0.1507  1.8066
16181TIP3    H270035   6.499   0.236  14.722 -0.1758 -0.4519 -0.0412
16182TIP3   OH270036   4.145   5.673   2.437 -0.0091 -0.2741 -0.4159
16182TIP3    H170037   4.059   5.667   2.394 -0.2964 -0.3897  0.1677
16182TIP3    H270038   4.172   5.764   2.425  1.0103 -0.8235 -2.9065
16183TIP3   OH270039   5.216   0.624   4.527  0.3545  0.2587  0.9231
16183TIP3    H170040   5.306   0.649   4.507 -0.1498  2.2464  0.9387
16183TIP3    H270041   5.208   0.534   4.496  2.1832  0.2358  0.4388
16184TIP3   OH270042   2.793   3.467  15.968  0.4815  0.1145 -0.2778
16184TIP3    H170043   2.756   3.545  15.925  1.3593  0.6621 -0.0652
16184TIP3    H270044   2.717   3.413  15.989 -0.2367  1.3705  0.4588
16185TIP3   OH270045   3.085   3.313  15.526  0.3654 -0.0606  0.2235
16185TIP3    H170046   3.164   3.356  15.557 -0.2980  0.5028  1.1950
16185TIP3    H270047   3.023   3.385  15.511  0.0323 -0.4893 -0.5317
16186TIP3   OH270048   3.464   4.967  11.308 -0.3920  0.0988  0.0585
16186TIP3    H170049   3.427   5.010  11.385  0.4802  0.0302  0.5289
16186TIP3    H270050   3.442   5.026  11.235 -0.5870  0.5414  0.4667
16187TIP3   OH270051   2.246   3.755  13.666 -0.1534  0.0769  0.1070
16187TIP3    H170052   2.278   3.695  13.733 -1.1205 -0.1800  0.3464
16187TIP3    H270053   2.251   3.705  13.585  0.5530  0.2215  0.0561
16188TIP3   OH270054   5.689   3.304   2.733  0.1098  0.2615 -0.9902
16188TIP3    H170055   5.710   3.391   2.766  1.8385 -1.2928  2.5497
16188TIP3    H270056   5.618   3.273   2.788 -0.5704 -0.5604 -2.2751
16189TIP3   OH270057   6.611   5.560  12.079  0.1903  0.6048  0.6176
16189TIP3    H170058   6.665   5.590  12.152  1.9167  0.4955 -0.5535
16189TIP3    H270059   6.674   5.530  12.013 -1.3075  0.4485 -0.8151
16190TIP3   OH270060   0.111   1.605  14.321  0.1775 -0.1207  0.2065
16190TIP3    H170061   0.112   1.638  14.231  1.5256 -1.7316 -0.4288
16190TIP3    H270062   0.186   1.648  14.363 -0.5270  0.7274  0.6165
16191TIP3   OH270063   0.555   5.637   2.239  0.4228  0.0194 -0.3744
16191TIP3    H170064   0.552   5.724   2.199 -0.5258  0.7748  1.2318
16191TIP3    H270065   0.588   5.580   2.169 -0.8102  1.3064 -2.1082
16192TIP3   OH270066   0.686   1.720   1.297  0.7525  0.0908 -0.2216
16192TIP3    H170067   0.656   1.784   1.361  0.8197 -1.0744  1.0113
16192TIP3    H270068   0.781   1.728   1.298  0.8208 -0.6612  0.6443
16193TIP3   OH270069   1.514   4.339   5.452 -0.0325  0.7427  0.1958
16193TIP3    H170070   1.526   4.327   5.546 -0.0538  1.8004  0.3390
16193TIP3    H270071   1.585   4.288   5.412  1.2559  1.9650  0.8503
16194TIP3   OH270072   3.691   4.817   0.838  0.1800 -0.1516  0.0437
16194TIP3    H170073   3.766   4.875   0.829  0.5347 -0.7158 -0.6868
16194TIP3    H270074   3.663   4.828   0.929  2.4108 -1.4557  0.9657
16195TIP3   OH270075   1.286   6.786   1.972  0.1183  0.1791  0.3939
16195TIP3    H170076   1.335   6.819   1.896 -1.0212  2.0144  0.4018
16195TIP3    H270077   1.313   6.694   1.979  0.3258 -0.0371 -2.1733
16196TIP3   OH270078   6.768   4.307  16.009  0.3029  0.1088  0.2915
16196TIP3    H170079   6.697   4.274  16.063 -1.0169  1.1791 -0.7266
16196TIP3    H270080   6.766   4.251  15.931  0.1433  0.5421 -0.0201
16197TIP3   OH270081   6.316   5.699   2.440  0.0538 -0.5297  0.0320
16197TIP3    H170082   6.300   5.783   2.399  2.7807  0.3273  0.4877
16197TIP3    H270083   6.264   5.700   2.520 -1.3269 -0.0880 -0.8402
16198TIP3   OH270084   0.375   0.432  12.974  0.5953 -0.3828 -0.5250
16198TIP3    H170085   0.315   0.360  12.956 -1.0659  0.4514  1.3045
16198TIP3    H270086   0.430   0.437  12.896  0.1999 -3.0209 -1.0895
16199TIP3   OH270087   5.158   2.397  12.528 -0.3665 -0.6864 -0.5739
16199TIP3    H170088   5.170   2.367  12.438  1.7894  1.0300 -0.9727
16199TIP3    H270089   5.244   2.385  12.568  0.0850  2.8208 -0.1974
16200TIP3   OH270090   3.995   3.150   2.352  0.1776 -0.5484  0.4445
16200TIP3    H170091   3.961   3.062   2.333  0.9909 -0.5526 -1.2382
16200TIP3    H270092   4.072   3.158   2.295 -0.8996  1.9256 -0.7995
16201TIP3   OH270093   6.029   4.497   0.920  0.1190  0.3072  0.3441
16201TIP3    H170094   5.979   4.570   0.956 -0.1688 -0.4654  1.5344
16201TIP3    H270095   5.985   4.477   0.837 -2.3720 -1.1407  1.9019
16202TIP3   OH270096   2.253   1.428   4.232  0.5747 -0.3718 -0.1718
16202TIP3    H170097   2.176   1.485   4.229  2.1405  1.8791 -2.6891
16202TIP3    H270098   2.317   1.476   4.284  0.9674 -1.2259  0.1552
16203TIP3   OH270099   6.277   5.052   1.102 -0.2062 -0.1290  0.3967
16203TIP3    H170100   6.208   5.088   1.046 -0.9130 -0.1169  1.2476
16203TIP3    H270101   6.230   4.996   1.164  0.1775  2.0010  2.7738
16204TIP3   OH270102   1.111   4.738  12.830  0.2773  0.3542  0.2888
16204TIP3    H170103   1.035   4.729  12.773  0.9781 -0.0266 -0.6083
16204TIP3    H270104   1.110   4.658  12.883 -0.5741  0.8703  1.0951
16205TIP3   OH270105   5.715   3.558   2.831 -0.3727  0.0273  0.1895
16205TIP3    H170106   5.766   3.571   2.910  0.3338  0.8801 -0.3826
16205TIP3    H270107   5.624   3.550   2.861  0.1079 -1.9717  1.2528
16206TIP3   OH270108   6.008   0.944   0.068 -0.3027 -0.3496  0.3989
16206TIP3    H170109   5.946   0.991   0.011 -0.3488 -0.3586  0.4420
16206TIP3    H270110   6.077   0.915   0.008  1.9467  3.3305  0.9202
16207TIP3   OH270111   2.615   5.345   5.089  0.5591  0.5148 -0.5274
16207TIP3    H170112   2.551   5.277   5.111 -0.4807  1.4823 -0.5018
16207TIP3    H270113   2.566   5.408   5.036  1.4326  1.3926 -0.3147
16208TIP3   OH270114   2.591   2.663   2.270 -0.2281 -0.1694  0.2999
16208TIP3    H170115   2.587   2.720   2.348  2.0788 -0.3961  0.6523
16208TIP3    H270116   2.649   2.709   2.210  0.5181 -1.4685  0.0028
16209TIP3   OH270117   0.896   4.322   6.358 -0.3709  0.1425  0.1110
16209TIP3    H170118   0.836   4.252   6.332 -1.1749  1.0500 -0.5660
16209TIP3    H270119   0.908   4.310   6.452  1.7514 -2.5897 -0.3976
16210TIP3   OH270120   2.564   2.005  14.538 -0.0697  0.8770  0.5895
16210TIP3    H170121   2.578   1.972  14.449 -0.7352  0.5739  0.5950
16210TIP3    H270122   2.512   1.937  14.581  1.5121  0.3116  1.6910
16211TIP3   OH270123   0.758   5.943   3.208  0.0911  0.0256 -1.1021
16211TIP3    H170124   0.852   5.926   3.196 -0.1048 -1.5169 -0.6390
16211TIP3    H270125   0.754   5.998   3.287  0.7164  1.9497 -2.3500
16212TIP3   OH270126   0.055   4.169   2.562 -0.1052  0.0299 -0.0216
16212TIP3    H170127   0.021   4.083   2.538 -2.9770  0.5232  1.8884
16212TIP3    H270128   0.013   4.229   2.501  0.0206  0.3316  0.1856
16213TIP3   OH270129   6.379   0.630   4.889 -0.0901  0.5085 -0.0698
16213TIP3    H170130   6.309   0.587   4.939  1.1242  0.5210  1.7583
16213TIP3    H270131   6.417   0.693   4.950  1.5874  0.4154 -0.9560
16214TIP3   OH270132   1.031   0.140   5.754  0.6448 -0.5384 -0.0651
16214TIP3    H170133   1.008   0.099   5.837 -0.0681  0.5780  0.3247
16214TIP3    H270134   1.082   0.074   5.707  1.4084 -1.0530  1.4208
16215TIP3   OH270135   1.498   6.726  14.052 -0.3267 -0.2029 -0.1612
16215TIP3    H170136   1.404   6.707  14.045 -0.2740 -0.4485 -0.2055
16215TIP3    H270137   1.541   6.648  14.018 -0.1071  0.0088 -0.3708
16216TIP3   OH270138   4.966   0.590   1.758  0.2962  0.0406 -0.0910
16216TIP3    H170139   5.005   0.515   1.802 -1.0104  1.5023  3.9571
16216TIP3    H270140   4.943   0.650   1.828 -2.3686  2.5235 -2.8027
16217TIP3   OH270141   1.026   1.164   0.641 -0.5602 -0.6585  0.7284
16217TIP3    H170142   1.067   1.080   0.622  2.5704  0.8484  0.2799
16217TIP3    H270143   1.036   1.175   0.735 -1.8433 -1.1359  0.9495
16218TIP3   OH270144   4.100   2.627   0.176  0.4797  0.3376  0.8020
16218TIP3    H170145   4.191   2.643   0.202 -0.0710  0.6730  2.6654
16218TIP3    H270146   4.060   2.713   0.177 -0.3899 -0.0465  2.2737
16219TIP3   OH270147   6.799   4.553   2.537 -0.4617 -0.4177  0.2352
16219TIP3    H170148   6.737   4.599   2.593 -1.1775 -0.4662 -0.4905
16219TIP3    H270149   6.782   4.460   2.552  0.0736 -0.4481  0.7108
16220TIP3   OH270150   3.960   6.671   4.165  0.8115  0.7492  0.3733
16220TIP3    H170151   4.014   6.597   4.190  1.3575  0.2054 -2.1073
16220TIP3    H270152   3.888   6.672   4.228  1.0055 -1.6342  0.7009
16221TIP3   OH270153   6.227   3.779   5.512  0.1367  0.2364 -0.5633
16221TIP3    H170154   6.144   3.807   5.552  0.7453  1.1055  0.1240
16221TIP3    H270155   6.230   3.825   5.428  0.1971  0.6629 -0.3279
16222TIP3   OH270156   5.705   5.293   3.685 -0.8021 -0.4987  0.0894
16222TIP3    H170157   5.783   5.241   3.668 -1.9499 -1.9231 -1.1097
16222TIP3    H270158   5.724   5.379   3.647  0.8802 -0.1762  1.5309
16223TIP3   OH270159   4.853   5.685   3.936 -0.0260 -0.9015  0.2620
16223TIP3    H170160   4.825   5.623   4.003 -0.9449 -1.0850 -0.2760
16223TIP3    H270161   4.925   5.641   3.890  0.1457 -1.0561  0.6813
16224TIP3   OH270162   6.756   4.776  14.491 -0.7922 -0.6542 -0.1625
16224TIP3    H170163   6.703   4.790  14.412  0.2353 -1.3264 -0.9908
16224TIP3    H270164   6.816   4.850  14.493  0.1945 -1.4206 -0.8631
16225TIP3   OH270165   2.521   0.240  12.724 -0.6758  0.2489 -0.3325
16225TIP3    H170166   2.613   0.233  12.697 -0.4847  0.8177  0.1600
16225TIP3    H270167   2.522   0.303  12.796 -1.1310 -1.5187  1.2701
16226TIP3   OH270168   3.446   5.393   3.527  1.2580  0.2967 -0.0393
16226TIP3    H170169   3.399   5.361   3.605  1.3469 -1.5244 -0.6908
16226TIP3    H270170   3.377   5.420   3.467  1.0320 -1.2252 -0.5114
16227TIP3   OH270171   0.163   4.970   3.972  0.1501 -0.5017 -0.4911
16227TIP3    H170172   0.154   4.912   4.048  0.1268 -3.9671 -2.9464
16227TIP3    H270173   0.183   4.912   3.899 -0.8573  2.5141 -3.4076
16228TIP3   OH270174   6.582   0.420  15.119  0.1855 -0.3906 -0.1556
16228TIP3    H170175   6.504   0.425  15.063 -0.7875 -0.4018  1.1677
16228TIP3    H270176   6.646   0.475  15.075 -1.5287  2.0796  0.2535
16229TIP3   OH270177   0.061   4.926   1.913  0.2938  0.3560 -0.2426
16229TIP3    H170178   0.129   4.929   1.847 -0.2771  0.0747 -0.8471
16229TIP3    H270179   0.057   4.834   1.940 -0.1564  0.2824 -0.5444
16230TIP3   OH270180   0.538   2.170  11.703  0.1120  0.0188  0.4279
16230TIP3    H170181   0.620   2.217  11.718 -0.3929  0.2875  2.6928
16230TIP3    H270182   0.559   2.106  11.635  1.4865  1.7675 -0.9075
16231TIP3   OH270183   1.384   0.870   5.340 -0.2619 -0.4087 -0.8824
16231TIP3    H170184   1.428   0.861   5.256 -0.0990  1.4846 -1.0558
16231TIP3    H270185   1.302   0.914   5.319 -0.4717 -0.4183 -0.1139
16232TIP3   OH270186   5.421   1.024  12.846 -0.0255 -0.6341 -0.2221
16232TIP3    H170187   5.495   1.022  12.907 -0.8269  0.5943  0.8647
16232TIP3    H270188   5.358   0.963  12.883  0.0161 -0.9046 -0.5878
16233TIP3   OH270189   1.013   0.937  15.171  0.3786 -0.1493 -0.3529
16233TIP3    H170190   0.935   0.938  15.115 -0.2179 -2.9792  0.2745
16233TIP3    H270191   0.983   0.900  15.254  1.9308  0.9545  0.7561
16234TIP3   OH270192   4.919   4.565  16.968 -0.2861 -0.7013 -0.1407
16234TIP3    H170193   4.922   4.472  16.992  2.0922 -0.6011  0.1423
16234TIP3    H270194   4.930   4.566  16.873 -1.2119 -0.7194 -0.2590
16235TIP3   OH270195   4.174   5.488   0.558 -0.1945 -0.1930  0.0892
16235TIP3    H170196   4.177   5.491   0.654  0.8932 -0.1542  0.0695
16235TIP3    H270197   4.220   5.567   0.530 -2.8511  1.2698 -0.5059
16236TIP3   OH270198   2.968   3.542   3.662  0.3854 -0.0140  0.3311
16236TIP3    H170199   2.886   3.587   3.641  1.1637  2.8806  2.8138
16236TIP3    H270200   2.939   3.461   3.705 -1.1551  0.2980 -0.0319
16237TIP3   OH270201   2.050   4.308   1.438 -0.0499  0.2029 -0.3165
16237TIP3    H170202   2.039   4.282   1.346 -0.0680  0.1416 -0.2975
16237TIP3    H270203   1.986   4.378   1.451 -0.7854 -0.4922 -0.0717
16238TIP3   OH270204   6.853   3.533   4.112  0.0499  0.1344 -0.6587
16238TIP3    H170205   6.889   3.496   4.192 -0.9191  2.0404  0.7362
16238TIP3    H270206   6.758   3.521   4.120 -0.1972  1.8543 -0.6827
16239TIP3   OH270207   0.112   6.785  15.443  0.1057 -0.2392 -0.3889
16239TIP3    H170208   0.072   6.760  15.526  0.5920 -0.3335 -0.1801
16239TIP3    H270209   0.204   6.763  15.453 -0.0894 -1.6799 -1.5229
16240TIP3   OH270210   1.833   0.685  12.439  0.6046  0.1570 -0.0203
16240TIP3    H170211   1.857   0.730  12.520  0.4829  0.2006 -0.0081
16240TIP3    H270212   1.820   0.756  12.376 -0.0202  0.1663  0.1148
16241TIP3   OH270213   3.565   2.045   0.965  0.2937  0.2765  0.6536
16241TIP3    H170214   3.640   1.992   0.936 -0.7493 -1.0777  0.3350
16241TIP3    H270215   3.533   1.999   1.042 -1.1243 -0.0484 -0.1001
16242TIP3   OH270216   5.847   0.113  11.486 -0.7432  0.7825  0.4331
16242TIP3    H170217   5.792   0.164  11.425 -1.6219  0.4059  0.8894
16242TIP3    H270218   5.881   0.178  11.547  0.5043  1.2369 -0.6778
16243TIP3   OH270219   3.152   5.680  12.978 -0.2585  0.5183  0.3920
16243TIP3    H170220   3.190   5.666  13.065 -1.5664  1.0587  1.0697
16243TIP3    H270221   3.126   5.593  12.949 -0.0390  0.3674  0.6443
16244TIP3   OH270222   2.039   0.299   4.806 -0.2811  0.7002  0.3209
16244TIP3    H170223   2.040   0.310   4.901 -0.8273  0.6206  0.3420
16244TIP3    H270224   2.122   0.256   4.785 -0.0358  0.9687  0.7267
16245TIP3   OH270225   2.062   2.196   1.292 -0.6166 -0.1208 -0.2030
16245TIP3    H170226   2.097   2.117   1.334 -3.0822 -2.3384 -1.9782
16245TIP3    H270227   1.971   2.200   1.322 -1.3033  0.4795 -2.2076
16246TIP3   OH270228   5.998   5.459  12.343 -0.0638  0.4358 -0.0546
16246TIP3    H170229   6.062   5.441  12.274  0.6948  1.7889  0.2706
16246TIP3    H270230   6.032   5.413  12.420 -0.4218 -0.3014 -0.3282
16247TIP3   OH270231   6.355   6.687  10.802  0.4368 -0.2359 -0.1644
16247TIP3    H170232   6.296   6.696  10.727 -2.2837  0.3028  1.8943
16247TIP3    H270233   6.411   6.612  10.779 -0.0320  0.1269 -2.8246
16248TIP3   OH270234   6.411   4.792   2.280  0.1167 -0.3040  0.3214
16248TIP3    H170235   6.357   4.732   2.228 -0.6030  0.5211  0.0945
16248TIP3    H270236   6.401   4.761   2.369 -2.2053  0.8390  0.5522
16249TIP3   OH270237   5.773   2.335   2.599  0.0714 -0.0616  0.2592
16249TIP3    H170238   5.734   2.265   2.547  0.6834 -0.1816 -0.0412
16249TIP3    H270239   5.730   2.328   2.684 -2.9033  1.7819 -0.9445
16250TIP3   OH270240   6.477   5.495   1.521  0.5452  0.2179 -0.0030
16250TIP3    H170241   6.431   5.504   1.438  1.1902 -2.0549 -0.6570
16250TIP3    H270242   6.569   5.482   1.497  0.6334 -1.2482  1.0000
16251TIP3   OH270243   4.053   3.242   4.014  0.3028  0.2604  0.2972
16251TIP3    H170244   4.003   3.164   3.989  2.3261 -0.9398 -0.2247
16251TIP3    H270245   4.095   3.271   3.932  0.4002  1.2886  0.6961
16252TIP3   OH270246   5.806   3.525   1.585 -0.1535 -0.2991  0.4866
16252TIP3    H170247   5.824   3.451   1.645  1.9586  0.8809  1.4194
16252TIP3    H270248   5.714   3.545   1.600 -0.8970 -2.9188 -0.0366
16253TIP3   OH270249   0.155   3.976  13.832  0.3272 -0.2649 -0.2224
16253TIP3    H170250   0.220   3.926  13.881  2.6739  1.3227 -1.5089
16253TIP3    H270251   0.113   4.031  13.898  2.4854  0.8720  0.3271
16254TIP3   OH270252   3.326   4.135   5.143  0.3700  0.0633 -0.3847
16254TIP3    H170253   3.298   4.129   5.051 -0.2173  1.2622 -0.2977
16254TIP3    H270254   3.282   4.061   5.185  1.5501 -1.1953 -1.2623
16255TIP3   OH270255   0.163   4.218  13.189  0.0533  0.0856  0.2865
16255TIP3    H170256   0.148   4.247  13.099 -1.4028 -0.5500  0.3009
16255TIP3    H270257   0.216   4.288  13.228 -0.3279  0.9619 -0.7094
16256TIP3   OH270258   2.030   4.739   0.995 -0.2624 -0.2671 -0.4304
16256TIP3    H170259   2.109   4.762   0.947 -0.5378 -0.3094 -0.9080
16256TIP3    H270260   1.984   4.678   0.937 -0.2675 -0.8555  0.1742
16257TIP3   OH270261   0.494   5.569  13.644  0.6892 -0.0309  0.3689
16257TIP3    H170262   0.578   5.552  13.602 -0.5149 -0.5724 -1.9893
16257TIP3    H270263   0.494   5.663  13.661  1.6447  0.0229  0.1192
16258TIP3   OH270264   0.298   2.641  12.626 -0.6044 -0.1863  0.3646
16258TIP3    H170265   0.351   2.562  12.626 -0.6070 -0.1996  1.2289
16258TIP3    H270266   0.275   2.655  12.534 -0.8846 -1.3631  0.2410
16259TIP3   OH270267   4.088   5.360  13.135 -0.0154  0.4340 -0.0233
16259TIP3    H170268   4.175   5.400  13.135  0.8427 -1.2406 -1.6454
16259TIP3    H270269   4.049   5.387  13.051  0.5846 -1.9435 -1.1642
16260TIP3   OH270270   6.495   3.974   1.697 -0.5129 -0.7564 -0.3616
16260TIP3    H170271   6.426   4.000   1.635 -2.8449  0.6308  2.5598
16260TIP3    H270272   6.489   3.879   1.701 -0.9435 -0.7941 -1.5676
16261TIP3   OH270273   5.038   3.354  11.638 -0.3316 -0.1824  0.5063
16261TIP3    H170274   5.105   3.323  11.577 -0.2583 -0.3550  0.6766
16261TIP3    H270275   5.014   3.277  11.688  0.4159  0.1950  1.4753
16262TIP3   OH270276   2.801   2.587  11.812 -0.4274 -0.3825  0.1902
16262TIP3    H170277   2.828   2.678  11.826  2.3417 -0.9098 -1.1943
16262TIP3    H270278   2.761   2.588  11.725 -0.3022 -0.5165  0.1322
16263TIP3   OH270279   4.270   0.592  13.632 -0.0585 -0.5021  0.1321
16263TIP3    H170280   4.355   0.621  13.664  0.1914 -1.2199  0.1437
16263TIP3    H270281   4.214   0.670  13.636  0.5964 -0.0248  0.1207
16264TIP3   OH270282   1.373   0.488   5.743 -0.2203 -0.4395 -0.1185
16264TIP3    H170283   1.301   0.463   5.800  1.3134  0.4852  2.3957
16264TIP3    H270284   1.364   0.582   5.731  0.3840 -0.3627 -0.0286
16265TIP3   OH270285   0.565   2.803  12.172 -0.4320 -0.2678 -0.2111
16265TIP3    H170286   0.536   2.776  12.260 -1.1960  1.2722  0.0364
16265TIP3    H270287   0.516   2.746  12.113 -1.3150 -0.0813  0.3174
16266TIP3   OH270288   4.429   1.004  17.026 -0.3349  0.1008  0.1105
16266TIP3    H170289   4.518   0.978  17.051  1.5981  1.8817 -3.9963
16266TIP3    H270290   4.433   1.099  17.021 -2.3635  0.1868 -0.5517
16267TIP3   OH270291   2.357   5.373   0.334  0.1211  0.2833 -0.1928
16267TIP3    H170292   2.442   5.373   0.377 -0.1136 -0.8117  0.3016
16267TIP3    H270293   2.320   5.460   0.352  1.5782  1.1891 -1.3684
16268TIP3   OH270294   4.032   5.344  10.555  0.0168 -0.2866 -0.1287
16268TIP3    H170295   4.125   5.366  10.545 -0.1453  1.4837  1.6890
16268TIP3    H270296   4.032   5.249  10.571  1.6574 -0.0993  1.2576
16269TIP3   OH270297   2.070   3.226   5.169 -0.3641  0.3499 -0.3729
16269TIP3    H170298   2.048   3.133   5.177 -0.1053  0.3880  1.3219
16269TIP3    H270299   2.008   3.270   5.228 -1.0375  1.3745 -1.7766
16270TIP3   OH270300   6.732   6.366  12.170  0.4599  0.3608 -0.7287
16270TIP3    H170301   6.706   6.449  12.128  0.2894  0.7231  0.0804
16270TIP3    H270302   6.801   6.391  12.231  0.1729 -0.0428 -0.2323
16271TIP3   OH270303   0.271   1.934   5.860 -0.0395  0.3444 -0.2760
16271TIP3    H170304   0.268   1.998   5.788  1.0496  0.5537 -0.1471
16271TIP3    H270305   0.184   1.893   5.858  0.1873 -0.1562 -2.1738
16272TIP3   OH270306   3.079   2.662  16.827 -0.0865 -0.4913  0.0498
16272TIP3    H170307   2.985   2.668  16.811  0.1037 -0.3997 -1.1464
16272TIP3    H270308   3.091   2.577  16.870 -1.0723  0.8838  3.3806
16273TIP3   OH270309   5.281   2.589   1.430  0.0944 -0.3751 -0.1200
16273TIP3    H170310   5.308   2.654   1.495  0.5958 -0.5418 -0.1558
16273TIP3    H270311   5.363   2.554   1.395 -0.1666 -1.0856 -0.0481
16274TIP3   OH270312   1.328   6.310   0.595 -0.6166 -0.2667 -0.0665
16274TIP3    H170313   1.307   6.314   0.502 -0.6501 -0.1510 -0.0538
16274TIP3    H270314   1.249   6.341   0.639 -0.3484  0.3764 -0.0245
16275TIP3   OH270315   2.685   2.259  15.586  0.4676  0.5102 -0.2907
16275TIP3    H170316   2.630   2.184  15.610 -0.0463  1.1817  0.6969
16275TIP3    H270317   2.771   2.221  15.571  0.0099 -0.4013 -0.7102
16276TIP3   OH270318   2.632   3.228  16.691 -0.4384  0.3579 -0.2010
16276TIP3    H170319   2.654   3.170  16.618 -1.1899 -0.1979 -0.0044
16276TIP3    H270320   2.640   3.316  16.655  0.8269  0.1472 -0.4766
16277TIP3   OH270321   5.753   2.905   5.325 -0.1083  0.5148 -0.6291
16277TIP3    H170322   5.674   2.939   5.368  0.4418  2.3773 -1.0046
16277TIP3    H270323   5.821   2.911   5.392  0.0102  0.1839 -0.7179
16278TIP3   OH270324   1.484   6.170   3.700 -0.2570  0.1338  0.3344
16278TIP3    H170325   1.552   6.229   3.669 -0.0662 -1.1566 -1.9286
16278TIP3    H270326   1.402   6.210   3.670 -0.1411 -0.6005 -1.0236
16279TIP3   OH270327   2.544   6.510   2.807  0.9324 -0.1514 -0.1494
16279TIP3    H170328   2.493   6.571   2.754  0.7578 -0.0895  0.0910
16279TIP3    H270329   2.623   6.558   2.829 -0.1793  0.8422  1.9605
16280TIP3   OH270330   3.667   4.356  13.521  0.0184  0.4587  0.0518
16280TIP3    H170331   3.616   4.278  13.502  0.0237  0.5664 -0.4134
16280TIP3    H270332   3.757   4.325  13.530 -0.0220  0.3712  0.1502
16281TIP3   OH270333   5.416   5.256   1.010  0.1653 -0.2216  0.5149
16281TIP3    H170334   5.441   5.301   0.930 -0.8857 -1.1687 -0.3834
16281TIP3    H270335   5.434   5.164   0.993  0.8116 -0.3520  1.7375
16282TIP3   OH270336   4.188   5.029  15.685 -0.4615 -0.5312 -0.2924
16282TIP3    H170337   4.208   5.110  15.638 -0.6063 -0.5357 -0.3616
16282TIP3    H270338   4.234   4.961  15.636 -0.3594 -0.4951 -0.2483
16283TIP3   OH270339   3.662   4.202  15.253  0.0547  0.0019 -0.5199
16283TIP3    H170340   3.594   4.213  15.320 -1.4660  1.4449 -2.2118
16283TIP3    H270341   3.740   4.177  15.302 -1.5660 -1.3229  1.5522
16284TIP3   OH270342   5.751   0.064  11.868 -0.3317 -0.4284  0.0957
16284TIP3    H170343   5.740   0.013  11.788 -0.2474 -0.5377  0.1542
16284TIP3    H270344   5.764   0.154  11.838  0.7258 -0.6213 -0.0572
16285TIP3   OH270345   1.499   1.049  13.571  0.1451 -0.1427 -0.4292
16285TIP3    H170346   1.542   1.133  13.581  0.9330 -0.5526 -0.3319
16285TIP3    H270347   1.563   0.994  13.527 -0.9916 -0.1847 -2.1532
16286TIP3   OH270348   3.059   1.910   0.392  0.7321 -0.1048  0.1724
16286TIP3    H170349   3.010   1.894   0.473  2.7670 -0.3152  1.4299
16286TIP3    H270350   3.005   1.871   0.324 -1.9819  1.7572  1.0997
16287TIP3   OH270351   1.383   1.657   0.523 -0.5658  0.1933 -0.4166
16287TIP3    H170352   1.398   1.584   0.582 -0.9536 -0.1223 -0.7021
16287TIP3    H270353   1.323   1.715   0.571 -0.6590  0.0749 -0.3898
16288TIP3   OH270354   2.238   6.408   4.412  0.5230  0.3703  0.6868
16288TIP3    H170355   2.252   6.342   4.480 -0.0138  1.0013  1.4112
16288TIP3    H270356   2.239   6.491   4.458 -0.9490  0.7425  0.0779
16289TIP3   OH270357   4.452   5.039   3.919 -0.2234  0.0179 -0.0479
16289TIP3    H170358   4.399   4.973   3.964 -0.9063  1.5361  1.4860
16289TIP3    H270359   4.416   5.043   3.830 -0.1292 -1.6720 -0.1964
16290TIP3   OH270360   3.512   0.922   3.088 -0.6293 -0.4883 -0.1796
16290TIP3    H170361   3.525   0.857   3.157 -0.7108 -0.2710  0.0441
16290TIP3    H270362   3.473   0.873   3.016  0.7939 -1.0120 -0.6190
16291TIP3   OH270363   4.362   1.733  16.088  0.2111  0.3691 -0.1015
16291TIP3    H170364   4.284   1.787  16.083 -0.9175 -1.0090  1.4290
16291TIP3    H270365   4.329   1.643  16.096  1.8462 -0.1228  2.4763
16292TIP3   OH270366   2.639   3.086  11.660  0.0065 -0.1190  0.2567
16292TIP3    H170367   2.615   2.996  11.682  0.7214 -0.7593 -1.3922
16292TIP3    H270368   2.555   3.131  11.650 -0.4750 -1.3013 -1.4895
16293TIP3   OH270369   2.852   1.733   5.643 -0.0367 -0.0797 -0.2099
16293TIP3    H170370   2.768   1.689   5.643  0.0439 -0.2894  1.1851
16293TIP3    H270371   2.882   1.727   5.734  1.0608  0.7795 -0.4917
16294TIP3   OH270372   0.598   1.896  15.214 -0.1138  0.5767 -0.9313
16294TIP3    H170373   0.538   1.932  15.149  1.3866  0.3382 -2.5091
16294TIP3    H270374   0.623   1.810  15.178  2.1416  1.2104 -0.9782
16295TIP3   OH270375   0.187   2.241  12.741  0.0276  0.2213  0.4038
16295TIP3    H170376   0.132   2.175  12.783 -0.3145 -1.0163 -1.8489
16295TIP3    H270377   0.125   2.297  12.695  0.5153  0.2738 -0.1938
16296TIP3   OH270378   6.171   4.403   0.487  0.1584 -0.0938  0.0688
16296TIP3    H170379   6.130   4.489   0.494  0.6623  0.0283  2.0034
16296TIP3    H270380   6.184   4.375   0.577  0.1736 -2.1378 -0.5295
16297TIP3   OH270381   5.808   4.602   6.328  0.6925  0.2001 -0.0271
16297TIP3    H170382   5.770   4.542   6.392  1.0025 -1.9582 -1.7820
16297TIP3    H270383   5.866   4.658   6.380 -0.2267 -0.4546  1.7929
16298TIP3   OH270384   1.283   1.227   5.378  0.2786  0.0668  0.1908
16298TIP3    H170385   1.264   1.299   5.319 -0.2605  2.0264  2.5894
16298TIP3    H270386   1.206   1.220   5.434 -0.2443 -3.2949 -0.6948
16299TIP3   OH270387   2.169   0.783   0.244  0.7319  0.2022 -0.2983
16299TIP3    H170388   2.166   0.770   0.149 -0.0321  3.8532 -0.9178
16299TIP3    H270389   2.262   0.783   0.265  0.9490  0.1630 -1.2068
16300TIP3   OH270390   4.974   1.413  15.274  0.2867  0.6029  0.2304
16300TIP3    H170391   5.038   1.349  15.304  0.3479  0.7414  0.3926
16300TIP3    H270392   4.937   1.374  15.195  0.7353  0.6265  0.0062
16301TIP3   OH270393   6.277   2.889  14.416 -0.5114 -0.5968 -0.0176
16301TIP3    H170394   6.366   2.895  14.381 -0.5620 -0.8919 -0.1957
16301TIP3    H270395   6.276   2.951  14.489 -0.0875 -0.7698  0.1383
16302TIP3   OH270396   1.757   2.469  11.450 -0.0082  0.0916  0.2852
16302TIP3    H170397   1.801   2.454  11.534  1.1005 -0.1305 -0.3142
16302TIP3    H270398   1.706   2.549  11.463  1.0305  0.6815  0.8330
16303TIP3   OH270399   2.822   4.323  14.521  0.0560  0.4218  0.0475
16303TIP3    H170400   2.849   4.337  14.612  2.3751  1.3087 -0.6936
16303TIP3    H270401   2.776   4.403  14.496  0.4091  0.6489  0.1214
16304TIP3   OH270402   1.970   6.777  12.816  0.3275 -0.3877 -0.4499
16304TIP3    H170403   1.924   6.783  12.732 -1.6082  1.9186  0.6622
16304TIP3    H270404   2.043   6.838  12.807 -0.0251  0.0461 -0.3655
16305TIP3   OH270405   3.578   4.887  15.214 -0.3273 -0.0175  0.3878
16305TIP3    H170406   3.584   4.950  15.143  0.4654 -0.3148  0.1782
16305TIP3    H270407   3.551   4.938  15.291 -1.1290  0.3123 -0.1027
16306TIP3   OH270408   0.239   6.876  12.420  0.2546 -0.3646 -0.7822
16306TIP3    H170409   0.324   6.838  12.442 -0.1614 -0.1668  1.3419
16306TIP3    H270410   0.245   6.967  12.451 -0.5665 -0.2081 -1.0680
16307TIP3   OH270411   2.167   6.496  16.819  0.9135  0.3258 -0.2196
16307TIP3    H170412   2.177   6.492  16.914  0.1330 -0.5943 -0.1553
16307TIP3    H270413   2.160   6.589  16.799  0.7233  0.5141  0.6738
16308TIP3   OH270414   5.156   4.579   2.056  0.2013  0.0278 -0.1006
16308TIP3    H170415   5.148   4.655   1.998  2.0239 -0.2701 -0.8140
16308TIP3    H270416   5.085   4.589   2.119 -1.5486  0.6578 -2.0455
16309TIP3   OH270417   0.876   5.422   5.095  0.2017 -0.6258  0.2043
16309TIP3    H170418   0.826   5.411   5.176 -2.6522 -0.5617 -1.4053
16309TIP3    H270419   0.850   5.347   5.041  1.1539 -0.0693 -1.0861
16310TIP3   OH270420   6.800   2.365  16.189 -0.0289 -0.4253  0.4099
16310TIP3    H170421   6.735   2.376  16.258 -0.1198 -0.2547  0.2973
16310TIP3    H270422   6.871   2.317  16.231  0.3804  0.5969  0.9108
16311TIP3   OH270423   5.021   2.436   3.414  0.2599 -0.0379 -0.1057
16311TIP3    H170424   5.115   2.420   3.409  0.4175  0.5383  0.7548
16311TIP3    H270425   4.994   2.394   3.496 -0.2605 -0.3133 -0.4128
16312TIP3   OH270426   2.481   0.319  14.767 -0.0175 -0.1427 -0.1798
16312TIP3    H170427   2.452   0.232  14.741  1.4720 -0.1678 -2.0045
16312TIP3    H270428   2.473   0.320  14.862  0.4933 -2.4927 -0.0438
16313TIP3   OH270429   3.791   5.837   4.817  0.5495  0.7369  0.5034
16313TIP3    H170430   3.824   5.788   4.893  1.2047 -0.8235 -0.7245
16313TIP3    H270431   3.860   5.901   4.800  1.2652 -0.0854  0.1825
16314TIP3   OH270432   5.586   6.317  15.539 -0.5975 -0.3033 -0.2231
16314TIP3    H170433   5.514   6.379  15.527 -1.5412 -1.2738  0.2476
16314TIP3    H270434   5.570   6.279  15.625  1.7235  1.0273  0.8807
16315TIP3   OH270435   5.062   2.583   4.827 -0.6712  0.0126 -0.0956
16315TIP3    H170436   5.153   2.563   4.848 -0.1562  2.3782  0.2915
16315TIP3    H270437   5.019   2.588   4.912 -1.4328 -2.0564 -0.3242
16316TIP3   OH270438   6.113   1.607  12.740  0.7485 -0.7150  0.0690
16316TIP3    H170439   6.040   1.560  12.780  1.1357 -0.2688  1.3649
16316TIP3    H270440   6.173   1.624  12.813  2.1501 -1.0699 -0.9571
16317TIP3   OH270441   5.425   2.567   2.272  0.1396 -0.0623 -0.5557
16317TIP3    H170442   5.478   2.598   2.198 -0.4239  1.2645 -0.4304
16317TIP3    H270443   5.422   2.642   2.331 -1.0287 -0.4709 -0.0868
16318TIP3   OH270444   1.462   0.213   5.844 -0.1948 -0.0107  0.0581
16318TIP3    H170445   1.426   0.141   5.895  0.8855  0.2014  1.1637
16318TIP3    H270446   1.387   0.252   5.800 -0.7084 -2.3731 -1.3187
16319TIP3   OH270447   6.421   5.379   4.385 -0.4105 -0.3080 -0.5785
16319TIP3    H170448   6.509   5.353   4.413 -0.4821  0.3814  0.3413
16319TIP3    H270449   6.367   5.370   4.463 -0.8221  0.7834 -0.7180
16320TIP3   OH270450   1.674   4.101   0.112 -0.0892 -0.9554  0.0888
16320TIP3    H170451   1.715   4.118   0.027  2.9009 -0.5357  1.4849
16320TIP3    H270452   1.734   4.141   0.175 -1.9526 -1.6963  2.4429
16321TIP3   OH270453   5.476   2.809   0.332 -0.1357  0.4349 -0.4972
16321TIP3    H170454   5.428   2.766   0.261 -0.1885 -1.2895  0.5140
16321TIP3    H270455   5.460   2.903   0.319 -0.4232  0.1431 -2.5279
16322TIP3   OH270456   0.912   6.535   4.993  0.7448 -0.0277  0.5401
16322TIP3    H170457   0.963   6.544   5.073  1.7054 -1.1968  0.0948
16322TIP3    H270458   0.901   6.441   4.982 -1.8339  0.1691  0.7764
16323TIP3   OH270459   0.626   4.628  13.446 -0.4961 -0.0810  0.0783
16323TIP3    H170460   0.662   4.568  13.382 -0.0641 -0.9903  1.1530
16323TIP3    H270461   0.690   4.700  13.451 -0.9338  0.4160 -1.0813
16324TIP3   OH270462   6.647   4.895   0.849 -0.2266 -0.7059 -0.0913
16324TIP3    H170463   6.697   4.955   0.794  1.3419 -0.4475  1.5218
16324TIP3    H270464   6.711   4.831   0.879 -0.3403  0.6011  3.4419
16325TIP3   OH270465   0.099   5.165  15.558  0.0333 -0.2588  0.1630
16325TIP3    H170466   0.182   5.124  15.581  0.0899 -0.4106 -0.3028
16325TIP3    H270467   0.123   5.244  15.510 -0.0914 -0.6135 -0.4959
16326TIP3   OH270468   0.362   3.463   3.559 -0.0325  0.5378  0.5650
16326TIP3    H170469   0.419   3.535   3.532 -1.4989  0.9410 -1.6651
16326TIP3    H270470   0.423   3.398   3.595  1.5666  1.8930  0.4592
16327TIP3   OH270471   0.114   4.719  14.929  0.1797 -0.6996  0.3186
16327TIP3    H170472   0.129   4.655  14.859 -1.7546 -1.0842  0.2029
16327TIP3    H270473   0.030   4.694  14.967 -0.4799  1.5549  0.5030
16328TIP3   OH270474   2.299   4.606  13.013 -0.2707  0.0506  0.4916
16328TIP3    H170475   2.369   4.619  12.949  0.3879 -0.5876  1.0709
16328TIP3    H270476   2.339   4.626  13.097 -0.0451 -2.6019  1.1121
16329TIP3   OH270477   6.209   4.564  13.664 -0.7791  0.0285 -0.1633
16329TIP3    H170478   6.282   4.559  13.726 -0.2457 -1.2976 -0.8546
16329TIP3    H270479   6.235   4.633  13.602 -0.2158 -0.2730 -0.2669
16330TIP3   OH270480   4.639   1.408  12.080  0.3302 -0.1952  0.9368
16330TIP3    H170481   4.706   1.474  12.100 -0.3806  0.8993 -0.1804
16330TIP3    H270482   4.652   1.389  11.987 -0.2461 -0.7401  0.9629
16331TIP3   OH270483   1.796   5.694   0.213 -0.1594 -0.2204  0.3413
16331TIP3    H170484   1.831   5.760   0.272 -0.9642  0.7359 -0.2107
16331TIP3    H270485   1.864   5.628   0.206  0.0882 -0.1737  2.0491
16332TIP3   OH270486   5.381   0.565  12.109  0.6719 -0.1088  0.3458
16332TIP3    H170487   5.451   0.579  12.045  2.3557 -2.6045  1.4525
16332TIP3    H270488   5.367   0.470  12.108 -0.8119  0.0323  2.1013
16333TIP3   OH270489   0.050   0.738   4.942  0.2650  0.2252  0.1003
16333TIP3    H170490   0.126   0.680   4.932 -0.0218  0.1327 -2.0050
16333TIP3    H270491  -0.025   0.679   4.939  0.0266  0.5558 -0.4549
16334TIP3   OH270492   3.242   6.061  11.608  0.0013  0.4047  0.4779
16334TIP3    H170493   3.183   6.136  11.610 -0.4363  0.1459 -1.2754
16334TIP3    H270494   3.184   5.985  11.608  0.4078  0.0866  0.8910
16335TIP3   OH270495   0.169   6.638   1.171 -0.2405 -0.0541  0.7685
16335TIP3    H170496   0.113   6.593   1.234 -0.2210 -2.0097 -0.5329
16335TIP3    H270497   0.147   6.598   1.087  1.1747  1.0556 -0.1652
16336TIP3   OH270498   0.916   6.712  16.476 -0.1057  0.0667  0.3709
16336TIP3    H170499   0.962   6.682  16.555 -2.2361  1.1752  2.1568
16336TIP3    H270500   0.950   6.800  16.460 -0.4745  0.2868  0.7689
16337TIP3   OH270501   2.366   4.476   2.301 -0.5519  0.1186 -0.4356
16337TIP3    H170502   2.363   4.426   2.382 -0.7107 -0.2380 -0.6594
16337TIP3    H270503   2.437   4.437   2.250 -1.0950 -0.3105 -0.8823
16338TIP3   OH270504   0.706   2.431   3.534 -0.3767 -0.2142 -0.4609
16338TIP3    H170505   0.646   2.500   3.505 -0.0088  0.6519  0.7983
16338TIP3    H270506   0.770   2.476   3.589 -0.2024 -1.5749  0.4915
16339TIP3   OH270507   6.787   1.330  14.956 -0.1056  0.5618 -0.0078
16339TIP3    H170508   6.739   1.383  15.019 -0.9974 -1.3337  0.9839
16339TIP3    H270509   6.721   1.301  14.893  0.0354 -0.6374  0.3685
16340TIP3   OH270510   4.155   0.904   4.338  0.3492 -0.0217 -0.2041
16340TIP3    H170511   4.234   0.849   4.339 -1.1913 -2.4078 -0.4563
16340TIP3    H270512   4.130   0.911   4.430 -0.3421 -1.1950 -0.2810
16341TIP3   OH270513   3.218   0.968  13.044  0.2839 -0.1223 -0.3012
16341TIP3    H170514   3.176   0.964  12.959  0.0754  1.5195 -0.3086
16341TIP3    H270515   3.145   0.972  13.107  0.4355  0.0050 -0.1322
16342TIP3   OH270516   4.400   3.268   4.001 -0.4058 -0.4021  0.0285
16342TIP3    H170517   4.346   3.210   3.948 -1.6056  1.0836 -0.4350
16342TIP3    H270518   4.338   3.317   4.055  0.3945  1.5765 -0.7287
16343TIP3   OH270519   1.111   4.862   4.453 -0.2971 -0.3189 -0.2447
16343TIP3    H170520   1.107   4.925   4.525 -1.5398 -1.7183  1.0009
16343TIP3    H270521   1.024   4.866   4.413  0.5568  0.8714 -2.1321
16344TIP3   OH270522   2.411   5.461   2.978  0.2083  0.1151  0.4161
16344TIP3    H170523   2.506   5.463   2.981  0.2522  0.0100 -0.5540
16344TIP3    H270524   2.387   5.381   3.024  0.5563  0.3920  1.0908
16345TIP3   OH270525   1.566   0.995  13.885  0.0669  1.0737  0.0951
16345TIP3    H170526   1.514   0.977  13.806  0.7476 -1.6896  0.1680
16345TIP3    H270527   1.657   0.990  13.856  0.3225  0.2188  0.9805
16346TIP3   OH270528   3.087   3.352  14.437 -0.6224 -0.5310 -0.4917
16346TIP3    H170529   3.033   3.330  14.361 -0.5393  0.0932 -0.7391
16346TIP3    H270530   3.032   3.333  14.512 -0.5240 -1.6695 -0.6762
16347TIP3   OH270531   3.858   5.748  16.327  0.4517 -0.2316 -0.4753
16347TIP3    H170532   3.869   5.816  16.261  0.3902 -1.3462 -1.6752
16347TIP3    H270533   3.930   5.762  16.388  0.7311  0.6011 -0.9765
16348TIP3   OH270534   3.418   3.563  12.206 -0.4802  0.1314 -0.1033
16348TIP3    H170535   3.393   3.655  12.206 -0.0077  0.2742  1.2228
16348TIP3    H270536   3.502   3.561  12.159  0.2945  0.6274  1.2129
16349TIP3   OH270537   5.195   4.935   3.126  0.1922  0.0951  0.4652
16349TIP3    H170538   5.272   4.980   3.092  0.3380 -0.7692 -0.4269
16349TIP3    H270539   5.149   4.905   3.048 -0.4580 -0.3604  1.0108
16350TIP3   OH270540   3.885   4.808  13.284 -0.1153  0.2136 -0.2734
16350TIP3    H170541   3.970   4.765  13.275 -0.0101  0.0922  1.1079
16350TIP3    H270542   3.907   4.901  13.296 -0.2095  0.2610 -0.4627
16351TIP3   OH270543   3.731   4.832   1.805 -0.2960 -0.5261 -0.1089
16351TIP3    H170544   3.811   4.799   1.846 -1.1021 -2.6465 -0.0865
16351TIP3    H270545   3.759   4.864   1.719  0.5301 -1.7156 -0.3163
16352TIP3   OH270546   6.291   4.934  12.042 -0.2770 -0.0950 -0.4842
16352TIP3    H170547   6.377   4.953  12.080  0.2376  1.9649 -2.5354
16352TIP3    H270548   6.291   4.839  12.031  1.2182 -0.2731  0.6800
16353TIP3   OH270549   5.870   1.554  15.003 -0.5680 -0.2642 -0.0135
16353TIP3    H170550   5.820   1.621  15.049  1.5543  1.3843  0.0497
16353TIP3    H270551   5.812   1.523  14.934 -2.0675  0.6901  0.7758
16354TIP3   OH270552   4.936   2.104   2.466  0.6051  0.4898  0.0996
16354TIP3    H170553   4.890   2.089   2.383 -2.2385  2.4389  1.1842
16354TIP3    H270554   4.941   2.199   2.474  1.9841  0.3261  1.6137
16355TIP3   OH270555   5.382   0.090   0.743  0.3686 -0.0535  0.2396
16355TIP3    H170556   5.451   0.149   0.713 -0.4194  0.5204 -0.4635
16355TIP3    H270557   5.403   0.073   0.835  1.6872 -0.2389 -0.0749
16356TIP3   OH270558   3.657   4.262   0.039 -0.1526 -0.2954  0.3970
16356TIP3    H170559   3.661   4.286   0.131  3.8404 -0.2497  0.3866
16356TIP3    H270560   3.662   4.166   0.038 -1.8712 -0.4286  0.1571
16357TIP3   OH270561   3.536   3.436   4.133 -0.0978 -0.0210 -0.4065
16357TIP3    H170562   3.604   3.469   4.075 -1.7018  1.7178 -1.4194
16357TIP3    H270563   3.464   3.499   4.124 -1.6700 -1.5058  0.9600
16358TIP3   OH270564   3.111   4.427   1.162  0.0808 -0.3980 -0.1907
16358TIP3    H170565   3.161   4.423   1.081 -0.8204  1.0206 -0.8501
16358TIP3    H270566   3.142   4.352   1.213  0.8317 -1.1803 -1.7314
16359TIP3   OH270567   2.042   2.917   2.143  0.1727  0.2885  0.1519
16359TIP3    H170568   2.057   2.985   2.209 -1.9742  0.5828  0.4089
16359TIP3    H270569   2.036   2.835   2.193  0.0627  0.2977  0.1544
16360TIP3   OH270570   1.276   4.215  11.730  0.6588  0.0782 -0.6195
16360TIP3    H170571   1.211   4.256  11.672 -3.2325 -4.3455  0.0168
16360TIP3    H270572   1.249   4.239  11.818  0.1631 -1.3451 -0.3634
16361TIP3   OH270573   0.614   2.842  12.983  0.3266 -0.3606 -0.2185
16361TIP3    H170574   0.537   2.798  12.946  1.2448 -1.1255 -1.2966
16361TIP3    H270575   0.578   2.913  13.037 -1.1541 -1.4681  0.3138
16362TIP3   OH270576   6.023   1.144  11.550 -0.7185 -0.4741  0.0857
16362TIP3    H170577   5.940   1.190  11.548  0.0309  0.8957 -1.6505
16362TIP3    H270578   6.080   1.198  11.605 -0.5425 -0.6336  0.0638
16363TIP3   OH270579   1.813   3.683   5.132  0.2524 -0.0753  0.1094
16363TIP3    H170580   1.750   3.625   5.090  0.4493  0.5184 -1.0305
16363TIP3    H270581   1.897   3.638   5.120  0.0121 -1.2472  2.2944
16364TIP3   OH270582   3.394   6.801   6.010 -0.3735  0.3777 -0.7078
16364TIP3    H170583   3.305   6.821   6.039 -0.2803 -0.7973  0.4872
16364TIP3    H270584   3.416   6.719   6.054  2.0234  1.6312  0.6529
16365TIP3   OH270585   6.725   5.255   3.235 -0.1678  0.2886  0.4551
16365TIP3    H170586   6.809   5.218   3.263  0.3783  1.9228  1.0815
16365TIP3    H270587   6.700   5.202   3.160  1.6044 -0.0203  0.0326
16366TIP3   OH270588   6.699   2.941  16.164 -0.3230 -0.1367 -0.3300
16366TIP3    H170589   6.605   2.958  16.168 -0.2640  0.1465 -0.1332
16366TIP3    H270590   6.717   2.888  16.242 -0.4286 -0.7357 -0.7063
16367TIP3   OH270591   1.298   0.985   1.628  0.0417  0.5706 -0.3678
16367TIP3    H170592   1.262   0.909   1.673  0.6402 -0.1034 -0.9857
16367TIP3    H270593   1.234   1.005   1.559 -0.3630  0.9547  0.1099
16368TIP3   OH270594   2.574   6.298  15.378  0.6745  0.3315 -0.5844
16368TIP3    H170595   2.599   6.388  15.397 -0.6509  0.5318  0.3391
16368TIP3    H270596   2.487   6.305  15.338 -0.1583 -0.6177  0.9920
16369TIP3   OH270597   0.666   3.972   0.426 -0.2129 -0.1241  0.4497
16369TIP3    H170598   0.642   4.056   0.387 -0.6583  0.4345  1.8365
16369TIP3    H270599   0.760   3.981   0.444 -0.2732  0.1252  0.6630
16370TIP3   OH270600   3.148   5.500  12.567  0.4639 -0.0288  0.0233
16370TIP3    H170601   3.200   5.578  12.546  1.1169 -0.2933  0.6173
16370TIP3    H270602   3.074   5.504  12.506 -0.5847  2.1118  1.3076
16371TIP3   OH270603   2.380   5.697   0.183  0.2380 -0.1904 -0.0706
16371TIP3    H170604   2.406   5.782   0.218  0.2954 -0.1570 -0.1941
16371TIP3    H270605   2.462   5.647   0.178 -0.0477 -0.9105  1.7712
16372TIP3   OH270606   2.118   2.484   2.156  0.6865 -0.8658  0.3340
16372TIP3    H170607   2.067   2.407   2.181  0.4082 -0.6122  0.5655
16372TIP3    H270608   2.205   2.450   2.137 -0.2030 -1.7235 -2.7018
16373TIP3   OH270609   4.776   1.154   1.001  0.1910  0.1132  0.1822
16373TIP3    H170610   4.778   1.231   0.945  2.7141 -1.0850 -1.5987
16373TIP3    H270611   4.796   1.187   1.089 -0.7982  1.6633 -0.1372
16374TIP3   OH270612   6.758   1.561  15.813 -0.0568  0.3142  0.3479
16374TIP3    H170613   6.742   1.635  15.872 -1.0539  0.7924 -0.4842
16374TIP3    H270614   6.778   1.488  15.871 -0.1924  0.9718  1.2440
16375TIP3   OH270615   2.306   0.379   1.843 -0.2930  0.3747 -0.1444
16375TIP3    H170616   2.377   0.439   1.866 -0.0645  0.9692 -2.2438
16375TIP3    H270617   2.229   0.435   1.836 -0.8576 -0.1516  1.3164
16376TIP3   OH270618   5.530   0.884  12.068  0.2515 -0.0143 -0.4776
16376TIP3    H170619   5.457   0.890  12.129  0.2009 -1.4767 -0.3616
16376TIP3    H270620   5.492   0.901  11.982 -0.1122 -0.1742 -0.3476
16377TIP3   OH270621   2.069   3.934   1.452 -0.4231 -0.4075 -0.0159
16377TIP3    H170622   2.129   3.865   1.481  0.7143 -1.1297 -3.6462
16377TIP3    H270623   2.116   3.981   1.384 -3.1539  0.4094 -1.5105
16378TIP3   OH270624   0.576   5.250  10.687  0.3889  0.4518 -0.1038
16378TIP3    H170625   0.612   5.272  10.772  1.6769 -0.1355 -0.4694
16378TIP3    H270626   0.605   5.161  10.671 -0.7734  0.1552 -0.6876
16379TIP3   OH270627   2.665   5.694   1.830  0.2489  0.3772  0.5924
16379TIP3    H170628   2.644   5.720   1.741 -1.2984 -1.3954  0.3900
16379TIP3    H270629   2.680   5.777   1.876  1.1086  1.3218 -1.2769
16380TIP3   OH270630   2.077   6.554   1.998 -0.1102 -0.5733  0.1620
16380TIP3    H170631   2.006   6.584   1.941  0.3958 -0.5930 -0.4790
16380TIP3    H270632   2.087   6.461   1.979 -1.3564 -1.0934  1.8122
16381TIP3   OH270633   0.027   2.423   2.549  0.4539 -0.1216 -0.4596
16381TIP3    H170634  -0.033   2.367   2.599  0.8767 -2.0957 -2.0463
16381TIP3    H270635   0.112   2.379   2.555  0.4122 -0.7886 -3.3101
16382TIP3   OH270636   6.277   6.077   5.365  0.3922 -0.1552  0.0373
16382TIP3    H170637   6.365   6.081   5.403  0.5021 -1.0268 -0.1158
16382TIP3    H270638   6.291   6.055   5.273  0.0272  0.1474 -0.0975
16383TIP3   OH270639   3.319   6.169  14.892 -0.3955 -0.0864  0.0037
16383TIP3    H170640   3.391   6.226  14.920  0.8078 -1.4140 -0.2944
16383TIP3    H270641   3.258   6.228  14.848  0.3681  1.1126  0.4860
16384TIP3   OH270642   5.812   2.691   4.431 -0.1834 -0.6671  0.4552
16384TIP3    H170643   5.825   2.759   4.364  0.8035 -2.8359 -1.7230
16384TIP3    H270644   5.808   2.739   4.514 -1.5638  2.1893 -1.1124
16385TIP3   OH270645   0.663   6.041   0.577 -0.2573 -0.3425 -0.1232
16385TIP3    H170646   0.705   6.044   0.491 -1.5062 -0.0243 -0.7525
16385TIP3    H270647   0.701   6.114   0.625 -1.1690  0.9339 -1.2299
16386TIP3   OH270648   4.365   5.895  13.423 -0.2565 -0.7637 -0.4382
16386TIP3    H170649   4.392   5.830  13.358  2.8038  0.6911 -0.8066
16386TIP3    H270650   4.351   5.975  13.372 -1.5618 -0.4759  0.3061
16387TIP3   OH270651   5.721   6.098   0.241 -0.4750 -0.3580 -0.5589
16387TIP3    H170652   5.746   6.102   0.333 -1.0186 -3.7195 -0.1539
16387TIP3    H270653   5.656   6.167   0.231 -0.9437 -0.3909  1.7664
16388TIP3   OH270654   1.433   0.904   6.523  0.2806  0.0796  0.1309
16388TIP3    H170655   1.416   0.913   6.429 -0.5551 -2.2326  0.0006
16388TIP3    H270656   1.526   0.882   6.527 -0.2714 -2.8670 -0.5105
16389TIP3   OH270657   0.525   3.140   6.215  0.2548  0.2400 -0.5004
16389TIP3    H170658   0.472   3.190   6.277 -0.6466 -1.8485  0.4901
16389TIP3    H270659   0.609   3.186   6.212 -0.3209  1.4354  0.8283
16390TIP3   OH270660   3.631   5.686  12.896  0.2710  0.1746 -0.6754
16390TIP3    H170661   3.586   5.764  12.864 -0.5830 -1.4190 -3.7381
16390TIP3    H270662   3.560   5.623  12.912  1.1244 -0.9923 -1.3955
16391TIP3   OH270663   0.957   0.372  16.146  0.3600 -0.2141 -0.1934
16391TIP3    H170664   0.889   0.410  16.091  0.3379  1.4109  0.9059
16391TIP3    H270665   1.014   0.325  16.085  0.7984  2.1771 -1.7338
16392TIP3   OH270666   3.288   5.557   5.927  0.0226  0.1986 -0.2853
16392TIP3    H170667   3.277   5.615   6.003 -1.5131  0.3654 -0.6089
16392TIP3    H270668   3.295   5.617   5.852  0.8310  0.0118 -0.3721
16393TIP3   OH270669   2.484   0.094   3.695 -0.3656  0.0008 -0.2473
16393TIP3    H170670   2.551   0.107   3.762 -1.2738  1.4524  0.4342
16393TIP3    H270671   2.530   0.050   3.623  1.3922  1.1848  0.0838
16394TIP3   OH270672   6.867   3.411  12.717 -0.5293 -0.3282 -0.5020
16394TIP3    H170673   6.941   3.471  12.708  0.7816 -1.3026  2.5614
16394TIP3    H270674   6.793   3.468  12.738  0.0651  0.4247 -0.4014
16395TIP3   OH270675   5.998   2.431   3.265  0.4475 -0.2637  0.1734
16395TIP3    H170676   5.916   2.407   3.221  0.6539 -1.7695  0.5441
16395TIP3    H270677   6.001   2.526   3.260 -1.5132 -0.1472  0.5024
16396TIP3   OH270678   5.826   6.472  14.903  0.0416 -0.4440 -0.6724
16396TIP3    H170679   5.880   6.394  14.910 -0.5985 -0.8707 -0.4622
16396TIP3    H270680   5.817   6.503  14.993 -0.1359 -0.4126 -0.7018
16397TIP3   OH270681   2.936   0.966   1.250 -0.5019  0.0964 -0.0068
16397TIP3    H170682   2.941   0.961   1.346  4.0086  1.0760 -0.0010
16397TIP3    H270683   2.862   1.024   1.233  1.3352  3.8189  3.2204
16398TIP3   OH270684   1.168   0.911   2.920 -0.1608 -0.1980  0.0690
16398TIP3    H170685   1.190   0.821   2.894  0.3439  0.4556 -1.8975
16398TIP3    H270686   1.250   0.947   2.953 -0.2513 -0.3129  0.4196
16399TIP3   OH270687   4.299   3.825  16.940  0.1982 -0.0108 -0.0365
16399TIP3    H170688   4.331   3.736  16.927  1.2698  0.3633 -0.0584
16399TIP3    H270689   4.337   3.852  17.024 -0.2579  0.3716  0.0548
16400TIP3   OH270690   5.967   6.177   1.687 -0.5896 -0.3965  0.2920
16400TIP3    H170691   6.062   6.170   1.679 -0.5966  0.6919 -1.2795
16400TIP3    H270692   5.951   6.271   1.695 -1.5301 -0.5592  0.4188
16401TIP3   OH270693   3.024   6.857  15.342 -0.0506 -0.1243  0.2070
16401TIP3    H170694   3.032   6.767  15.372 -0.8439 -0.3827 -0.3219
16401TIP3    H270695   3.003   6.907  15.421 -0.6994 -0.5739  0.3277
16402TIP3   OH270696   3.421   0.155   0.032  0.3868 -0.5854  0.3861
16402TIP3    H170697   3.502   0.163   0.083  0.5022  0.0319  0.1196
16402TIP3    H270698   3.354   0.134   0.096  0.6828 -0.6814  0.6700
16403TIP3   OH270699   3.552   1.614  15.601  0.0893 -0.1057 -0.2546
16403TIP3    H170700   3.548   1.529  15.644  0.0957 -1.1007 -2.1432
16403TIP3    H270701   3.475   1.616  15.544  1.0203  0.3987 -1.5371
16404TIP3   OH270702   5.323   0.635  14.055 -0.2012 -0.6032 -0.6168
16404TIP3    H170703   5.372   0.707  14.015  0.4781 -1.3097 -1.0728
16404TIP3    H270704   5.313   0.571  13.985 -0.7910 -0.9633 -0.2080
16405TIP3   OH270705   3.488   2.257   3.267 -0.2184  0.0417 -0.5544
16405TIP3    H170706   3.579   2.230   3.277 -0.4160 -0.3838  0.1688
16405TIP3    H270707   3.487   2.349   3.293  0.4406  0.7909 -2.9171
16406TIP3   OH270708   6.510   0.078   1.934 -0.4185 -0.0428 -0.2481
16406TIP3    H170709   6.476   0.077   1.844 -2.2208 -0.5722  0.4060
16406TIP3    H270710   6.499   0.169   1.962  3.0267  0.9275 -1.5245
16407TIP3   OH270711   2.687   2.386   3.901 -0.2464 -0.1250 -0.0619
16407TIP3    H170712   2.704   2.384   3.807  0.0068 -0.7415 -0.0060
16407TIP3    H270713   2.722   2.470   3.930  1.2123 -0.6440 -0.2356
16408TIP3   OH270714   1.996   0.795  13.874  0.3058  0.0109 -0.3822
16408TIP3    H170715   2.028   0.751  13.953 -0.0045 -1.2930 -0.9613
16408TIP3    H270716   2.075   0.825  13.829  0.5811 -0.8285 -0.4687
16409TIP3   OH270717   6.790   3.821  11.817  0.0322  0.5306 -0.4319
16409TIP3    H170718   6.879   3.831  11.783 -0.0584  2.3558 -0.2405
16409TIP3    H270719   6.799   3.834  11.911 -0.5778  2.1489 -0.5577
16410TIP3   OH270720   1.892   3.452   6.569  0.0043  0.2217 -0.1225
16410TIP3    H170721   1.941   3.449   6.651  0.7256 -1.3521 -0.5783
16410TIP3    H270722   1.851   3.366   6.562  1.7424 -0.5240 -2.4280
16411TIP3   OH270723   0.380   6.467  11.293  0.5095 -0.1016  0.1245
16411TIP3    H170724   0.347   6.557  11.285 -0.5777 -0.4489  0.6378
16411TIP3    H270725   0.356   6.425  11.210  0.1872 -0.1841  0.2591
16412TIP3   OH270726   3.383   6.076   2.339 -0.6995 -0.2494 -0.8340
16412TIP3    H170727   3.300   6.119   2.359 -0.3350 -0.5433  1.6204
16412TIP3    H270728   3.365   6.025   2.260 -2.3849  0.9145 -1.2604
16413TIP3   OH270729   1.974   6.564  13.356  0.6733 -0.6434 -0.2017
16413TIP3    H170730   2.069   6.557  13.359  0.8665  1.5042  1.8377
16413TIP3    H270731   1.955   6.605  13.272  1.6065 -0.3541 -0.2775
16414TIP3   OH270732   0.324   3.762   5.472 -0.1574  0.4206  0.4443
16414TIP3    H170733   0.393   3.802   5.525 -1.3014 -0.6305  2.9040
16414TIP3    H270734   0.256   3.738   5.535 -0.8226 -2.6866 -1.2366
16415TIP3   OH270735   2.307   5.373  11.593 -0.1614  0.0247  0.0118
16415TIP3    H170736   2.225   5.383  11.545 -1.3179 -2.3173  1.3214
16415TIP3    H270737   2.337   5.462  11.608 -1.9544  0.9223 -1.3281
16416TIP3   OH270738   4.782   5.375  13.316  0.2891 -0.0180  0.0638
16416TIP3    H170739   4.717   5.342  13.378  1.1626  1.1001  1.6414
16416TIP3    H270740   4.742   5.454  13.279  0.8650  0.9649  1.4153
16417TIP3   OH270741   5.412   4.924  14.912 -0.1326 -0.1211  0.1215
16417TIP3    H170742   5.332   4.876  14.888 -1.1857  1.5083  0.1712
16417TIP3    H270743   5.461   4.863  14.967 -0.0139 -2.1627 -2.0687
16418TIP3   OH270744   2.871   2.128   1.682  0.7490 -0.0750 -0.1013
16418TIP3    H170745   2.905   2.042   1.707 -2.7639 -0.6065  4.1345
16418TIP3    H270746   2.822   2.113   1.601 -0.6131 -2.4022  1.0652
16419TIP3   OH270747   3.352   1.682  10.713  0.2601 -0.4385 -0.1885
16419TIP3    H170748   3.434   1.662  10.668  0.6642  0.6320  0.0241
16419TIP3    H270749   3.361   1.641  10.799  1.4317  1.2474  0.5572
16420TIP3   OH270750   6.430   0.869  11.715  0.0480 -0.3616  0.6087
16420TIP3    H170751   6.489   0.885  11.641 -2.5028  2.7954 -0.9967
16420TIP3    H270752   6.461   0.927  11.785 -0.1500  0.0770  0.3401
16421TIP3   OH270753   2.060   5.360  10.710 -0.1393  0.8211 -0.1033
16421TIP3    H170754   2.146   5.381  10.672 -0.2015 -0.5580 -1.1167
16421TIP3    H270755   2.007   5.438  10.694  0.5905  1.2436 -0.5372
16422TIP3   OH270756   3.515   3.507  15.608 -0.6007  0.4798  0.0494
16422TIP3    H170757   3.526   3.578  15.671  0.1582  0.7962 -0.4194
16422TIP3    H270758   3.561   3.433  15.646 -1.1560  0.3128  0.4093
16423TIP3   OH270759   6.102   5.756  13.761 -0.1232 -0.1990 -0.4757
16423TIP3    H170760   6.040   5.804  13.705 -0.6667 -0.3550 -0.0179
16423TIP3    H270761   6.048   5.690  13.804  0.6374 -1.3207 -1.1985
16424TIP3   OH270762   1.707   4.991   3.173 -0.4565 -0.7804 -0.4056
16424TIP3    H170763   1.669   4.953   3.252 -1.4584  0.2096 -0.3783
16424TIP3    H270764   1.635   5.038   3.132  0.7372  1.3726 -0.2498
16425TIP3   OH270765   6.149   6.038  12.126 -0.2072 -0.5553 -0.3523
16425TIP3    H170766   6.212   6.078  12.066  0.6586 -0.4477  0.5828
16425TIP3    H270767   6.065   6.078  12.104  0.2970  0.3120 -0.7487
16426TIP3   OH270768   2.026   2.484  16.703 -0.3543  0.4827  0.6051
16426TIP3    H170769   1.998   2.436  16.781 -1.4558  0.1394  0.0280
16426TIP3    H270770   2.088   2.549  16.735  1.0045 -1.1662  1.4428
16427TIP3   OH270771   6.228   2.945  10.458 -0.4536 -0.1741  0.9215
16427TIP3    H170772   6.232   2.934  10.553  0.8743 -3.3212  0.6396
16427TIP3    H270773   6.317   2.969  10.433 -0.0653 -2.0990  0.3009
16428TIP3   OH270774   0.489   5.559   4.058 -0.6970  0.2572 -0.0025
16428TIP3    H170775   0.567   5.611   4.076 -1.5643  0.7297  2.7717
16428TIP3    H270776   0.436   5.615   4.000  0.0775  0.8271 -0.1739
16429TIP3   OH270777   2.020   1.755   2.164 -0.5336 -0.1493  0.1464
16429TIP3    H170778   2.060   1.842   2.168  0.3688 -0.6012  1.3732
16429TIP3    H270779   1.982   1.742   2.251  1.0281 -1.7503  0.6367
16430TIP3   OH270780   0.762   3.315  16.985  0.7416  0.0728  0.0666
16430TIP3    H170781   0.806   3.242  17.029 -0.7815 -0.6714  0.4071
16430TIP3    H270782   0.738   3.374  17.057  2.3661  1.1838 -0.2441
16431TIP3   OH270783   2.799   2.804  15.302 -1.0201  0.2902 -0.0950
16431TIP3    H170784   2.843   2.731  15.345 -1.3862 -0.6782 -1.3387
16431TIP3    H270785   2.827   2.801  15.211 -1.2567  1.5450 -0.2401
16432TIP3   OH270786   3.233   1.335  15.179 -0.4775 -0.0110  0.1256
16432TIP3    H170787   3.172   1.295  15.117 -0.7369  0.2911  0.1853
16432TIP3    H270788   3.185   1.336  15.262 -0.1469 -0.3741  0.3244
16433TIP3   OH270789   0.491   5.533   1.211  0.5882  0.1024  0.0717
16433TIP3    H170790   0.445   5.449   1.210  0.0572  0.3196  2.0263
16433TIP3    H270791   0.425   5.596   1.240  1.3658  0.9226  0.0960
16434TIP3   OH270792   4.662   1.299   5.370  0.2597  0.0191 -0.0882
16434TIP3    H170793   4.666   1.304   5.274 -1.8304 -1.4828 -0.3129
16434TIP3    H270794   4.754   1.295   5.397  0.9688  2.2845 -1.8656
16435TIP3   OH270795   4.930   5.483  11.583  0.4171  0.2247 -0.2466
16435TIP3    H170796   4.844   5.487  11.541  0.6551  0.3898 -0.7174
16435TIP3    H270797   4.979   5.557  11.548  0.8286  0.0079 -0.1444
16436TIP3   OH270798   2.638   1.349   4.880 -0.4025  0.1251 -0.0527
16436TIP3    H170799   2.627   1.287   4.952 -2.3100 -0.8815 -1.1192
16436TIP3    H270800   2.619   1.434   4.919  0.8052 -0.0993  1.1038
16437TIP3   OH270801   2.130   0.306   6.398  0.1296  0.1862  0.3248
16437TIP3    H170802   2.150   0.328   6.307 -0.9603 -0.2277 -0.0272
16437TIP3    H270803   2.215   0.309   6.443  0.4932  1.8023 -0.3937
16438TIP3   OH270804   5.094   2.291  15.602 -0.1758  0.1280 -0.4261
16438TIP3    H170805   5.056   2.204  15.617 -0.1333  0.3086  0.8648
16438TIP3    H270806   5.112   2.293  15.508  0.4817 -1.5255 -0.3759
16439TIP3   OH270807   5.646   2.918   1.685 -0.1626  0.3750 -0.0901
16439TIP3    H170808   5.632   2.927   1.590 -3.6019  0.5522  0.2949
16439TIP3    H270809   5.674   2.827   1.696 -2.3791 -0.5111 -1.1394
16440TIP3   OH270810   6.305   2.680   4.734 -0.0365  0.3160  0.0048
16440TIP3    H170811   6.334   2.737   4.663  2.2087 -0.8937 -0.1436
16440TIP3    H270812   6.275   2.600   4.690  0.2020  0.0400  0.3316
16441TIP3   OH270813   3.474   6.521   5.803 -0.2710  0.1913  0.4670
16441TIP3    H170814   3.492   6.530   5.897  1.2645  0.6253  0.1597
16441TIP3    H270815   3.378   6.526   5.796 -0.3597  0.9391  1.9322
16442TIP3   OH270816   6.246   5.215   6.134 -0.2464  0.0306 -0.5394
16442TIP3    H170817   6.256   5.277   6.062  1.4633  0.2983 -0.1321
16442TIP3    H270818   6.264   5.266   6.213 -0.8997 -0.5236 -0.0219
16443TIP3   OH270819   0.867   0.616  13.084  0.1534 -0.6869  0.2505
16443TIP3    H170820   0.880   0.701  13.127 -1.2491 -0.0599 -0.4811
16443TIP3    H270821   0.951   0.597  13.042  0.7782 -0.1337  1.2284
16444TIP3   OH270822   5.041   5.966  15.405  0.6631 -0.4970  0.4458
16444TIP3    H170823   4.983   5.919  15.464  0.6253 -1.5378 -0.3948
16444TIP3    H270824   5.001   6.053  15.396 -0.3759 -0.9594  0.4439
16445TIP3   OH270825   0.726   1.951  16.577  0.0412  0.2700 -0.5351
16445TIP3    H170826   0.656   1.971  16.515  0.3600  1.2286 -0.5935
16445TIP3    H270827   0.687   1.887  16.637 -0.8496  0.7202 -0.6258
16446TIP3   OH270828   0.290   0.282   6.891  0.0616 -0.3812 -0.3336
16446TIP3    H170829   0.291   0.250   6.800  0.9446 -0.3239 -0.3498
16446TIP3    H270830   0.336   0.214   6.941 -0.4086 -0.4052  0.0713
16447TIP3   OH270831   5.571   3.032  14.350  0.3939  0.3864 -0.1109
16447TIP3    H170832   5.621   3.039  14.431  0.1912  1.1104 -0.0348
16447TIP3    H270833   5.594   2.947  14.314 -0.4272 -0.4625  1.3041
16448TIP3   OH270834   3.280   1.957  15.817 -0.2403 -0.0307  0.1991
16448TIP3    H170835   3.209   1.968  15.880  1.3432  1.1906  1.8706
16448TIP3    H270836   3.358   1.941  15.871  1.5975  3.2302 -1.2175
16449TIP3   OH270837   3.102   4.373   4.133 -0.1143  0.0437 -0.0545
16449TIP3    H170838   3.139   4.379   4.045 -1.6629  1.7362 -0.6364
16449TIP3    H270839   3.008   4.377   4.121 -0.3660  0.4076  1.7001
16450TIP3   OH270840   3.877   5.112  14.478 -0.0898  0.3969  0.0729
16450TIP3    H170841   3.840   5.111  14.566 -1.4216 -0.3330 -0.4698
16450TIP3    H270842   3.861   5.024  14.444 -0.8652  1.0737 -1.4043
16451TIP3   OH270843   6.079   1.803   2.140  0.2486  0.1965 -0.0879
16451TIP3    H170844   6.089   1.878   2.198 -1.8301 -0.0907  0.7267
16451TIP3    H270845   6.080   1.841   2.052 -1.3030  1.2949  0.3227
16452TIP3   OH270846   0.111   1.657   4.877 -0.3497  0.2391 -0.1981
16452TIP3    H170847   0.040   1.617   4.826 -0.1688  0.6603 -0.7911
16452TIP3    H270848   0.135   1.736   4.827  0.1535  0.4007  0.2910
16453TIP3   OH270849   4.491   4.283  15.227  0.1336  0.5440 -0.1766
16453TIP3    H170850   4.459   4.217  15.165  1.2117 -0.5612  0.3894
16453TIP3    H270851   4.413   4.331  15.253 -0.2662  1.7038 -3.0591
16454TIP3   OH270852   3.985   4.272   0.044  0.0701  0.0154 -0.0362
16454TIP3    H170853   3.932   4.350   0.027 -0.6760 -0.2698  0.9274
16454TIP3    H270854   3.977   4.221  -0.037  0.3029  0.7809 -0.5551
16455TIP3   OH270855   4.818   5.991  13.250  0.2378  0.2290  0.3853
16455TIP3    H170856   4.836   6.067  13.195  0.6284  0.1745  0.4382
16455TIP3    H270857   4.833   6.022  13.340 -0.6344  0.3885  0.4848
16456TIP3   OH270858   1.135   3.870   1.035 -0.6086 -0.5000 -0.0289
16456TIP3    H170859   1.079   3.936   0.995 -1.1335 -1.5654 -1.1189
16456TIP3    H270860   1.202   3.851   0.969 -1.5704 -2.3802 -0.5423
16457TIP3   OH270861   0.691   4.509   2.922 -0.4056  0.0583 -0.4801
16457TIP3    H170862   0.750   4.451   2.874 -0.7097 -0.3260 -0.3908
16457TIP3    H270863   0.628   4.538   2.856 -1.1775 -0.9359 -0.1948
16458TIP3   OH270864   0.091   1.050  15.434 -0.6104  0.7986 -0.2820
16458TIP3    H170865   0.158   1.064  15.501  0.1312 -0.4924 -0.7244
16458TIP3    H270866   0.059   0.962  15.450 -0.0038  0.2295 -1.9549
16459TIP3   OH270867   2.950   3.416   0.465 -0.0643 -0.0074  0.0499
16459TIP3    H170868   2.860   3.444   0.447 -0.5355 -0.8573  0.9555
16459TIP3    H270869   2.940   3.331   0.510  0.9609  1.6526  3.8124
16460TIP3   OH270870   2.826   3.996   5.492 -0.2013  0.2751 -0.2067
16460TIP3    H170871   2.821   4.060   5.562 -0.4718  1.1795 -1.0277
16460TIP3    H270872   2.867   3.919   5.532 -2.7560 -0.2410  1.6254
16461TIP3   OH270873   4.661   3.247  16.039 -0.0502  0.3304  0.4271
16461TIP3    H170874   4.628   3.337  16.030  0.1543  0.5467  1.6294
16461TIP3    H270875   4.593   3.193  16.000 -0.6291  0.9440  0.5537
16462TIP3   OH270876   1.000   0.693   2.369  0.2057 -0.0901  0.1440
16462TIP3    H170877   0.994   0.775   2.418 -0.3892 -0.0850  0.0607
16462TIP3    H270878   0.914   0.681   2.329  0.3002 -0.7272  0.1119
16463TIP3   OH270879   0.844   3.105  12.343  0.1096 -0.3981 -0.2930
16463TIP3    H170880   0.884   3.160  12.276 -0.3251 -1.0638 -1.1164
16463TIP3    H270881   0.917   3.076  12.397  0.2644  1.6719  0.7024
16464TIP3   OH270882   3.163   0.407   4.123 -0.3614  0.2381  0.2614
16464TIP3    H170883   3.076   0.381   4.092  0.5793 -0.6845 -1.7421
16464TIP3    H270884   3.195   0.331   4.171 -0.1151  0.0374 -0.2132
16465TIP3   OH270885   2.332   1.589   2.853  0.6509 -0.5445 -0.0512
16465TIP3    H170886   2.273   1.547   2.916 -2.0531 -0.1051 -2.0908
16465TIP3    H270887   2.342   1.524   2.783  0.9196  0.1499 -0.6709
16466TIP3   OH270888   4.563   1.133   3.794  0.4227  0.1157  0.2970
16466TIP3    H170889   4.511   1.145   3.715  1.3589  0.5838 -0.2694
16466TIP3    H270890   4.613   1.053   3.777  0.0474 -0.2170  0.7485
16467TIP3   OH270891   0.706   6.663   1.614  0.3326 -0.3169 -0.2216
16467TIP3    H170892   0.636   6.715   1.574  0.3327  0.0408  0.2432
16467TIP3    H270893   0.731   6.600   1.546 -0.0631 -0.0865 -0.5814
16468TIP3   OH270894   3.018   5.421  11.406 -0.2325  0.3288  0.1845
16468TIP3    H170895   3.042   5.514  11.414  1.1729  0.2187 -1.9424
16468TIP3    H270896   3.000   5.393  11.496  0.6223  2.3236  1.0426
16469TIP3   OH270897   1.703   5.171   2.767  0.1452  0.3724 -0.3348
16469TIP3    H170898   1.792   5.138   2.773 -0.0130  0.0243  0.2227
16469TIP3    H270899   1.648   5.092   2.762 -0.0550  0.5801 -2.2595
16470TIP3   OH270900   5.889   3.526   2.411  0.8190  0.3423  0.7184
16470TIP3    H170901   5.873   3.434   2.392  2.7466 -0.2524  1.6837
16470TIP3    H270902   5.975   3.545   2.373 -0.1055  2.1406 -0.6128
16471TIP3   OH270903   1.851   3.781   3.828  0.4270 -0.2705 -0.2440
16471TIP3    H170904   1.761   3.814   3.827  1.0016  1.3987 -0.5800
16471TIP3    H270905   1.868   3.754   3.738  1.2551  2.4832 -1.0222
16472TIP3   OH270906   6.797   1.626   5.939 -0.2924 -0.6036 -0.0200
16472TIP3    H170907   6.808   1.717   5.910  0.9111 -0.5873  0.4465
16472TIP3    H270908   6.727   1.630   6.005  0.6357  0.1994  0.9376
16473TIP3   OH270909   1.014   1.608  12.383  0.4324 -0.3620 -0.0663
16473TIP3    H170910   0.922   1.624  12.360  0.3660 -0.8599 -0.1651
16473TIP3    H270911   1.021   1.512  12.388  0.7669 -0.3085  0.6640
16474TIP3   OH270912   4.003   6.707   0.421 -1.0872  0.0941  0.2982
16474TIP3    H170913   3.955   6.757   0.354 -0.4170  0.7642  0.3048
16474TIP3    H270914   4.069   6.768   0.454  0.4488 -1.0978 -0.4268
16475TIP3   OH270915   6.831   0.266  13.023  0.1940  0.5379  0.1011
16475TIP3    H170916   6.747   0.291  12.985 -0.1449  0.0950  0.5366
16475TIP3    H270917   6.862   0.194  12.968  0.2566  0.6605 -0.0235
16476TIP3   OH270918   1.609   4.906   2.798 -1.0068 -0.5420  0.0739
16476TIP3    H170919   1.547   4.850   2.844 -0.0046  0.3764  2.7158
16476TIP3    H270920   1.692   4.859   2.801 -0.7079 -0.0297  0.1181
16477TIP3   OH270921   3.480   0.503   0.782  0.6322  0.1019 -0.2583
16477TIP3    H170922   3.393   0.476   0.813  1.0065 -0.7337  0.0859
16477TIP3    H270923   3.483   0.472   0.691  0.1935  1.0276 -0.6004
16478TIP3   OH270924   4.014   5.385   2.614  0.2578  0.0966 -0.1490
16478TIP3    H170925   4.078   5.372   2.544 -1.1483  1.0117 -1.6727
16478TIP3    H270926   3.931   5.358   2.576 -0.8111  2.1827  0.5724
16479TIP3   OH270927   0.575   5.150   0.960 -0.1547 -0.6606 -0.7285
16479TIP3    H170928   0.568   5.077   1.022  0.8605 -0.5248 -0.4424
16479TIP3    H270929   0.491   5.151   0.916 -1.6559  0.4060  1.9152
16480TIP3   OH270930   1.234   1.210   4.377 -0.2656 -0.4920  0.4817
16480TIP3    H170931   1.181   1.134   4.351 -0.8217 -0.3321  1.1082
16480TIP3    H270932   1.301   1.174   4.435 -0.9984 -0.4196  1.4039
16481TIP3   OH270933   2.922   4.912   1.852 -0.2595 -0.4625  0.2681
16481TIP3    H170934   2.881   4.859   1.920  0.3787 -1.0311  0.2215
16481TIP3    H270935   2.997   4.952   1.896  0.1925 -0.8827 -0.1155
16482TIP3   OH270936   3.127   2.725   4.938  0.4683 -0.4748  0.4299
16482TIP3    H170937   3.063   2.730   4.868  0.0839 -0.4283  0.7824
16482TIP3    H270938   3.211   2.743   4.895  0.2061 -0.2011  0.0280
16483TIP3   OH270939   2.094   4.482   3.256  0.5229  0.5971 -0.7739
16483TIP3    H170940   2.050   4.458   3.174  0.5251 -1.5151 -0.2098
16483TIP3    H270941   2.180   4.439   3.250  0.0290 -0.7033  0.8705
16484TIP3   OH270942   4.758   5.156  13.610  0.2387  0.0059  0.3295
16484TIP3    H170943   4.795   5.236  13.645  1.7497 -0.1465 -0.8005
16484TIP3    H270944   4.684   5.185  13.556 -1.0266  0.3613  2.1692
16485TIP3   OH270945   0.571   2.579  16.757  0.1810  0.0860 -0.2984
16485TIP3    H170946   0.490   2.617  16.790  0.8716  1.1159  0.2685
16485TIP3    H270947   0.582   2.618  16.670  0.8946  1.2506  0.2876
16486TIP3   OH270948   0.068   0.800   5.284  0.4054 -0.2558  0.4352
16486TIP3    H170949   0.055   0.719   5.332  1.9586 -0.2431  0.9449
16486TIP3    H270950   0.118   0.775   5.206  0.6136  0.1560  0.4283
16487TIP3   OH270951   5.447   2.882  15.214 -0.1717  0.2710 -0.6917
16487TIP3    H170952   5.396   2.911  15.139 -1.6496 -1.7727 -0.5721
16487TIP3    H270953   5.455   2.959  15.270 -1.2405  1.1946 -1.7630
16488TIP3   OH270954   4.399   6.712   5.243  0.0515 -0.1074 -0.3294
16488TIP3    H170955   4.491   6.698   5.264 -0.5414 -1.8390  1.4741
16488TIP3    H270956   4.361   6.624   5.239 -1.4697  0.5419 -1.4052
16489TIP3   OH270957   5.525   6.764   5.970  0.0821 -0.4265  0.1790
16489TIP3    H170958   5.489   6.771   6.059 -0.4875 -0.5458 -0.0374
16489TIP3    H270959   5.484   6.685   5.934  2.8896 -2.4083  0.9931
16490TIP3   OH270960   3.127   2.749   1.364 -0.0552 -0.3381 -0.2266
16490TIP3    H170961   3.072   2.687   1.314  1.1232 -0.0437 -1.9753
16490TIP3    H270962   3.140   2.706   1.448 -0.1440 -2.0061 -1.0142
16491TIP3   OH270963   6.126   0.779  13.674  0.2800  0.3064 -0.9058
16491TIP3    H170964   6.137   0.737  13.589 -1.0979 -2.1559  0.0039
16491TIP3    H270965   6.136   0.708  13.737 -2.1973  1.3140  0.7836
16492TIP3   OH270966   5.992   4.436  11.710 -0.1848  0.0803  0.0518
16492TIP3    H170967   6.032   4.404  11.790  1.0022  0.6007 -0.3058
16492TIP3    H270968   5.968   4.527  11.729  1.2474  0.6145 -0.5352
16493TIP3   OH270969   3.145   6.814   0.189  0.7846  0.0776  0.7210
16493TIP3    H170970   3.054   6.795   0.213  0.9178 -0.7297  0.6020
16493TIP3    H270971   3.138   6.850   0.100  0.5462  0.3857  0.8625
16494TIP3   OH270972   3.858   4.369   0.890 -0.4210 -0.8661 -0.1428
16494TIP3    H170973   3.819   4.419   0.962 -0.3890 -0.9543 -0.0650
16494TIP3    H270974   3.819   4.408   0.811  1.9706  1.4456 -0.3078
16495TIP3   OH270975   2.145   1.346   4.941 -0.1879  0.3171  0.1123
16495TIP3    H170976   2.168   1.304   5.024  2.2366  1.8727  0.3097
16495TIP3    H270977   2.185   1.291   4.874 -1.0803 -0.2489  0.0265
16496TIP3   OH270978   3.362   6.781   4.159  0.3072 -0.4088  0.7089
16496TIP3    H170979   3.329   6.760   4.071  0.7947 -0.1359  0.4564
16496TIP3    H270980   3.454   6.802   4.145  0.4897 -0.7652  1.3481
16497TIP3   OH270981   6.606   4.670  16.263 -0.4211  0.2189 -0.2087
16497TIP3    H170982   6.678   4.653  16.203 -0.7524 -1.4908 -0.1791
16497TIP3    H270983   6.646   4.716  16.337 -0.1098  2.8797 -1.8949
16498TIP3   OH270984   6.808   6.797  14.322  0.0708  0.1936 -0.1456
16498TIP3    H170985   6.738   6.775  14.384 -0.3092  0.9756 -0.2750
16498TIP3    H270986   6.811   6.893  14.323  0.5266  0.1929 -0.8220
16499TIP3   OH270987   1.669   3.310   5.346  0.0529  0.0555  0.3189
16499TIP3    H170988   1.716   3.379   5.299  0.5037 -0.8146 -0.5640
16499TIP3    H270989   1.701   3.316   5.436 -0.0318  1.0785  0.2952
16500TIP3   OH270990   5.396   2.105   6.326  0.1709  0.4778 -0.0687
16500TIP3    H170991   5.485   2.071   6.321 -0.0618 -0.1432 -0.0644
16500TIP3    H270992   5.389   2.165   6.252  1.2521  2.1303  1.1155
16501TIP3   OH270993   3.598   0.871   6.238 -0.9537  0.4894 -0.2191
16501TIP3    H170994   3.571   0.784   6.209 -0.6439 -0.0009  0.9438
16501TIP3    H270995   3.516   0.912   6.267 -0.9087  0.0963  0.4792
16502TIP3   OH270996   4.104   2.236   3.250 -0.1108 -0.5547  0.2204
16502TIP3    H170997   4.080   2.255   3.160  1.9123 -0.7740 -0.4188
16502TIP3    H270998   4.102   2.321   3.294  0.6178 -0.1606 -0.4919
16503TIP3   OH270999   5.371   5.844   0.769 -0.2017  0.1825 -0.0506
16503TIP3    H171000   5.340   5.856   0.679  0.6589 -0.1817 -0.4142
16503TIP3    H271001   5.343   5.755   0.792 -0.3268  0.2340 -0.0111
16504TIP3   OH271002   1.506   6.087   3.202  0.2860  0.5776  0.0216
16504TIP3    H171003   1.487   6.023   3.271 -0.2021  0.2381 -0.4161
16504TIP3    H271004   1.595   6.067   3.175 -0.2512 -0.7372 -0.9366
16505TIP3   OH271005   0.364   0.668  15.508 -0.0065  0.1853 -0.0246
16505TIP3    H171006   0.441   0.622  15.541  0.9464  2.3627  0.9859
16505TIP3    H271007   0.355   0.637  15.417  1.7736 -0.4828 -0.0116
16506TIP3   OH271008   1.465   4.724  12.933 -0.0062 -0.2499 -0.1336
16506TIP3    H171009   1.557   4.725  12.960 -0.2984  0.5342  0.9537
16506TIP3    H271010   1.417   4.729  13.016 -0.9693  2.4525 -0.7427
16507TIP3   OH271011   1.792   4.780  14.701 -0.0633 -0.1166 -0.1178
16507TIP3    H171012   1.815   4.773  14.609 -0.3658  0.3178 -0.2286
16507TIP3    H271013   1.741   4.702  14.720  1.3680 -1.0352  0.0979
16508TIP3   OH271014   1.331   1.351   0.561 -0.5084 -0.8531 -0.1372
16508TIP3    H171015   1.257   1.352   0.622 -1.4942  1.2902 -1.2729
16508TIP3    H271016   1.329   1.263   0.522 -1.5351 -1.3127  0.9043
16509TIP3   OH271017   4.192   6.128  16.382 -0.3206  0.2389 -0.0079
16509TIP3    H171018   4.217   6.132  16.474  0.1726 -2.8479  0.0991
16509TIP3    H271019   4.113   6.182  16.376 -0.9726 -0.3291  2.4377
16510TIP3   OH271020   2.916   0.290   3.248  0.0263  0.3251 -0.3010
16510TIP3    H171021   2.838   0.265   3.297  0.3342 -1.7450 -0.7870
16510TIP3    H271022   2.944   0.210   3.206  1.9803  1.2160 -0.7793
16511TIP3   OH271023   2.570   2.856  15.887 -0.7494 -0.4195  0.3321
16511TIP3    H171024   2.641   2.815  15.937 -0.9392 -0.3621  0.6499
16511TIP3    H271025   2.503   2.788  15.880 -0.8126 -0.3585  0.3392
16512TIP3   OH271026   1.244   2.190  11.767  0.1433  0.0740  0.3007
16512TIP3    H171027   1.265   2.160  11.856 -2.1315 -1.2100  0.4784
16512TIP3    H271028   1.189   2.267  11.780  0.4393  0.3419 -0.0199
16513TIP3   OH271029   3.018   4.649   0.743 -0.2108 -0.3638  0.4666
16513TIP3    H171030   3.003   4.739   0.771 -0.9554  0.0307 -1.0718
16513TIP3    H271031   2.932   4.617   0.716 -0.2061 -2.0003  2.1515
16514TIP3   OH271032   4.496   6.222  13.425 -0.0324  0.8646 -0.2957
16514TIP3    H171033   4.537   6.210  13.340 -0.7926  0.4683 -0.6148
16514TIP3    H271034   4.403   6.207  13.410 -0.2080  0.9839  0.5668
16515TIP3   OH271035   0.969   4.380   2.080 -0.1999  0.2900  0.1603
16515TIP3    H171036   1.006   4.303   2.037  0.0779  0.3702  0.2541
16515TIP3    H271037   1.013   4.454   2.038 -0.4264  0.3964  0.1073
16516TIP3   OH271038   1.804   2.669  13.979 -0.1061  0.2912  0.2381
16516TIP3    H171039   1.784   2.575  13.977 -0.7752  0.3268  2.4213
16516TIP3    H271040   1.889   2.674  14.023  0.8855  0.6302 -1.6448
16517TIP3   OH271041   4.850   1.704   5.647  0.4108  0.0713  0.5505
16517TIP3    H171042   4.931   1.674   5.689  0.0232  1.1968  2.2018
16517TIP3    H271043   4.808   1.760   5.713 -1.9273 -0.8183 -0.0789
16518TIP3   OH271044   4.387   6.433   2.443 -0.2665 -0.4858  0.2099
16518TIP3    H171045   4.362   6.349   2.404  0.2390 -0.0391 -1.1346
16518TIP3    H271046   4.481   6.441   2.425  0.4783 -1.1221  3.2529
16519TIP3   OH271047   2.605   0.212   4.565 -0.1426 -0.1084 -0.2948
16519TIP3    H171048   2.513   0.236   4.568  0.0333  0.7243 -1.1439
16519TIP3    H271049   2.648   0.286   4.523  1.1162  0.0947  1.2298
16520TIP3   OH271050   1.953   1.578  16.869 -0.1663  0.4593 -0.6726
16520TIP3    H171051   1.914   1.509  16.922  1.8845  0.1818  0.6033
16520TIP3    H271052   1.942   1.549  16.779  0.1455 -1.2636 -0.1838
16521TIP3   OH271053   4.458   5.582   1.790 -0.4502  0.2877  0.2917
16521TIP3    H171054   4.487   5.629   1.712 -0.6221  1.4183  0.8998
16521TIP3    H271055   4.394   5.518   1.757  1.7028 -1.3921 -0.9020
16522TIP3   OH271056   1.052   1.081   0.953  0.2569  0.8402 -0.0543
16522TIP3    H171057   1.049   1.055   1.045 -0.1506 -0.5375 -0.4357
16522TIP3    H271058   1.030   1.175   0.954  0.7404  0.9642  1.2776
16523TIP3   OH271059   4.159   0.936  16.620 -0.1588 -0.1957  0.5044
16523TIP3    H171060   4.225   0.879  16.659  0.2625  0.5511  0.9050
16523TIP3    H271061   4.200   0.968  16.540 -0.8626 -1.3973 -0.3638
16524TIP3   OH271062   6.144   4.442  15.063  0.8138 -0.3444 -0.0132
16524TIP3    H171063   6.143   4.354  15.101  2.9919 -0.0406  0.9015
16524TIP3    H271064   6.214   4.487  15.109 -0.2253  1.8971 -0.4782
16525TIP3   OH271065   1.366   2.462  13.181  0.2486  0.1341 -0.1532
16525TIP3    H171066   1.426   2.407  13.232 -0.9379  1.1963  2.5544
16525TIP3    H271067   1.293   2.404  13.159 -0.0982  0.1114  1.0123
16526TIP3   OH271068   6.173   2.736   1.580 -0.2139  0.5326  0.0600
16526TIP3    H171069   6.199   2.651   1.614  3.4459 -0.1966 -3.6501
16526TIP3    H271070   6.082   2.724   1.551 -0.0909 -1.8017  0.4752
16527TIP3   OH271071   1.096   3.059   4.111  0.0729 -0.1635  0.0256
16527TIP3    H171072   1.185   3.094   4.110  0.5666 -1.3749 -0.4586
16527TIP3    H271073   1.051   3.105   4.040  0.6580 -0.3594 -0.4853
16528TIP3   OH271074   0.346   0.871  11.246  0.2466 -0.5072 -0.4612
16528TIP3    H171075   0.401   0.808  11.199 -1.4726 -1.1629 -1.6963
16528TIP3    H271076   0.321   0.935  11.180  1.6713  1.3414  0.7027
16529TIP3   OH271077   3.745   4.276  15.859  0.0080  0.2616  0.2739
16529TIP3    H171078   3.701   4.316  15.934  1.3831  1.2491  0.5813
16529TIP3    H271079   3.716   4.184  15.860  1.7731 -0.3974  3.4222
16530TIP3   OH271080   1.363   5.631   3.574  0.1783  0.1863 -0.1483
16530TIP3    H171081   1.367   5.707   3.632  0.5506 -1.2646  1.8595
16530TIP3    H271082   1.273   5.628   3.543 -0.3648  0.3743  1.3244
16531TIP3   OH271083   1.463   5.403  15.251 -0.0283  0.2318 -0.2895
16531TIP3    H171084   1.510   5.363  15.324 -0.6311  0.2909  0.1307
16531TIP3    H271085   1.405   5.467  15.291 -1.5612 -0.8693 -0.6539
16532TIP3   OH271086   5.342   5.442  16.813  0.3096 -0.3659  0.2200
16532TIP3    H171087   5.367   5.528  16.849  1.7599 -0.6545 -0.0117
16532TIP3    H271088   5.349   5.382  16.887 -1.6357 -0.1606  0.6139
16533TIP3   OH271089   0.426   6.539  11.704 -0.4593  0.9653 -0.2493
16533TIP3    H171090   0.411   6.460  11.756  0.8521  0.2670 -0.8600
16533TIP3    H271091   0.426   6.610  11.767  0.5279  0.2048  0.6641
16534TIP3   OH271092   2.697   6.430  13.414  0.1738  0.4062  0.1274
16534TIP3    H171093   2.634   6.454  13.346 -2.8288 -4.0377  0.9210
16534TIP3    H271094   2.776   6.408  13.366  1.0281  4.8853 -1.0149
16535TIP3   OH271095   3.837   2.839   1.168  0.0276  0.0467  0.2062
16535TIP3    H171096   3.844   2.769   1.104 -0.3486 -1.9247  2.1814
16535TIP3    H271097   3.927   2.868   1.182 -0.0144  1.8234 -2.4197
16536TIP3   OH271098   5.203   0.969  16.669 -0.3849  0.1756  0.0741
16536TIP3    H171099   5.143   0.986  16.596 -1.5068 -0.0082  0.9249
16536TIP3    H271100   5.164   0.896  16.716  2.5646 -2.6802 -1.5352
16537TIP3   OH271101   6.517   0.971  14.755 -0.1939 -0.2208 -0.2426
16537TIP3    H171102   6.424   0.991  14.759  0.2386  1.8362  0.2825
16537TIP3    H271103   6.522   0.879  14.781 -2.2321 -0.9765 -2.2005
16538TIP3   OH271104   2.264   5.744  12.030  0.1120  0.1290  0.6266
16538TIP3    H171105   2.279   5.827  11.984  2.2085 -0.7422 -0.4121
16538TIP3    H271106   2.184   5.709  11.991  0.4108  0.6535 -0.4981
16539TIP3   OH271107   2.781   2.910  12.945 -0.5875 -0.8435  0.1630
16539TIP3    H171108   2.688   2.925  12.962 -0.6910 -0.3900 -0.7555
16539TIP3    H271109   2.785   2.822  12.907 -0.9629  0.0733 -2.1389
16540TIP3   OH271110   6.848   6.062  14.440 -0.3163 -0.0433 -0.4358
16540TIP3    H171111   6.759   6.082  14.412 -0.8228  1.7466  2.1272
16540TIP3    H271112   6.904   6.112  14.381 -1.0636  0.0009 -1.1154
16541TIP3   OH271113   2.005   5.864   1.977  0.0358 -0.0659  0.1358
16541TIP3    H171114   1.981   5.924   2.047 -0.9519  0.8481 -0.9616
16541TIP3    H271115   2.093   5.834   2.000 -0.2438  0.2695  1.7123
16542TIP3   OH271116   2.685   2.895  12.134  0.1555 -0.9557  0.1460
16542TIP3    H171117   2.735   2.818  12.162  2.1226 -0.0861 -0.7060
16542TIP3    H271118   2.700   2.960  12.203 -1.7268 -1.3791  1.0049
16543TIP3   OH271119   6.566   3.395  11.963 -0.1237  0.3072 -0.0810
16543TIP3    H171120   6.587   3.346  12.042  0.7341  0.5556 -0.1512
16543TIP3    H271121   6.639   3.456  11.951  0.2974 -0.4388 -1.6364
16544TIP3   OH271122   4.309   1.293  11.260 -0.3655 -0.7767  0.6375
16544TIP3    H171123   4.267   1.228  11.317 -1.5539 -0.4165  0.2176
16544TIP3    H271124   4.401   1.269  11.260 -0.5346 -1.5144  1.7352
16545TIP3   OH271125   2.237   4.976  16.820  0.2018 -0.5488 -0.1173
16545TIP3    H171126   2.234   5.067  16.851  1.9967 -0.0347 -1.2680
16545TIP3    H271127   2.163   4.933  16.863  0.1352  1.1072  1.5644
16546TIP3   OH271128   4.729   4.139  14.235 -0.1397 -0.2086  0.0575
16546TIP3    H171129   4.765   4.227  14.236  1.2073 -0.7065 -1.2301
16546TIP3    H271130   4.784   4.091  14.173 -0.6679 -2.0311  0.9284
16547TIP3   OH271131   3.511   2.560  14.852  0.1150  0.1938  0.2681
16547TIP3    H171132   3.472   2.487  14.804  0.7299 -0.8823  1.3627
16547TIP3    H271133   3.570   2.518  14.915  2.0516  1.6831 -0.4421
16548TIP3   OH271134   5.446   4.896  12.204 -0.0445  0.4596  0.7747
16548TIP3    H171135   5.407   4.963  12.147 -0.2089  0.7135  1.1834
16548TIP3    H271136   5.454   4.819  12.147 -2.1324  0.0529  0.9473
16549TIP3   OH271137   1.928   5.856  14.867 -0.7064  0.4091 -0.1920
16549TIP3    H171138   1.945   5.839  14.960 -1.0493  1.0713 -0.0015
16549TIP3    H271139   1.852   5.915  14.867 -0.5115  0.6716 -0.8805
16550TIP3   OH271140   2.000   1.342   1.810  0.4475  0.0296  0.0063
16550TIP3    H171141   1.912   1.322   1.779  0.5787  0.7426 -0.8766
16550TIP3    H271142   1.993   1.431   1.844  0.5690 -0.3386  1.0293
16551TIP3   OH271143   5.935   2.133  14.926 -0.4244  0.3933 -0.3182
16551TIP3    H171144   5.911   2.071  14.856  1.8150 -0.7620 -0.1474
16551TIP3    H271145   5.852   2.153  14.969 -1.5061 -0.8778 -1.6951
16552TIP3   OH271146   0.248   3.861  15.240 -0.3737 -0.1690 -0.0011
16552TIP3    H171147   0.240   3.939  15.294 -2.3368  0.2047 -0.7320
16552TIP3    H271148   0.237   3.893  15.150 -1.0575 -1.2541 -0.3268
16553TIP3   OH271149   4.446   0.374   4.511 -0.1335  0.3092  0.2361
16553TIP3    H171150   4.401   0.368   4.427 -0.4148 -0.9648  0.4473
16553TIP3    H271151   4.532   0.409   4.489 -0.2588  0.1504 -0.5622
16554TIP3   OH271152   0.214   2.810   4.867  0.9902 -0.4651 -0.1339
16554TIP3    H171153   0.204   2.823   4.773  0.8073  0.4428  0.0010
16554TIP3    H271154   0.213   2.715   4.879 -1.6499 -0.5978 -0.7715
16555TIP3   OH271155   5.055   5.603   3.753 -0.2929 -0.6416  0.1730
16555TIP3    H171156   5.134   5.563   3.789  0.4208  0.9989  0.5328
16555TIP3    H271157   5.065   5.596   3.658  0.6469  0.1983  0.2044
16556TIP3   OH271158   4.087   3.927   1.781  0.1170  0.0075 -0.3972
16556TIP3    H171159   4.082   3.897   1.691  0.1731  1.7414 -1.0111
16556TIP3    H271160   4.120   3.851   1.830  0.0522 -0.9643 -1.8009
16557TIP3   OH271161   1.218   4.262   2.921 -0.5712 -0.0186 -0.1675
16557TIP3    H171162   1.242   4.170   2.935  0.4080 -0.0555 -1.8825
16557TIP3    H271163   1.131   4.269   2.960 -0.8240 -1.7770 -0.3072
16558TIP3   OH271164   6.517   6.427  12.962 -0.3499  0.4225  0.3246
16558TIP3    H171165   6.426   6.405  12.982 -1.0404  2.1046 -0.7398
16558TIP3    H271166   6.544   6.485  13.033  0.4270 -1.2210  1.4354
16559TIP3   OH271167   1.067   0.195   1.973  0.6593 -0.0151  0.1700
16559TIP3    H171168   1.102   0.273   2.017 -1.1283  1.0281 -0.1993
16559TIP3    H271169   1.076   0.125   2.038  1.3959  0.6985  0.8583
16560TIP3   OH271170   2.798   0.111  11.821  0.0126  1.0407 -0.5989
16560TIP3    H171171   2.795   0.205  11.837 -0.3997  1.3807 -2.4372
16560TIP3    H271172   2.731   0.096  11.754 -1.7970 -1.0024  1.5147
16561TIP3   OH271173   1.331   2.979  12.112  0.3986  0.2493 -0.2918
16561TIP3    H171174   1.421   2.980  12.144  0.1016 -1.2137  0.7168
16561TIP3    H271175   1.321   3.061  12.065  1.1451  2.2345  2.7180
16562TIP3   OH271176   2.700   4.714  12.190 -0.4196 -0.5030  1.0472
16562TIP3    H171177   2.705   4.810  12.190 -0.2601 -0.5108  1.1257
16562TIP3    H271178   2.698   4.690  12.283 -0.3140 -0.5833  1.0290
16563TIP3   OH271179   0.013   4.359  12.439 -0.0516 -0.3311  0.3222
16563TIP3    H171180  -0.010   4.304  12.364 -1.7859  0.1709  0.4420
16563TIP3    H271181  -0.071   4.380  12.480  0.8886 -1.0030  2.7298
16564TIP3   OH271182   2.048   5.994   3.299  0.5411  0.0306  0.3380
16564TIP3    H171183   2.144   5.993   3.300  0.5728 -0.7352 -1.2024
16564TIP3    H271184   2.024   5.948   3.219 -1.1292  0.1622  0.7256
16565TIP3   OH271185   6.584   1.753   4.755  0.0936 -0.2218  0.4866
16565TIP3    H171186   6.652   1.709   4.806  1.1829 -0.0701 -0.7756
16565TIP3    H271187   6.576   1.839   4.797  0.5129 -0.3256  0.7972
16566TIP3   OH271188   6.796   1.964  13.017  0.2932 -0.2699  0.2708
16566TIP3    H171189   6.832   1.993  12.934  0.0935 -0.7750  0.0000
16566TIP3    H271190   6.816   1.870  13.021 -1.2407 -0.6483 -0.0408
16567TIP3   OH271191   2.266   3.912  13.347  0.3848 -0.4724  0.6988
16567TIP3    H171192   2.276   3.823  13.380 -0.0821 -0.0194  2.1529
16567TIP3    H271193   2.272   3.967  13.425  1.5593  0.8504 -0.2772
16568TIP3   OH271194   0.912   5.670   1.053  0.0198  0.0715 -0.6995
16568TIP3    H171195   0.841   5.649   1.114  0.5577 -0.2811 -0.1895
16568TIP3    H271196   0.991   5.670   1.107  0.6667 -1.3813 -1.5909
16569TIP3   OH271197   1.383   0.764   4.385  0.2302 -1.3392  0.0870
16569TIP3    H171198   1.331   0.844   4.384 -0.3751 -1.7310 -1.1840
16569TIP3    H271199   1.424   0.760   4.299  1.3792 -1.6833  0.6331
16570TIP3   OH271200   6.160   4.104   3.582 -0.5283 -0.6188 -0.0185
16570TIP3    H171201   6.233   4.047   3.608  1.9285  1.6988 -1.2314
16570TIP3    H271202   6.149   4.087   3.489 -1.3459 -0.6922  0.0836
16571TIP3   OH271203   1.737   6.062  17.026 -0.4028 -0.0328  0.0770
16571TIP3    H171204   1.820   6.049  17.072 -1.1479 -0.8798  1.2050
16571TIP3    H271205   1.748   6.014  16.944 -0.6979 -2.4236  1.3418
16572TIP3   OH271206   2.407   2.008  15.831  0.0372  0.3812  0.9194
16572TIP3    H171207   2.373   2.087  15.788 -1.3729 -0.7440 -0.1286
16572TIP3    H271208   2.432   2.038  15.918 -1.3297  1.8302  0.8750
16573TIP3   OH271209   4.826   0.173   0.812 -0.1736 -0.1080  0.1488
16573TIP3    H171210   4.788   0.222   0.885 -0.6986 -1.1022  0.5672
16573TIP3    H271211   4.920   0.173   0.830 -0.4380 -2.1143  2.0184
16574TIP3   OH271212   6.229   3.287  16.088  0.3498 -0.1259 -0.4032
16574TIP3    H171213   6.315   3.252  16.113  0.7673  1.2458  0.1745
16574TIP3    H271214   6.220   3.367  16.139 -1.7868 -0.8111  0.3873
16575TIP3   OH271215   6.487   6.198   2.367  0.2748  0.1590  0.1690
16575TIP3    H171216   6.569   6.198   2.416  0.0823 -1.3752  0.5634
16575TIP3    H271217   6.510   6.234   2.281  0.6253  2.8909  1.3063
16576TIP3   OH271218   4.344   4.026  11.357 -0.3315  0.4108 -0.1515
16576TIP3    H171219   4.337   3.963  11.285  0.0373  1.2631 -0.9411
16576TIP3    H271220   4.297   4.104  11.326 -0.5739  0.6260  0.7232
16577TIP3   OH271221   0.626   1.326   6.796 -0.4635 -0.2219 -0.2237
16577TIP3    H171222   0.672   1.282   6.725  0.0694  1.7642 -1.1617
16577TIP3    H271223   0.534   1.304   6.783 -0.2407 -0.8233 -0.8134
16578TIP3   OH271224   6.130   6.557   5.067  0.6109  0.3915  0.2229
16578TIP3    H171225   6.194   6.620   5.034  0.6659 -0.0260 -0.5061
16578TIP3    H271226   6.181   6.478   5.084  0.4459  0.3561  0.5452
16579TIP3   OH271227   0.443   3.835  14.981 -0.1192  0.0429 -0.1305
16579TIP3    H171228   0.439   3.843  14.886 -1.0830 -0.6574 -0.1622
16579TIP3    H271229   0.357   3.801  15.006 -0.1678  0.9844  1.0709
16580TIP3   OH271230   2.652   3.889  12.955  0.5283  0.0499  0.3958
16580TIP3    H171231   2.622   3.814  13.005  0.7124  0.6351  1.4238
16580TIP3    H271232   2.738   3.911  12.993 -0.1527  1.6452  1.1224
16581TIP3   OH271233   3.560   5.421  16.588 -0.4094  0.4182 -0.1385
16581TIP3    H171234   3.608   5.471  16.522 -0.2500  0.4994  0.0378
16581TIP3    H271235   3.488   5.479  16.614 -1.1744 -0.0767 -1.0874
16582TIP3   OH271236   3.954   4.591  11.988 -0.0878 -0.6450  0.3896
16582TIP3    H171237   3.938   4.685  11.987 -0.9515 -0.7710  1.1805
16582TIP3    H271238   3.868   4.552  12.008  0.1657 -1.6216 -0.3485
16583TIP3   OH271239   1.810   4.594   5.532  0.1484 -0.0558 -0.8355
16583TIP3    H171240   1.838   4.546   5.610  0.9363  0.5386 -0.7403
16583TIP3    H271241   1.789   4.527   5.468  1.6138 -0.5374 -0.8404
16584TIP3   OH271242   2.933   5.094   3.082  0.4267 -0.3099 -0.5540
16584TIP3    H171243   2.923   5.111   3.176  0.0370 -1.4358 -0.3758
16584TIP3    H271244   2.980   5.011   3.078  0.8563 -0.0308 -1.3610
16585TIP3   OH271245   6.046   3.157   4.971  0.1662  0.1124 -0.6685
16585TIP3    H171246   6.048   3.072   4.928 -2.0588  0.0490 -0.7811
16585TIP3    H271247   6.050   3.137   5.064 -0.3323 -0.1211 -0.6956
16586TIP3   OH271248   4.921   4.841   5.284 -0.1978 -0.1593  0.0391
16586TIP3    H171249   4.866   4.867   5.358 -0.3732 -0.2878 -0.0446
16586TIP3    H271250   4.860   4.834   5.210 -0.4347 -2.3026  0.3843
16587TIP3   OH271251   1.466   4.462  12.567  0.0084  0.6506 -0.0871
16587TIP3    H171252   1.392   4.452  12.506  0.6938  1.0086 -1.0033
16587TIP3    H271253   1.512   4.539  12.535  1.5080 -0.3071 -0.3210
16588TIP3   OH271254   1.518   3.975  13.790  0.0184  0.2391 -0.2389
16588TIP3    H171255   1.524   3.990  13.696  2.1785  0.4464 -0.1129
16588TIP3    H271256   1.522   4.062  13.829  0.2161  0.0863  0.0891
16589TIP3   OH271257   1.075   1.191   5.548 -0.1789  0.6374  0.0115
16589TIP3    H171258   1.037   1.104   5.544  0.0835  0.5679 -1.2438
16589TIP3    H271259   1.006   1.246   5.586 -0.4983 -0.0224  0.3972
16590TIP3   OH271260   6.311   4.315  15.639 -0.1306  0.3260 -0.3732
16590TIP3    H171261   6.246   4.384  15.650 -1.0301 -0.7986  2.3126
16590TIP3    H271262   6.389   4.348  15.685  0.0508  0.2786 -0.6434
16591TIP3   OH271263   1.514   6.277  15.173  0.1169  0.6184  0.1468
16591TIP3    H171264   1.562   6.199  15.200 -1.5900 -0.4733  0.1636
16591TIP3    H271265   1.542   6.292  15.082 -1.6027 -1.7690 -0.8838
16592TIP3   OH271266   5.227   1.064   5.771  0.0969 -1.0776  0.3236
16592TIP3    H171267   5.264   1.069   5.683 -0.2495 -0.4313  0.2054
16592TIP3    H271268   5.135   1.086   5.759  0.3371  0.4755  1.0322
16593TIP3   OH271269   6.172   3.333  11.274 -0.0016 -0.1374  0.2203
16593TIP3    H171270   6.226   3.286  11.210  1.2495  1.1970  0.2581
16593TIP3    H271271   6.139   3.264  11.332  1.0737 -1.0821 -0.2473
16594TIP3   OH271272   3.025   4.814  13.225 -0.3217 -0.3273 -0.1987
16594TIP3    H171273   2.995   4.903  13.204 -0.8691 -0.3636  0.3943
16594TIP3    H271274   3.117   4.814  13.201  0.1667  0.9751  1.4612
16595TIP3   OH271275   4.857   3.747   2.482  0.1747  0.5615  0.8030
16595TIP3    H171276   4.865   3.792   2.398  2.2540 -0.3902  0.4221
16595TIP3    H271277   4.821   3.812   2.541  2.5590  2.6282  0.1551
16596TIP3   OH271278   0.230   0.799   4.462 -0.1699  0.5693 -0.9660
16596TIP3    H171279   0.250   0.724   4.406 -0.1012  0.0799 -0.3006
16596TIP3    H271280   0.143   0.779   4.498  0.3570  0.2191  0.1521
16597TIP3   OH271281   2.323   5.802   4.177  0.3866  0.1675  0.2940
16597TIP3    H171282   2.266   5.828   4.249 -0.9430 -0.0210 -0.6495
16597TIP3    H271283   2.315   5.707   4.172  0.6716  0.1534  0.0553
16598TIP3   OH271284   0.075   1.920  14.584 -0.4135  0.3542 -0.2273
16598TIP3    H171285  -0.009   1.875  14.576 -0.3124  0.1414 -0.1028
16598TIP3    H271286   0.123   1.895  14.504  0.0668 -0.6611  0.3526
16599TIP3   OH271287   2.028   3.919  16.316  0.5296 -0.6217  0.8510
16599TIP3    H171288   1.945   3.871  16.313  0.9413 -1.3344  0.6982
16599TIP3    H271289   2.095   3.851  16.319  1.1705 -0.0670 -0.3453
16600TIP3   OH271290   6.720   6.437   1.630 -0.4989  0.3031 -0.1063
16600TIP3    H171291   6.634   6.449   1.589 -0.8691  0.2114  0.6396
16600TIP3    H271292   6.758   6.362   1.584 -0.6461  0.5979 -0.7182
16601TIP3   OH271293   5.586   3.509   0.718 -0.1308 -0.2714 -0.4967
16601TIP3    H171294   5.681   3.511   0.707  0.0795 -1.1198  0.9027
16601TIP3    H271295   5.564   3.598   0.746  0.8264 -0.9309  2.8465
16602TIP3   OH271296   1.070   2.707   4.385  0.0592  0.2067  0.1508
16602TIP3    H171297   1.062   2.612   4.394  0.1706 -0.2583 -3.3018
16602TIP3    H271298   0.990   2.742   4.425 -0.3501 -1.3837  0.8070
16603TIP3   OH271299   3.512   0.047  14.569 -1.0659  0.3024  0.3379
16603TIP3    H171300   3.585   0.029  14.628 -0.4864  1.6846  0.0589
16603TIP3    H271301   3.488   0.138  14.586 -0.7671  0.8043 -1.6653
16604TIP3   OH271302   0.722   1.395   4.612  0.3025 -0.3457 -0.5073
16604TIP3    H171303   0.786   1.328   4.587  1.3873  0.4901 -0.0670
16604TIP3    H271304   0.663   1.400   4.537  1.8316  0.1231 -1.7352
16605TIP3   OH271305   3.948   1.519   5.746  0.0987  0.0836  0.4519
16605TIP3    H171306   3.912   1.522   5.658  1.1672 -0.7765 -0.0367
16605TIP3    H271307   4.031   1.473   5.737  0.1226 -0.2326  1.9551
16606TIP3   OH271308   5.230   3.431   0.193 -0.0119  0.1776  0.2858
16606TIP3    H171309   5.218   3.502   0.130 -1.2501  0.2159  0.5351
16606TIP3    H271310   5.324   3.428   0.209  0.0755  1.6273  0.1247
16607TIP3   OH271311   1.274   1.821   2.235 -0.3103  0.1385 -0.0003
16607TIP3    H171312   1.288   1.822   2.330 -0.7275 -0.6582  0.0830
16607TIP3    H271313   1.278   1.728   2.212 -0.4115  0.3140 -0.7336
16608TIP3   OH271314   6.170   0.339   4.581 -0.2356 -0.4220 -0.2336
16608TIP3    H171315   6.083   0.329   4.618  0.1744 -0.2518  0.8209
16608TIP3    H271316   6.226   0.285   4.636  0.6158  0.9229  0.2864
16609TIP3   OH271317   0.309   0.486  13.886  0.2091  0.3256 -0.4276
16609TIP3    H171318   0.397   0.501  13.921 -0.4203  3.1490  0.1997
16609TIP3    H271319   0.315   0.515  13.795 -0.3377  1.8356 -0.0139
16610TIP3   OH271320   2.803   1.145   6.431  0.0667  0.4135 -0.0212
16610TIP3    H171321   2.874   1.096   6.473 -0.0505  1.6246  1.7099
16610TIP3    H271322   2.732   1.083   6.422  1.1795 -0.7292 -1.4558
16611TIP3   OH271323   2.728   0.955  14.328  0.3946  0.9197 -0.3730
16611TIP3    H171324   2.697   0.894  14.261 -0.7590  2.4712 -1.3300
16611TIP3    H271325   2.768   0.899  14.395  0.1019 -0.8041 -1.5656
16612TIP3   OH271326   3.484   6.344  15.001 -0.4158 -0.1972  0.0035
16612TIP3    H171327   3.560   6.372  15.052  0.5713 -1.9782 -0.4038
16612TIP3    H271328   3.410   6.386  15.043  0.4857 -0.6761  2.1955
16613TIP3   OH271329   2.278   4.592   4.615 -0.2207 -0.3419  0.0022
16613TIP3    H171330   2.371   4.579   4.598  0.1503  2.9192 -1.2739
16613TIP3    H271331   2.275   4.650   4.691 -1.3507 -1.7867  1.1320
16614TIP3   OH271332   5.062   0.729  13.608  0.0050 -0.2560 -0.1521
16614TIP3    H171333   4.972   0.760  13.601  0.6485  2.0204  0.7234
16614TIP3    H271334   5.071   0.699  13.698  0.5654  1.1430  0.2746
16615TIP3   OH271335   6.441   0.809  13.798 -0.3218  0.4266 -0.5155
16615TIP3    H171336   6.393   0.849  13.870 -0.5066 -0.8177  0.0850
16615TIP3    H271337   6.529   0.795  13.832 -0.7371 -1.3092 -0.0495
16616TIP3   OH271338   2.118   5.878  16.912 -0.1472  0.1694 -0.3069
16616TIP3    H171339   2.199   5.906  16.868 -0.3202 -1.1163 -1.5206
16616TIP3    H271340   2.062   5.846  16.841 -1.1782 -0.2556  0.6650
16617TIP3   OH271341   3.089   4.772   5.197  0.6860  0.6034  0.4361
16617TIP3    H171342   3.027   4.731   5.258 -0.1172 -0.7253 -1.1621
16617TIP3    H271343   3.065   4.864   5.196 -0.8462  0.2351  0.3923
16618TIP3   OH271344   0.408   1.604   2.103  0.3634  0.0659 -0.8829
16618TIP3    H171345   0.475   1.553   2.149 -1.6025 -0.6302  1.3990
16618TIP3    H271346   0.336   1.542   2.089 -1.5287  1.7825  0.6862
16619TIP3   OH271347   3.215   3.434  14.073  0.3170  0.2437  0.0226
16619TIP3    H171348   3.274   3.467  14.005  0.2139  1.0726  0.3257
16619TIP3    H271349   3.274   3.398  14.140  0.4404  0.0627 -0.1816
16620TIP3   OH271350   1.419   4.675  16.470  0.0103  0.2838 -0.2546
16620TIP3    H171351   1.502   4.715  16.495 -0.5871  1.2405  0.2409
16620TIP3    H271352   1.414   4.687  16.375  0.2375  0.5993 -0.2263
16621TIP3   OH271353   6.148   4.804  15.199 -0.4375 -0.3965 -0.1855
16621TIP3    H171354   6.056   4.785  15.218 -0.8250 -0.4616 -1.9560
16621TIP3    H271355   6.145   4.878  15.138  0.6525 -0.7366 -0.6661
16622TIP3   OH271356   3.661   3.506  14.860 -0.5351 -0.3423 -0.2505
16622TIP3    H171357   3.605   3.478  14.787  1.1593 -2.1849 -0.9035
16622TIP3    H271358   3.642   3.444  14.930 -0.8386  0.3381  0.2876
16623TIP3   OH271359   6.292   3.354  13.986 -0.3244  0.0985  0.4499
16623TIP3    H171360   6.214   3.300  14.000  0.1635 -1.2460 -1.4950
16623TIP3    H271361   6.263   3.422  13.926  0.1863 -1.1024 -1.2461
16624TIP3   OH271362   0.864   2.320  13.930  0.1621  0.3493  0.0599
16624TIP3    H171363   0.899   2.231  13.939  2.6071  1.0411 -1.6426
16624TIP3    H271364   0.826   2.322  13.842  0.1779  0.9839  0.0613
16625TIP3   OH271365   5.565   3.812  13.765  0.3298 -0.5223 -0.6701
16625TIP3    H171366   5.600   3.846  13.847 -1.1783 -1.1112  0.2588
16625TIP3    H271367   5.541   3.891  13.715  0.5240 -0.1672 -0.2136
16626TIP3   OH271368   4.283   4.794   2.739  0.3270  0.2661  0.2715
16626TIP3    H171369   4.308   4.705   2.716  1.8331  0.8371 -0.4608
16626TIP3    H271370   4.351   4.849   2.700 -0.3653  1.7165  1.0077
16627TIP3   OH271371   0.739   4.350   1.534  0.1180  0.5617  0.5953
16627TIP3    H171372   0.774   4.274   1.489 -0.2310  1.1806 -0.7624
16627TIP3    H271373   0.780   4.347   1.621 -1.3873 -2.2455  1.3440
16628TIP3   OH271374   3.677   0.870   1.904  0.2902  0.3551  0.4344
16628TIP3    H171375   3.670   0.915   1.820 -0.1672 -0.2777  0.1280
16628TIP3    H271376   3.707   0.782   1.882  1.7608  0.6734  1.0859
16629TIP3   OH271377   5.255   3.589  14.751  0.1697  0.3919  0.3255
16629TIP3    H171378   5.281   3.640  14.674  1.6525  0.4054  0.8003
16629TIP3    H271379   5.249   3.653  14.822  0.5549  0.1321  0.5962
16630TIP3   OH271380   0.116   6.611  15.218 -0.0209  0.6449 -0.5339
16630TIP3    H171381   0.126   6.684  15.280 -0.5843  0.9256 -0.7653
16630TIP3    H271382   0.200   6.607  15.172  1.1214 -0.7509  1.4937
16631TIP3   OH271383   6.486   5.536  15.122  0.4427  0.1893 -0.7357
16631TIP3    H171384   6.460   5.501  15.207  2.3167 -1.3610 -0.7176
16631TIP3    H271385   6.527   5.620  15.142 -1.2434  0.9764 -0.4181
16632TIP3   OH271386   6.637   5.378   5.362  0.6598 -0.6534 -0.2149
16632TIP3    H171387   6.712   5.436   5.346  0.2567  0.0945  0.4909
16632TIP3    H271388   6.582   5.388   5.284  0.9317 -0.6218 -0.4027
16633TIP3   OH271389   1.390   0.427  14.666  0.5206  0.2290  0.6618
16633TIP3    H171390   1.471   0.411  14.714  0.4374 -0.9244  0.4438
16633TIP3    H271391   1.396   0.518  14.638  0.9375  0.6826  2.1419
16634TIP3   OH271392   5.291   6.628  16.033  0.1822  0.1339 -0.0404
16634TIP3    H171393   5.294   6.655  16.125  0.7001 -0.3829  0.0998
16634TIP3    H271394   5.216   6.676  15.997 -2.3413 -2.2885  1.5261
16635TIP3   OH271395   3.224   3.888   2.202 -0.3799  0.1006  0.0946
16635TIP3    H171396   3.168   3.879   2.125 -1.7744  0.1132  1.0762
16635TIP3    H271397   3.264   3.975   2.192 -0.1883 -0.0854 -0.8324
16636TIP3   OH271398   0.422   3.789   2.031  0.2419 -0.0585 -0.1217
16636TIP3    H171399   0.343   3.804   2.083 -0.1436 -1.5802 -0.2258
16636TIP3    H271400   0.479   3.863   2.051 -1.0014  0.7859  0.3620
16637TIP3   OH271401   4.303   4.870   4.088  0.0558  0.5453 -0.1996
16637TIP3    H171402   4.259   4.810   4.148 -2.3269  1.7246 -0.6457
16637TIP3    H271403   4.295   4.829   4.002 -1.4179  1.3263 -0.4774
16638TIP3   OH271404   2.713   5.951  13.102 -0.2873  0.2073 -0.4298
16638TIP3    H171405   2.737   6.007  13.176  0.7927 -0.3500 -0.3390
16638TIP3    H271406   2.781   5.885  13.099 -1.0922 -0.6161 -1.0630
16639TIP3   OH271407   1.684   0.639   4.488  0.1037 -0.3849  0.2471
16639TIP3    H171408   1.653   0.554   4.519  0.9173 -1.3312 -1.3704
16639TIP3    H271409   1.777   0.641   4.513  0.0769  0.0658  0.3295
16640TIP3   OH271410   5.674   6.619  12.209  0.2253 -0.0798  0.4315
16640TIP3    H171411   5.708   6.549  12.264  2.1866  0.2294 -0.3063
16640TIP3    H271412   5.680   6.697  12.264  3.2044  0.4321 -0.4130
16641TIP3   OH271413   3.024   2.898   1.650 -0.0731 -0.2797 -0.2976
16641TIP3    H171414   3.094   2.964   1.651 -1.4383  1.2541 -0.6418
16641TIP3    H271415   2.948   2.945   1.615 -1.5263 -1.6349  0.9037
16642TIP3   OH271416   0.620   5.466   1.826 -0.0593 -0.0578 -0.4191
16642TIP3    H171417   0.674   5.441   1.751 -0.3654  0.5048 -0.8255
16642TIP3    H271418   0.531   5.442   1.801 -0.1720  0.2068 -0.2688
16643TIP3   OH271419   0.932   6.018  14.303  0.0190  0.2741  0.8309
16643TIP3    H171420   0.886   5.934  14.299  1.3399 -0.5149  1.6218
16643TIP3    H271421   0.968   6.022  14.391 -0.9109  2.1920  1.1825
16644TIP3   OH271422   1.056   6.623  12.822  0.1343 -0.1622 -0.1962
16644TIP3    H171423   1.010   6.657  12.899 -0.2498 -1.5734  0.2139
16644TIP3    H271424   1.031   6.531  12.817  0.3950 -0.1758 -1.8472
16645TIP3   OH271425   3.230   5.491   3.346  0.7234 -0.5718  0.4934
16645TIP3    H171426   3.216   5.434   3.270 -0.0610 -0.7009  0.7278
16645TIP3    H271427   3.271   5.569   3.309  2.0086 -1.3508  0.1959
16646TIP3   OH271428   0.202   0.050   5.425 -0.1868 -0.2670 -0.2251
16646TIP3    H171429   0.256   0.095   5.490 -0.8960  1.4406 -0.7837
16646TIP3    H271430   0.138   0.001   5.477  0.8257 -0.9570  0.3963
16647TIP3   OH271431   2.493   4.764   5.368 -0.1795 -0.4587  0.8043
16647TIP3    H171432   2.579   4.803   5.349 -0.7732  0.3055 -0.3833
16647TIP3    H271433   2.510   4.670   5.375  1.3492 -0.1085  4.0139
16648TIP3   OH271434   5.209   5.603  11.436  0.0796 -0.1555  0.5610
16648TIP3    H171435   5.146   5.640  11.374 -0.2569 -1.9357 -0.2141
16648TIP3    H271436   5.246   5.679  11.480 -2.6536  0.9801  1.0999
16649TIP3   OH271437   2.879   4.414   0.454  0.5891 -0.1788  0.4406
16649TIP3    H171438   2.835   4.376   0.530 -1.5154  1.1035 -0.0607
16649TIP3    H271439   2.940   4.478   0.491  2.3219 -2.1270  1.1535
16650TIP3   OH271440   1.402   5.978  16.178  0.2437 -0.2643 -0.4616
16650TIP3    H171441   1.401   6.004  16.086 -1.6989 -0.8882 -0.6483
16650TIP3    H271442   1.319   6.009  16.213  1.2327  0.5204  1.2800
16651TIP3   OH271443   0.788   1.497  14.612  0.0126  0.3848 -0.3498
16651TIP3    H171444   0.827   1.438  14.548 -1.6432 -1.0884 -0.0918
16651TIP3    H271445   0.820   1.465  14.697 -1.2609 -0.5223 -0.1752
16652TIP3   OH271446   0.586   2.516   4.642 -0.5831 -0.4585 -0.3517
16652TIP3    H171447   0.499   2.501   4.679 -1.5123  2.6655 -1.0570
16652TIP3    H271448   0.643   2.521   4.719 -1.3316 -0.6124  0.2342
16653TIP3   OH271449   0.561   1.139   4.649  0.0476  0.2816  0.1448
16653TIP3    H171450   0.474   1.117   4.616 -0.4360  0.8076  1.0282
16653TIP3    H271451   0.578   1.227   4.616  0.2207  0.1982  0.0121
16654TIP3   OH271452   3.894   1.401  11.802 -0.0365  0.0012  0.1411
16654TIP3    H171453   3.808   1.415  11.764 -0.9851 -0.4591  2.0036
16654TIP3    H271454   3.920   1.314  11.773 -1.2336 -0.7984  1.3641
16655TIP3   OH271455   6.056   5.069  15.104 -0.1227  0.0584 -0.2269
16655TIP3    H171456   6.071   5.132  15.175  0.6441  1.0061 -1.1824
16655TIP3    H271457   5.995   5.113  15.045  1.5367  0.5699 -1.6478
16656TIP3   OH271458   3.044   1.843  14.427  0.3464  0.3519 -0.7523
16656TIP3    H171459   3.027   1.750  14.444  0.0584  0.7035  1.1071
16656TIP3    H271460   2.962   1.887  14.450  1.2782  1.3005  0.9419
16657TIP3   OH271461   3.151   3.234   0.824 -0.1820  0.3453  0.0575
16657TIP3    H171462   3.085   3.271   0.883  0.3633 -0.4146  1.1775
16657TIP3    H271463   3.148   3.290   0.747  0.0740  2.2354  1.3724
16658TIP3   OH271464   6.831   3.210  14.660  0.7108  0.3546 -0.0706
16658TIP3    H171465   6.922   3.236  14.648  0.4004  1.6437  0.2379
16658TIP3    H271466   6.821   3.198  14.755  1.2908 -2.7022 -0.3152
16659TIP3   OH271467   2.276   6.320  13.212  0.1051  0.2693  0.1126
16659TIP3    H171468   2.289   6.404  13.169 -1.2633 -1.3374 -3.9303
16659TIP3    H271469   2.355   6.270  13.193 -0.1093 -0.1787  0.3763
16660TIP3   OH271470   0.079   3.609   3.871  0.6962 -0.0233 -0.1299
16660TIP3    H171471   0.005   3.584   3.926 -0.4769 -0.9338 -2.0072
16660TIP3    H271472   0.138   3.656   3.929 -1.2367  0.5024  1.4992
16661TIP3   OH271473   5.671   5.415  16.238 -0.0249 -0.2601  0.3079
16661TIP3    H171474   5.621   5.380  16.165 -0.5691 -0.5153  0.7962
16661TIP3    H271475   5.749   5.359  16.243 -0.3185 -0.6718  0.3462
16662TIP3   OH271476   6.052   6.821  14.664  0.1638 -0.1604 -0.4128
16662TIP3    H171477   6.127   6.773  14.628 -0.5809 -0.9322 -0.9718
16662TIP3    H271478   6.002   6.754  14.712 -0.5407  0.1917 -0.6439
16663TIP3   OH271479   4.882   4.300   1.592 -0.1747 -0.3383  0.5224
16663TIP3    H171480   4.849   4.267   1.508  1.6909 -0.6117 -0.1431
16663TIP3    H271481   4.865   4.394   1.589 -0.5005 -0.4093  0.0223
16664TIP3   OH271482   1.428   1.638   1.801 -0.3531  0.6722  0.2570
16664TIP3    H171483   1.439   1.652   1.895  2.1847  1.2059 -0.0411
16664TIP3    H271484   1.404   1.724   1.766 -0.2789  0.7038  0.2846
16665TIP3   OH271485   6.740   1.538  12.381 -0.2786 -0.4016 -0.0580
16665TIP3    H171486   6.771   1.531  12.290 -2.2070 -0.5638 -0.7520
16665TIP3    H271487   6.746   1.449  12.415 -0.5517 -0.5510 -0.3916
16666TIP3   OH271488   5.310   0.662   5.257 -0.1290 -0.0292 -0.2687
16666TIP3    H171489   5.294   0.577   5.298  1.2383  0.2800  0.9576
16666TIP3    H271490   5.405   0.672   5.258 -0.2891  1.7373  0.0555
16667TIP3   OH271491   4.069   5.865  14.147  0.1872  0.1313  0.7478
16667TIP3    H171492   4.093   5.931  14.082 -3.5082 -0.0018 -0.9452
16667TIP3    H271493   4.095   5.782  14.108 -2.2194  0.0299 -0.8289
16668TIP3   OH271494   4.185   4.026   4.187 -0.1112  0.1964 -0.4195
16668TIP3    H171495   4.155   4.072   4.109  1.1078  0.6466 -0.6391
16668TIP3    H271496   4.145   4.074   4.260  0.1096  0.8239 -0.7024
16669TIP3   OH271497   2.463   4.061  12.190  0.0875  0.4207 -0.4520
16669TIP3    H171498   2.425   4.090  12.273 -0.8712  0.7825 -1.0065
16669TIP3    H271499   2.400   4.088  12.124 -0.2115 -1.7222 -1.1337
16670TIP3   OH271500   5.837   5.605   2.020 -0.2910 -0.3479 -0.6298
16670TIP3    H171501   5.776   5.540   2.053 -2.9878  1.6764 -1.2637
16670TIP3    H271502   5.809   5.622   1.930  1.0062  0.9072 -0.8434
16671TIP3   OH271503   3.201   6.025   1.226 -0.6159 -0.0807 -0.1673
16671TIP3    H171504   3.202   6.114   1.263  0.3070 -0.1296 -0.0465
16671TIP3    H271505   3.233   5.969   1.297  1.3997 -0.1487 -1.0417
16672TIP3   OH271506   0.029   5.482   4.158  0.1187  0.0494  0.1003
16672TIP3    H171507  -0.066   5.472   4.161  0.1461 -0.0527  0.7955
16672TIP3    H271508   0.057   5.424   4.087 -0.2730 -0.4542  0.3506
16673TIP3   OH271509   4.723   4.165  12.928  0.2932  0.0825  0.6628
16673TIP3    H171510   4.712   4.162  13.024 -0.9905  0.4175  0.5478
16673TIP3    H271511   4.789   4.098  12.910  1.2113  0.6167  1.8611
16674TIP3   OH271512   2.360   1.754  13.601  0.5496  0.5084 -0.7705
16674TIP3    H171513   2.375   1.665  13.570 -1.4129  0.0523 -0.5685
16674TIP3    H271514   2.280   1.782  13.556 -1.6849  0.2971  2.6998
16675TIP3   OH271515   1.826   4.530  12.168 -0.2864  0.1857 -0.3728
16675TIP3    H171516   1.809   4.462  12.102  3.0879 -0.4910 -0.7137
16675TIP3    H271517   1.918   4.520  12.190  0.3752  4.5419 -0.2518
16676TIP3   OH271518   0.318   0.850   0.928 -0.3491 -0.5889 -0.5686
16676TIP3    H171519   0.321   0.807   0.843 -1.5297  0.6903 -1.2976
16676TIP3    H271520   0.267   0.930   0.913  1.9059  1.2038  0.6552
16677TIP3   OH271521   4.164   2.363   5.084  0.3835  0.4399 -0.2640
16677TIP3    H171522   4.070   2.347   5.096  0.1740 -0.1289 -2.3512
16677TIP3    H271523   4.175   2.455   5.107 -0.2128 -0.0405  2.2885
16678TIP3   OH271524   3.452   3.035  16.492 -0.2106 -0.0426  0.3428
16678TIP3    H171525   3.515   3.082  16.437 -1.2195 -0.7044 -1.4481
16678TIP3    H271526   3.445   2.948  16.452 -2.5009  0.1131  0.2590
16679TIP3   OH271527   1.956   3.849   5.322  1.0708 -0.5789  0.0165
16679TIP3    H171528   1.949   3.936   5.283  1.9876  0.0566  1.1795
16679TIP3    H271529   1.911   3.791   5.261  2.5636  0.3090 -2.0382
16680TIP3   OH271530   6.431   4.518   0.086  0.3203 -0.1977 -0.4846
16680TIP3    H171531   6.524   4.508   0.105  0.1359 -1.6975 -0.2395
16680TIP3    H271532   6.386   4.478   0.161 -0.6072  2.6500  0.6192
16681TIP3   OH271533   4.807   0.158  15.571  0.4673 -1.2174 -0.3305
16681TIP3    H171534   4.889   0.195  15.605  0.4951 -0.5617 -1.1013
16681TIP3    H271535   4.835   0.101  15.499  0.2072 -0.6417 -0.8838
16682TIP3   OH271536   6.623   3.420   4.768  0.5483  0.1176  0.3680
16682TIP3    H171537   6.694   3.389   4.712  1.3994  2.2163  0.2033
16682TIP3    H271538   6.614   3.351   4.835 -0.1826 -2.2171 -1.9491
16683TIP3   OH271539   5.913   1.674   2.686  0.4743  0.3007  0.4100
16683TIP3    H171540   5.893   1.692   2.594 -0.3547  0.1031  0.5374
16683TIP3    H271541   5.833   1.632   2.719  0.7523  0.4097  1.2280
16684TIP3   OH271542   5.481   2.085   1.974 -0.7445  0.4201  0.0438
16684TIP3    H171543   5.458   2.025   2.045 -1.6192  2.0875  1.2225
16684TIP3    H271544   5.397   2.108   1.934 -0.2319 -0.8738 -1.9083
16685TIP3   OH271545   6.705   1.498  15.360  0.3863  0.1603 -0.5647
16685TIP3    H171546   6.665   1.495  15.273  0.2934 -0.3216 -0.5074
16685TIP3    H271547   6.704   1.590  15.384 -0.7908  0.1451 -0.5156
16686TIP3   OH271548   5.202   2.156   1.975  0.2501  0.7330 -0.0648
16686TIP3    H171549   5.254   2.128   2.050 -0.0695  0.2827 -0.0048
16686TIP3    H271550   5.134   2.089   1.967  1.4645 -0.3827 -1.9846
16687TIP3   OH271551   4.560   1.224  13.511  0.1111 -0.3565 -0.0144
16687TIP3    H171552   4.555   1.206  13.417 -2.1730  0.1412 -0.0573
16687TIP3    H271553   4.581   1.318  13.516  0.0282 -0.3371 -0.0306
16688TIP3   OH271554   2.798   4.134   4.346 -0.0707  0.1402  0.0760
16688TIP3    H171555   2.728   4.173   4.294  0.7746  0.9491 -0.4861
16688TIP3    H271556   2.838   4.070   4.287 -0.3500 -0.3529  0.4122
16689TIP3   OH271557   3.223   0.613  10.747 -0.1724  0.4136 -0.1846
16689TIP3    H171558   3.302   0.660  10.721  1.4272 -1.3400  1.1966
16689TIP3    H271559   3.158   0.681  10.759  1.2081  1.9734 -1.0124
16690TIP3   OH271560   1.583   0.491   2.742 -0.3423  0.0869 -0.1433
16690TIP3    H171561   1.651   0.426   2.759  0.6378  1.4050  1.2460
16690TIP3    H271562   1.603   0.524   2.654  0.4129 -0.0028 -0.0099
16691TIP3   OH271563   4.621   2.630   6.129  0.5426  0.1128 -0.3009
16691TIP3    H171564   4.612   2.633   6.033 -1.9340  1.0843 -0.1087
16691TIP3    H271565   4.562   2.699   6.160 -0.3596 -1.6063  2.0137
16692TIP3   OH271566   5.665   6.829  11.639 -0.2279 -0.4583  0.1825
16692TIP3    H171567   5.724   6.877  11.580 -0.9658 -0.2909 -0.4333
16692TIP3    H271568   5.634   6.755  11.587 -1.8355  0.3587 -0.0872
16693TIP3   OH271569   0.375   4.654   4.775  0.2327 -0.0675 -0.0036
16693TIP3    H171570   0.400   4.706   4.699 -0.8839 -1.2130 -1.2199
16693TIP3    H271571   0.458   4.632   4.818  0.7851  1.8430 -0.0007
16694TIP3   OH271572   0.738   5.819  16.297  0.0409  0.2099  0.3324
16694TIP3    H171573   0.648   5.847  16.309  0.3205  0.7590  1.1981
16694TIP3    H271574   0.759   5.769  16.375  0.4247 -0.0839  0.0445
16695TIP3   OH271575   1.561   5.515   1.548 -0.6386 -0.0424 -0.4938
16695TIP3    H171576   1.610   5.545   1.471 -0.7702 -0.9109 -0.9202
16695TIP3    H271577   1.483   5.473   1.512 -0.3476 -1.1055  0.0730
16696TIP3   OH271578   2.147   2.341   4.334  0.2245 -0.1024 -0.6082
16696TIP3    H171579   2.053   2.327   4.324  0.1950  0.6219 -1.5181
16696TIP3    H271580   2.177   2.366   4.247  1.0560  0.8003 -0.0956
16697TIP3   OH271581   2.788   4.652   2.984  0.0052 -0.1111 -0.1493
16697TIP3    H171582   2.737   4.591   2.931  0.0894  0.1543 -0.5484
16697TIP3    H271583   2.789   4.733   2.932 -0.0414  0.2043  0.3344
16698TIP3   OH271584   0.772   5.778   4.607  0.2697 -1.2173 -0.3050
16698TIP3    H171585   0.821   5.760   4.527 -1.3413 -1.9970 -1.1395
16698TIP3    H271586   0.736   5.694   4.633  0.1498 -0.8299  0.8429
16699TIP3   OH271587   5.841   4.241  14.441  0.9816  0.4035  0.0014
16699TIP3    H171588   5.926   4.275  14.410  2.1791 -1.3485  1.1800
16699TIP3    H271589   5.776   4.300  14.402  2.5410  0.1831 -3.2385
16700TIP3   OH271590   4.548   3.159  12.867  0.4990 -0.2542 -0.3656
16700TIP3    H171591   4.456   3.157  12.841 -0.2576 -1.9484  2.0515
16700TIP3    H271592   4.589   3.090  12.814 -0.2429 -1.2904  0.3623
16701TIP3   OH271593   0.529   4.854   2.352 -0.7804  0.2124  0.1396
16701TIP3    H171594   0.472   4.803   2.409 -1.1628  1.4091  0.8614
16701TIP3    H271595   0.491   4.844   2.265  0.0310 -1.9433 -0.0263
16702TIP3   OH271596   1.458   2.073  13.922  0.0643  0.0179  0.2516
16702TIP3    H171597   1.542   2.064  13.875 -0.6426 -0.7761 -0.9056
16702TIP3    H271598   1.469   2.153  13.974  1.1308  0.5687 -0.7631
16703TIP3   OH271599   2.967   3.825   3.855  0.2658 -0.0676  0.4795
16703TIP3    H171600   3.009   3.814   3.770  0.6113 -1.2731  0.7891
16703TIP3    H271601   2.879   3.858   3.834  0.0563 -1.1375 -0.4039
16704TIP3   OH271602   3.513   4.426  15.040  0.1799 -0.3083 -0.3150
16704TIP3    H171603   3.502   4.511  15.082  2.0598  0.4233 -1.2179
16704TIP3    H271604   3.490   4.362  15.108 -0.2491  0.8770  0.6935
16705TIP3   OH271605   0.220   0.008  16.096 -0.0788  0.0242  0.1302
16705TIP3    H171606   0.183   0.093  16.073  0.3726  0.5857  1.3973
16705TIP3    H271607   0.156  -0.031  16.155 -1.1720 -1.3570 -1.8359
16706TIP3   OH271608   6.234   0.478   3.786 -0.4325  0.4148  0.5801
16706TIP3    H171609   6.297   0.407   3.794 -0.2423  0.5301  0.0903
16706TIP3    H271610   6.231   0.498   3.693 -0.0744  1.4209  0.7766
16707TIP3   OH271611   2.392   5.571  13.167 -0.0845  0.4582  0.2299
16707TIP3    H171612   2.423   5.660  13.151 -0.2483  0.5084  0.1984
16707TIP3    H271613   2.472   5.522  13.187  0.3897  0.0358 -2.2882
16708TIP3   OH271614   6.785   4.402   2.148 -0.3361 -0.7939  0.2757
16708TIP3    H171615   6.717   4.367   2.091  0.7542 -2.0468 -0.2918
16708TIP3    H271616   6.854   4.336   2.148 -0.4576 -1.0879  3.3969
16709TIP3   OH271617   0.433   0.274  14.643  0.7555 -0.3465  0.0490
16709TIP3    H171618   0.452   0.269  14.737 -0.4629  0.4668  0.3655
16709TIP3    H271619   0.517   0.291  14.602  1.1420  0.3907  1.1022
16710TIP3   OH271620   0.463   2.234  16.003 -0.1970 -1.0646  0.0595
16710TIP3    H171621   0.418   2.262  15.924 -0.4826 -1.3316  0.1291
16710TIP3    H271622   0.417   2.279  16.074 -0.4969 -1.5144  0.1502
16711TIP3   OH271623   4.738   3.794   3.550 -0.0230 -0.2779 -0.0534
16711TIP3    H171624   4.659   3.810   3.602 -0.3432  0.8435 -0.8214
16711TIP3    H271625   4.781   3.880   3.545  0.8775 -0.7313 -0.2215
16712TIP3   OH271626   1.635   5.213   4.302  0.5319 -0.1219  0.6210
16712TIP3    H171627   1.616   5.304   4.283  0.3981  0.1048  1.7650
16712TIP3    H271628   1.608   5.201   4.393  3.7802 -0.3485  1.6929
16713TIP3   OH271629   3.247   3.308  11.801  0.1420 -0.0469  0.9339
16713TIP3    H171630   3.325   3.267  11.762  1.1954  0.8355  2.0274
16713TIP3    H271631   3.262   3.402  11.793 -1.3281  0.1538  0.2256
16714TIP3   OH271632   4.548   1.339  14.419 -0.1303 -0.1915  0.1851
16714TIP3    H171633   4.503   1.403  14.364 -1.0333 -1.6590 -0.8581
16714TIP3    H271634   4.636   1.334  14.381 -0.0300  0.4603  0.3130
16715TIP3   OH271635   4.899   1.997   1.235 -0.0485 -0.1029 -0.0791
16715TIP3    H171636   4.879   2.059   1.164 -3.7787  0.8509  1.5350
16715TIP3    H271637   4.936   2.052   1.304 -1.1423 -0.0452  0.4845
16716TIP3   OH271638   4.482   4.083  11.014  0.0468  0.6314 -0.0719
16716TIP3    H171639   4.470   3.993  11.046  1.5562  0.1591 -0.7185
16716TIP3    H271640   4.399   4.105  10.973 -0.2802 -0.5666 -0.1012
16717TIP3   OH271641   1.216   3.508   3.408 -0.2906 -0.2982 -0.0763
16717TIP3    H171642   1.189   3.444   3.343  0.5221 -1.2579  0.4844
16717TIP3    H271643   1.297   3.472   3.444 -1.3129 -0.4262  2.2916
16718TIP3   OH271644   4.398   5.297  10.715 -0.0612 -0.3814 -0.2128
16718TIP3    H171645   4.390   5.358  10.642 -1.2210 -0.1176  0.1101
16718TIP3    H271646   4.409   5.353  10.792  2.9972 -0.6813 -0.3268
16719TIP3   OH271647   5.344   4.484  14.602 -0.0465 -0.0321 -0.3480
16719TIP3    H171648   5.327   4.513  14.691 -0.3609 -0.3953 -0.2903
16719TIP3    H271649   5.403   4.409  14.612 -1.3670 -1.1008 -0.3489
16720TIP3   OH271650   1.000   4.535   2.343 -0.0531  0.5792 -0.2573
16720TIP3    H171651   0.922   4.575   2.382  0.5699  0.0091  1.7293
16720TIP3    H271652   0.970   4.498   2.261 -1.5463  1.5905 -0.2071
16721TIP3   OH271653   3.290   1.883  11.055 -0.3417  0.3438  0.3626
16721TIP3    H171654   3.238   1.906  11.132 -0.9477 -1.5989  0.5843
16721TIP3    H271655   3.293   1.787  11.055  0.7147  0.3238 -1.3354
16722TIP3   OH271656   0.501   0.115  13.511 -0.4787 -0.0042  0.1422
16722TIP3    H171657   0.519   0.202  13.546 -1.2142  0.2964 -0.2169
16722TIP3    H271658   0.469   0.064  13.586 -1.8541  0.5765 -0.0232
16723TIP3   OH271659   3.245   5.211  17.020  0.3944  0.0476  0.3267
16723TIP3    H171660   3.321   5.267  17.002  0.4235  0.0182  0.3585
16723TIP3    H271661   3.225   5.226  17.112  0.6111 -0.2519  0.4234
16724TIP3   OH271662   0.178   0.256   1.582  0.3708  0.8544  0.6810
16724TIP3    H171663   0.088   0.227   1.569  0.8959 -0.3470 -0.4732
16724TIP3    H271664   0.182   0.341   1.538  0.2293  0.1155 -0.8194
16725TIP3   OH271665   2.771   6.774  15.552 -0.3013 -1.0111  0.2184
16725TIP3    H171666   2.740   6.859  15.582 -0.7890 -1.5885  1.4331
16725TIP3    H271667   2.866   6.783  15.544 -0.5082  0.1258 -1.3354
16726TIP3   OH271668   6.721   3.054   1.844  0.4036  0.0964  0.0505
16726TIP3    H171669   6.726   3.108   1.922 -0.0837 -1.4084  1.1837
16726TIP3    H271670   6.642   3.001   1.856  1.4850 -1.7162 -0.3907
16727TIP3   OH271671   5.387   6.409  11.453  0.7608  0.5996  0.3497
16727TIP3    H171672   5.408   6.386  11.543 -0.9774 -1.1242  0.3531
16727TIP3    H271673   5.304   6.366  11.435  1.6919 -0.2449 -2.5133
16728TIP3   OH271674   0.679   6.852  13.339 -0.6464  0.3072  0.0232
16728TIP3    H171675   0.672   6.761  13.370  0.1351  0.8088  1.7940
16728TIP3    H271676   0.616   6.900  13.393 -0.5400  0.9359 -0.4095
16729TIP3   OH271677   3.812   4.878  16.497 -0.7683 -0.2243  0.1640
16729TIP3    H171678   3.780   4.918  16.579 -2.6465 -0.7429 -0.2574
16729TIP3    H271679   3.752   4.911  16.430 -0.3560 -1.2041 -0.7056
16730TIP3   OH271680   0.462   4.527  10.503 -0.5661 -0.1232  0.5193
16730TIP3    H171681   0.405   4.552  10.431  1.0366  0.7548 -0.4900
16730TIP3    H271682   0.544   4.500  10.462  1.3090  2.7178  1.9533
16731TIP3   OH271683   5.411   2.714  12.452  0.1508 -0.1360 -0.4913
16731TIP3    H171684   5.489   2.683  12.498  0.4945 -0.3998 -1.2312
16731TIP3    H271685   5.438   2.798  12.413 -0.7587  1.1293  1.4600
16732TIP3   OH271686   2.311   5.458  12.667  0.0091 -0.1006 -0.2015
16732TIP3    H171687   2.282   5.495  12.584  0.3175 -1.0702 -0.7530
16732TIP3    H271688   2.313   5.533  12.727 -2.4747  0.2135 -0.4255
16733TIP3   OH271689   3.670   5.270   1.229 -0.0212 -0.5090  0.3364
16733TIP3    H171690   3.707   5.223   1.154 -0.1339 -1.5459  0.9064
16733TIP3    H271691   3.588   5.306   1.196  0.1437 -0.5763 -0.1594
16734TIP3   OH271692   5.455   5.821  11.976 -0.1477 -0.1767 -0.5201
16734TIP3    H171693   5.524   5.837  12.041  1.0005 -0.9807 -1.4844
16734TIP3    H271694   5.453   5.901  11.923  1.0743 -0.6498 -1.3509
16735TIP3   OH271695   3.737   5.166   3.544 -0.2356  0.1472  0.0738
16735TIP3    H171696   3.754   5.127   3.630  0.5145  0.8100  0.2413
16735TIP3    H271697   3.649   5.138   3.521 -0.4721  0.0336  1.1003
16736TIP3   OH271698   2.087   2.810  11.725 -0.3191  0.2920 -0.2432
16736TIP3    H171699   2.125   2.863  11.796 -0.6964 -2.3637  2.1278
16736TIP3    H271700   1.998   2.845  11.714 -0.4882  0.3676  1.1259
16737TIP3   OH271701   3.809   0.500   1.157 -0.0854  0.3388  0.2894
16737TIP3    H171702   3.848   0.587   1.153  0.1776  0.1727 -2.2314
16737TIP3    H271703   3.731   0.507   1.102 -0.4466 -0.8560  0.6290
16738TIP3   OH271704   3.762   0.388   0.229  0.4566  0.1318  0.3185
16738TIP3    H171705   3.723   0.345   0.153 -0.6463  1.1475  0.2889
16738TIP3    H271706   3.755   0.323   0.299 -1.9584  0.5224  0.4953
16739TIP3   OH271707   3.924   3.493   1.058  0.2740 -0.1205  0.2732
16739TIP3    H171708   3.866   3.538   0.997  0.5786 -2.1845 -1.6674
16739TIP3    H271709   4.006   3.543   1.054 -0.5890  1.4386  1.2546
16740TIP3   OH271710   3.731   6.354  16.996  0.1543  0.8962 -0.3934
16740TIP3    H171711   3.731   6.260  17.011  2.3879  0.7670 -0.8866
16740TIP3    H271712   3.791   6.389  17.062  0.5114  1.7776 -1.1518
16741TIP3   OH271713   4.751   2.394   5.664 -0.4007  0.5074  0.2696
16741TIP3    H171714   4.837   2.432   5.679  0.9876 -1.8558 -1.2460
16741TIP3    H271715   4.766   2.300   5.655 -2.7038  0.2590 -2.7801
16742TIP3   OH271716   5.949   0.921  14.964  0.1850 -0.5691 -0.2277
16742TIP3    H171717   6.040   0.948  14.959 -0.3965  1.4328 -1.2038
16742TIP3    H271718   5.936   0.866  14.888  0.3921 -0.1531 -0.5697
16743TIP3   OH271719   3.402   6.753  13.028 -0.2938 -0.2220 -0.1371
16743TIP3    H171720   3.413   6.662  13.055 -0.9366 -0.7038 -1.4036
16743TIP3    H271721   3.318   6.779  13.066 -1.0224 -0.7839 -1.2803
16744TIP3   OH271722   1.491   2.269   2.872 -0.2803  0.0306  0.3798
16744TIP3    H171723   1.463   2.256   2.781 -0.5090  1.0904  0.2847
16744TIP3    H271724   1.492   2.181   2.910  0.1602 -0.4639 -0.7424
16745TIP3   OH271725   3.856   0.704   5.290 -0.1757 -0.8528 -0.1403
16745TIP3    H171726   3.832   0.696   5.382 -2.0395  2.7078 -0.1453
16745TIP3    H271727   3.899   0.790   5.283  1.6328 -1.8086 -2.3425
16746TIP3   OH271728   0.006   0.417   6.746  0.1375  0.0730  0.2016
16746TIP3    H171729   0.010   0.364   6.667 -0.8309 -1.8698  1.3811
16746TIP3    H271730   0.055   0.368   6.812 -1.0214  0.4621  1.4146
16747TIP3   OH271731   1.444   4.965  11.534  0.0270  0.2170 -0.4686
16747TIP3    H171732   1.429   4.999  11.622  0.0571  0.4188 -0.5398
16747TIP3    H271733   1.539   4.974  11.521 -0.0411  0.6160 -0.6947
16748TIP3   OH271734   6.722   5.609   4.846 -0.0936 -0.0601  0.4605
16748TIP3    H171735   6.631   5.608   4.815  0.5171 -0.7438 -1.4265
16748TIP3    H271736   6.735   5.522   4.883  0.4875 -0.8991 -1.5768
16749TIP3   OH271737   5.605   2.792  10.912  0.1158 -0.1260  0.8230
16749TIP3    H171738   5.553   2.772  10.835 -1.5209  0.8499  1.6299
16749TIP3    H271739   5.611   2.710  10.960  0.4664 -0.5466  0.0781
16750TIP3   OH271740   4.139   3.146   6.071 -0.0628 -0.0432 -0.0026
16750TIP3    H171741   4.058   3.122   6.026 -1.5955  3.2448  0.6979
16750TIP3    H271742   4.136   3.242   6.077  3.6032  0.1722  0.6512
16751TIP3   OH271743   6.405   4.348  13.318  0.3716  0.3900  0.2499
16751TIP3    H171744   6.413   4.262  13.277 -0.8342  0.3873 -0.0111
16751TIP3    H271745   6.410   4.329  13.412 -3.5140 -0.5105  0.4290
16752TIP3   OH271746   0.877   2.090  13.559  0.2395  0.4319 -0.2235
16752TIP3    H171747   0.969   2.109  13.577  0.7921 -0.9536 -1.3660
16752TIP3    H271748   0.846   2.167  13.511  1.2017  0.3557 -1.0170
16753TIP3   OH271749   5.171   3.023  12.026 -0.0699 -0.4739  0.5169
16753TIP3    H171750   5.231   3.078  12.075 -1.1656  0.6269  0.6608
16753TIP3    H271751   5.109   2.990  12.091 -1.1067  0.4232  0.0141
16754TIP3   OH271752   2.296   2.512  12.793 -0.2023  0.8949  0.2080
16754TIP3    H171753   2.278   2.482  12.704 -0.2878  0.1859  0.4511
16754TIP3    H271754   2.297   2.431  12.845  1.2742  1.1380  0.6090
16755TIP3   OH271755   1.939   3.639  14.052  0.1748  0.9614  0.1948
16755TIP3    H171756   1.954   3.654  13.959  1.6603  0.1401  0.2745
16755TIP3    H271757   1.954   3.725  14.092 -0.9087  1.4182 -0.3579
16756TIP3   OH271758   1.793   0.090  13.105  0.1091  0.3145 -0.1653
16756TIP3    H171759   1.747   0.106  13.188 -2.7342  0.2448 -1.6137
16756TIP3    H271760   1.836   0.173  13.085  0.9402  0.2978  1.3814
16757TIP3   OH271761   5.281   1.083  13.536  0.3721  0.6519 -0.1127
16757TIP3    H171762   5.336   1.134  13.478  0.3241  0.0266 -0.7221
16757TIP3    H271763   5.201   1.135  13.546  0.8232  1.2784  0.2910
16758TIP3   OH271764   2.298   4.911  12.615 -0.5220  0.3244 -0.2312
16758TIP3    H171765   2.353   4.875  12.685 -3.3899  0.5344  2.3846
16758TIP3    H271766   2.350   4.982  12.578  0.4998  1.5839  3.1683
16759TIP3   OH271767   4.440   5.538   2.840  0.7628 -0.2823 -0.1242
16759TIP3    H171768   4.517   5.559   2.788  0.1488 -1.5066 -1.6047
16759TIP3    H271769   4.452   5.588   2.921  1.2891  2.4974 -1.7674
16760TIP3   OH271770   4.356   5.264  15.581 -0.7328 -0.0286  0.1684
16760TIP3    H171771   4.427   5.201  15.579 -0.7811 -0.0778  0.0047
16760TIP3    H271772   4.398   5.350  15.570 -0.6262  0.0031  0.7933
16761TIP3   OH271773   2.804   0.826  16.791 -0.1304 -0.2840 -0.8223
16761TIP3    H171774   2.875   0.826  16.855 -0.4721 -0.5166 -0.4405
16761TIP3    H271775   2.761   0.911  16.804  0.8806  0.4428 -1.9693
16762TIP3   OH271776   6.407   2.517   3.516  0.1133 -0.4414  0.2065
16762TIP3    H171777   6.391   2.568   3.595  0.3544 -0.3723  0.2097
16762TIP3    H271778   6.466   2.571   3.464  2.1161 -1.6310  1.1473
16763TIP3   OH271779   1.816   3.891  12.581 -0.3422  0.2621  0.4366
16763TIP3    H171780   1.743   3.928  12.531  0.5465  0.4090 -0.7955
16763TIP3    H271781   1.801   3.922  12.670 -1.4803  0.7603  0.0978
16764TIP3   OH271782   3.194   6.346  11.376 -0.6668 -0.1394 -0.3612
16764TIP3    H171783   3.245   6.404  11.319  0.7208  0.0836  1.0321
16764TIP3    H271784   3.190   6.263  11.330  1.6166 -0.3787 -0.2124
16765TIP3   OH271785   5.389   0.998  16.211 -0.0679  0.2023 -0.3870
16765TIP3    H171786   5.424   1.075  16.256 -0.9117  0.3867 -0.0249
16765TIP3    H271787   5.455   0.930  16.225  0.9383  0.9924 -1.1575
16766TIP3   OH271788   0.291   5.559  16.222 -0.2365 -0.2931  0.2322
16766TIP3    H171789   0.314   5.644  16.185 -1.7851 -0.2876 -0.8171
16766TIP3    H271790   0.352   5.498  16.181 -0.5512  0.0197 -0.7209
16767TIP3   OH271791   5.624   1.384  16.176  0.2682 -0.3567 -0.5763
16767TIP3    H171792   5.614   1.354  16.086 -0.1541  0.6210 -0.8782
16767TIP3    H271793   5.706   1.433  16.177 -0.6916  1.3782 -0.9817
16768TIP3   OH271794   0.048   4.188   1.934  0.5009 -0.1815  0.9028
16768TIP3    H171795  -0.018   4.124   1.909  0.0222  0.1169  1.3945
16768TIP3    H271796   0.055   4.180   2.029  1.0346 -0.0774  0.8765
16769TIP3   OH271797   2.055   6.374  15.345 -0.1618  0.0187 -0.4770
16769TIP3    H171798   1.987   6.436  15.370  0.9048  1.0311  0.0556
16769TIP3    H271799   2.022   6.289  15.371 -0.8973  0.5828  0.4866
16770TIP3   OH271800   2.606   3.808  13.869  0.0647  0.3969 -0.3337
16770TIP3    H171801   2.695   3.843  13.864  0.0339  0.3483 -1.2832
16770TIP3    H271802   2.614   3.717  13.838 -0.5169  0.7789 -1.6795
16771TIP3   OH271803   6.851   2.488   0.838  0.0435 -0.5643 -0.0134
16771TIP3    H171804   6.893   2.402   0.847 -0.7254 -0.9220  0.2061
16771TIP3    H271805   6.924   2.549   0.836  0.8154 -1.3987 -2.9916
16772TIP3   OH271806   1.825   0.310   0.904  0.0838 -0.6352  0.0342
16772TIP3    H171807   1.898   0.367   0.878  1.2855 -0.6715  2.8984
16772TIP3    H271808   1.868   0.234   0.943 -1.5340 -1.8561 -0.4695
16773TIP3   OH271809   0.633   0.443   0.822 -0.1056 -0.3198 -0.3118
16773TIP3    H171810   0.674   0.516   0.869  1.0744 -1.5998  0.7254
16773TIP3    H271811   0.578   0.400   0.888  0.7674 -1.5287 -0.3425
16774TIP3   OH271812   5.086   3.998   1.393 -1.0779  0.4209 -0.4244
16774TIP3    H171813   5.087   4.050   1.312  1.6518  0.1580 -0.6333
16774TIP3    H271814   5.157   3.935   1.382 -1.1786 -0.1696  1.8510
16775TIP3   OH271815   4.358   0.379  15.502 -0.8437  0.0770  0.0629
16775TIP3    H171816   4.373   0.473  15.493  1.3727 -0.1186  0.9032
16775TIP3    H271817   4.384   0.343  15.417 -1.1684  0.1783 -0.0795
16776TIP3   OH271818   0.686   1.773   3.357  0.1336 -0.0593 -0.1348
16776TIP3    H171819   0.640   1.826   3.292  0.2577 -0.8608 -0.8896
16776TIP3    H271820   0.652   1.685   3.345  0.2792 -0.2481  0.7884
16777TIP3   OH271821   0.388   6.671  15.639  0.1785  0.5824 -0.0314
16777TIP3    H171822   0.380   6.576  15.652  0.6028  0.4530 -0.6417
16777TIP3    H271823   0.354   6.710  15.719 -2.7744  0.0086 -0.9018
16778TIP3   OH271824   2.601   0.232  13.298  0.5562 -0.2955  0.2592
16778TIP3    H171825   2.678   0.228  13.241  0.4821  1.5085 -0.0328
16778TIP3    H271826   2.577   0.141  13.313  2.2550 -0.8761 -0.3134
16779TIP3   OH271827   2.657   0.679   0.646  0.4139 -0.6704  0.2205
16779TIP3    H171828   2.724   0.651   0.709  0.7209  0.9635  0.6658
16779TIP3    H271829   2.694   0.659   0.560  1.2912 -0.1878  0.4773
16780TIP3   OH271830   1.335   1.716   4.337  0.1056  0.1309  0.0561
16780TIP3    H171831   1.402   1.714   4.406 -0.2057 -1.5405  0.3556
16780TIP3    H271832   1.253   1.705   4.384 -0.1732 -0.2650 -0.5156
16781TIP3   OH271833   2.682   2.915   5.320 -0.1832  0.0143 -0.4935
16781TIP3    H171834   2.760   2.863   5.341 -0.7699 -1.0969 -0.9854
16781TIP3    H271835   2.657   2.954   5.404 -0.2065 -1.1747  0.0877
16782TIP3   OH271836   3.266   5.685   0.257 -0.1799 -0.1259  0.4740
16782TIP3    H171837   3.290   5.598   0.224 -1.7495  0.0513 -1.3518
16782TIP3    H271838   3.266   5.741   0.179  3.1649  2.2035  1.8941
16783TIP3   OH271839   3.416   4.552  12.497  0.7160 -0.6891 -0.1922
16783TIP3    H171840   3.430   4.516  12.409  3.4636 -2.0329  0.6574
16783TIP3    H271841   3.399   4.475  12.551 -2.6570  0.2605  0.2905
16784TIP3   OH271842   3.379   4.811  15.924  0.0208 -0.2928 -0.9186
16784TIP3    H171843   3.328   4.835  15.846 -0.6946 -0.1666 -0.4194
16784TIP3    H271844   3.320   4.830  15.997  1.2226  1.0551 -0.2524
16785TIP3   OH271845   4.674   0.720   3.474  0.0619 -0.2369 -0.1512
16785TIP3    H171846   4.630   0.804   3.461  0.6152  0.8063  3.5694
16785TIP3    H271847   4.704   0.695   3.387 -0.2707  3.3549 -1.4632
16786TIP3   OH271848   5.100   5.528  12.499 -0.7687 -0.2730 -0.3846
16786TIP3    H171849   5.048   5.601  12.466  1.2911  2.1629  1.2800
16786TIP3    H271850   5.187   5.543  12.463  0.0643 -0.9878  1.2107
16787TIP3   OH271851   5.512   5.014   1.957 -0.2921 -0.5019 -0.7516
16787TIP3    H171852   5.464   4.942   1.916  1.3982 -0.9706 -2.0216
16787TIP3    H271853   5.566   4.972   2.025  0.1008 -0.3234 -0.9502
16788TIP3   OH271854   4.850   0.798  14.600  0.0751 -0.0664  0.0741
16788TIP3    H171855   4.916   0.836  14.659  1.0482 -1.7317  0.1077
16788TIP3    H271856   4.897   0.731  14.551 -1.8517 -2.2349  1.0198
16789TIP3   OH271857   2.242   3.746  16.331 -0.7022  0.2066  0.4253
16789TIP3    H171858   2.273   3.695  16.406  0.6154  0.2338 -0.0710
16789TIP3    H271859   2.254   3.688  16.255 -1.5982  0.3398  0.1658
16790TIP3   OH271860   5.646   2.152   1.185 -0.1040  0.2102 -0.1866
16790TIP3    H171861   5.618   2.243   1.176 -0.7218  0.0015 -0.3938
16790TIP3    H271862   5.576   2.101   1.146  1.0042 -0.2836 -1.6074
16791TIP3   OH271863   1.302   5.238  14.333 -0.1831  0.1622 -0.3059
16791TIP3    H171864   1.276   5.247  14.241  0.3199  0.6950 -0.3983
16791TIP3    H271865   1.387   5.281  14.338 -0.6380  0.9826  0.6208
16792TIP3   OH271866   5.130   4.114  12.401  0.1681  0.4099 -0.0914
16792TIP3    H171867   5.130   4.164  12.320  2.5510 -0.1482 -0.5145
16792TIP3    H271868   5.152   4.024  12.374  1.3414  0.2786  1.1637
16793TIP3   OH271869   0.425   2.172   4.556  0.6660  0.2269  0.2644
16793TIP3    H171870   0.435   2.201   4.465  0.7820 -0.4022  0.0690
16793TIP3    H271871   0.352   2.224   4.590  0.6588  0.5042 -0.1717
16794TIP3   OH271872   5.912   4.778  16.181 -0.3117 -0.0719 -0.0708
16794TIP3    H171873   5.950   4.699  16.220 -0.3406 -0.5900 -1.0642
16794TIP3    H271874   5.983   4.842  16.184 -0.4479  0.0473  1.2131
16795TIP3   OH271875   6.019   2.089   0.093  0.0018 -0.2079 -0.2906
16795TIP3    H171876   6.037   2.146   0.018  2.0421 -0.1152  0.2122
16795TIP3    H271877   5.925   2.098   0.108 -0.0985  1.3304 -1.5864
16796TIP3   OH271878   0.481   2.921   4.887  0.6179 -0.5287 -0.7172
16796TIP3    H171879   0.531   2.921   4.969 -0.9643 -1.5353  0.3223
16796TIP3    H271880   0.391   2.902   4.915  0.0217 -0.8194 -2.7005
16797TIP3   OH271881   6.089   6.229  10.454 -0.5101 -0.4485  0.2160
16797TIP3    H171882   6.142   6.179  10.392 -1.0768 -1.4820  0.5558
16797TIP3    H271883   6.104   6.321  10.429 -0.2296 -0.8161 -1.0393
16798TIP3   OH271884   5.757   1.301   5.307  0.1892 -0.0129  0.3580
16798TIP3    H171885   5.706   1.246   5.248  0.2557 -1.7574  1.8456
16798TIP3    H271886   5.736   1.268   5.395  1.0001  1.7135  1.2551
16799TIP3   OH271887   6.792   4.539   5.268 -0.0510  0.0032 -0.1434
16799TIP3    H171888   6.836   4.508   5.189 -0.0127 -2.5482  0.8019
16799TIP3    H271889   6.841   4.616   5.295  0.6399  0.2309 -1.9422
16800TIP3   OH271890   2.008   0.112   5.204 -0.0550  0.5687 -0.1340
16800TIP3    H171891   1.938   0.090   5.143 -0.8859 -2.3391  1.6259
16800TIP3    H271892   1.976   0.188   5.251 -0.9150  0.7855 -1.0388
16801TIP3   OH271893   0.744   6.734   4.603  0.7111 -0.4321 -0.3011
16801TIP3    H171894   0.655   6.768   4.592  0.0335 -2.2237 -0.7228
16801TIP3    H271895   0.749   6.712   4.697  1.3092  1.1696  0.0691
16802TIP3   OH271896   0.429   5.477  16.556 -0.5448  0.1544 -0.7396
16802TIP3    H171897   0.437   5.495  16.650 -2.1850 -1.1930 -0.2925
16802TIP3    H271898   0.372   5.546  16.523 -1.0269 -0.1114 -0.4726
16803TIP3   OH271899   2.543   2.747   1.772  0.3551 -0.2667  0.5479
16803TIP3    H171900   2.498   2.748   1.856  0.3606  0.4122  0.5497
16803TIP3    H271901   2.529   2.659   1.738 -2.0158  0.2514 -0.0005
16804TIP3   OH271902   0.929   6.752  13.039  0.1372 -0.4280  0.0450
16804TIP3    H171903   0.902   6.731  13.129 -1.2695  2.4968  0.4247
16804TIP3    H271904   0.965   6.840  13.045  0.7885 -0.4818 -2.1693
16805TIP3   OH271905   1.694   4.011  12.100  0.3852 -0.0436  0.7391
16805TIP3    H171906   1.639   4.089  12.107 -3.2815 -2.4419  1.7312
16805TIP3    H271907   1.670   3.973  12.016  0.6703 -1.0415  1.0933
16806TIP3   OH271908   5.918   3.806  17.011  0.3196 -0.1582  0.6662
16806TIP3    H171909   5.969   3.878  17.049 -1.0338  1.4867 -0.4923
16806TIP3    H271910   5.854   3.784  17.078  0.2005  0.3180  0.7138
16807TIP3   OH271911   5.545   0.733   5.689  0.3651 -0.4339 -0.0558
16807TIP3    H171912   5.455   0.760   5.707 -0.2149 -1.5227 -1.1250
16807TIP3    H271913   5.552   0.646   5.728  0.8140 -0.5225 -0.3270
16808TIP3   OH271914   5.334   3.573   1.343  0.3027 -0.3735  0.2952
16808TIP3    H171915   5.318   3.487   1.305  0.4032  0.0019 -0.6454
16808TIP3    H271916   5.247   3.605   1.368  0.4824 -1.7017  2.9045
16809TIP3   OH271917   6.667   1.295   1.035 -0.3579  0.2536 -0.0039
16809TIP3    H171918   6.704   1.299   1.123  0.0804  0.3332 -0.1868
16809TIP3    H271919   6.733   1.247   0.984 -1.2543 -1.0648  0.0319
16810TIP3   OH271920   2.070   0.511   1.776  0.8736 -0.1552 -0.5426
16810TIP3    H171921   2.039   0.476   1.692 -1.8419 -0.0177  0.2960
16810TIP3    H271922   2.098   0.600   1.756 -0.7152  0.2368 -1.1814
16811TIP3   OH271923   5.358   5.711   6.199  0.3968  0.4802  0.0835
16811TIP3    H171924   5.364   5.644   6.131  0.0787 -0.3540  0.8714
16811TIP3    H271925   5.329   5.665   6.277 -0.8016  1.7060  0.4005
16812TIP3   OH271926   4.987   6.747   2.147  0.0899 -0.4888  0.0052
16812TIP3    H171927   4.946   6.667   2.114 -0.5463 -0.4855  0.7520
16812TIP3    H271928   4.933   6.817   2.112 -1.3134 -0.5225  1.9218
16813TIP3   OH271929   6.001   6.573   4.687  0.2165  0.4952 -0.4953
16813TIP3    H171930   6.042   6.489   4.669  1.4153  1.2731 -1.5505
16813TIP3    H271931   6.074   6.633   4.706 -0.6475  1.1491  1.0290
16814TIP3   OH271932   3.431   0.338   1.759 -0.3867 -0.4766  0.1794
16814TIP3    H171933   3.462   0.335   1.668  0.7213 -0.0288  0.5319
16814TIP3    H271934   3.342   0.375   1.753 -0.8396 -1.6682 -0.8337
16815TIP3   OH271935   1.293   5.619  15.211  0.0986  0.5140 -0.7283
16815TIP3    H171936   1.307   5.684  15.280  1.0376  0.0154 -0.4446
16815TIP3    H271937   1.210   5.577  15.235  0.1206  0.7432 -0.2332
16816TIP3   OH271938   4.646   1.135   1.630  0.4112 -0.3582  0.1919
16816TIP3    H171939   4.577   1.152   1.695  0.3587 -0.0832  0.0657
16816TIP3    H271940   4.704   1.072   1.673 -0.1819 -0.9772  0.1237
16817TIP3   OH271941   4.614   6.536   0.861 -0.2303 -0.4128 -0.3217
16817TIP3    H171942   4.706   6.554   0.878 -0.1018 -0.8169 -0.5740
16817TIP3    H271943   4.589   6.600   0.795 -0.4470  0.4607  0.5869
16818TIP3   OH271944   5.588   4.452   4.376  0.0361  0.1647  0.0020
16818TIP3    H171945   5.594   4.424   4.468  1.3567  0.3931  0.0014
16818TIP3    H271946   5.574   4.370   4.328  0.2310 -0.0628  0.3245
16819TIP3   OH271947   4.626   6.315   1.864 -0.2041  0.3331 -0.5137
16819TIP3    H171948   4.653   6.223   1.871  0.3740  0.5402  0.0213
16819TIP3    H271949   4.558   6.314   1.797  0.8186 -0.2640 -1.5897
16820TIP3   OH271950   4.841   1.646   4.953 -0.3344 -0.2552  0.1315
16820TIP3    H171951   4.914   1.612   5.005 -0.1724 -2.6749 -1.5487
16820TIP3    H271952   4.772   1.664   5.018  0.0773 -2.5839  1.3079
16821TIP3   OH271953   4.226   6.782   5.447 -0.2138  0.0131  0.0612
16821TIP3    H171954   4.276   6.792   5.528 -0.0319  1.1496 -0.1673
16821TIP3    H271955   4.290   6.751   5.383 -0.7337 -2.6439  0.7316
16822TIP3   OH271956   1.931   1.699   5.175 -1.0766  0.2935  0.5600
16822TIP3    H171957   1.864   1.640   5.140  0.7899 -0.7336 -1.5104
16822TIP3    H271958   1.905   1.786   5.145 -1.0529 -0.2129 -0.9947
16823TIP3   OH271959   2.019   3.024   6.080 -0.4750  0.1953  0.0694
16823TIP3    H171960   2.024   3.110   6.121 -0.7690  1.6953 -2.8028
16823TIP3    H271961   2.096   2.977   6.113  0.6176  2.1535  0.4400
16824TIP3   OH271962   1.308   4.041  15.455  0.2643 -0.5784  0.3706
16824TIP3    H171963   1.236   4.001  15.503 -0.5270  0.5629  0.2006
16824TIP3    H271964   1.374   3.973  15.448 -1.0609 -1.8713 -0.0198
16825TIP3   OH271965   6.828   0.573   0.490  0.1483  0.5180  0.5571
16825TIP3    H171966   6.899   0.584   0.426  0.3851  0.4952  0.8119
16825TIP3    H271967   6.855   0.627   0.564 -0.2345  0.7203  0.5498
16826TIP3   OH271968   1.180   0.484  10.922  0.2119 -0.3446  0.1798
16826TIP3    H171969   1.216   0.395  10.919 -0.1328 -0.4557 -1.6317
16826TIP3    H271970   1.245   0.538  10.877 -0.3733  0.0066 -0.2524
16827TIP3   OH271971   3.900   5.791   3.642 -0.1868 -0.5904  0.5275
16827TIP3    H171972   3.911   5.804   3.548  2.7099  0.6387  0.9493
16827TIP3    H271973   3.851   5.868   3.671 -1.5916 -1.2487  0.0058
16828TIP3   OH271974   3.988   2.815   5.395 -0.0547 -0.3741 -0.0852
16828TIP3    H171975   3.998   2.880   5.464  0.6264  0.1885 -0.7086
16828TIP3    H271976   3.950   2.863   5.322  0.1273 -0.7554 -0.4335
16829TIP3   OH271977   1.666   5.416   2.928 -0.0307  0.2576 -0.2856
16829TIP3    H171978   1.699   5.347   2.871 -0.8122 -0.8398  0.5420
16829TIP3    H271979   1.736   5.432   2.991  0.7384  1.3033 -1.3616
16830TIP3   OH271980   4.299   6.633   5.903  0.5793 -0.2781  0.0414
16830TIP3    H171981   4.341   6.567   5.958 -0.3750 -0.3453  0.7044
16830TIP3    H271982   4.210   6.641   5.938  0.6906  1.4114  0.0197
16831TIP3   OH271983   1.823   2.607   5.280 -0.1113 -0.1306 -0.4057
16831TIP3    H171984   1.827   2.528   5.335 -0.5906  1.1606  1.5887
16831TIP3    H271985   1.877   2.671   5.326 -1.3021  1.3006 -0.9313
16832TIP3   OH271986   5.783   6.427  12.369  0.1167 -0.1108 -0.3046
16832TIP3    H171987   5.710   6.399  12.424  0.5301 -0.0383  0.2801
16832TIP3    H271988   5.851   6.456  12.430 -0.0485  1.5856 -0.8723
16833TIP3   OH271989   6.169   2.810  12.840 -0.3214 -0.4256  0.3686
16833TIP3    H171990   6.134   2.755  12.911 -2.6932 -0.8821 -1.0275
16833TIP3    H271991   6.262   2.820  12.861 -0.6541 -1.6278  2.8142
16834TIP3   OH271992   3.749   3.717   0.909 -0.0515 -0.4414  0.3826
16834TIP3    H171993   3.704   3.667   0.841  0.6862 -0.6917  0.0731
16834TIP3    H271994   3.777   3.798   0.865  2.8632 -1.7557 -0.4356
16835TIP3   OH271995   5.093   6.035   4.576 -0.2354  0.3823  0.6815
16835TIP3    H171996   5.159   5.993   4.631 -0.5207  0.4606  1.0889
16835TIP3    H271997   5.117   6.011   4.486  0.2277  0.2470  0.8415
16836TIP3   OH271998   5.476   3.947  10.570  0.5956  0.3056 -0.3602
16836TIP3    H171999   5.543   4.014  10.587  1.0809 -0.1366 -0.5040
16836TIP3    H272000   5.393   3.994  10.581  0.9265  1.0445 -0.9045
16837TIP3   OH272001   3.745   6.561  11.626  0.1806 -0.4738 -0.3483
16837TIP3    H172002   3.678   6.494  11.617 -1.6474  1.1089  0.6638
16837TIP3    H272003   3.701   6.642  11.600  0.9612  0.9605  2.4590
16838TIP3   OH272004   4.492   3.209  16.759 -0.2659  0.1860 -0.0034
16838TIP3    H172005   4.572   3.261  16.766  0.4817 -0.5406 -2.1001
16838TIP3    H272006   4.421   3.272  16.766  0.4797  0.9102  1.4632
16839TIP3   OH272007   3.611   5.097  13.203  0.4768  0.1856 -0.0033
16839TIP3    H172008   3.660   5.170  13.165  0.9168 -1.5507 -3.0720
16839TIP3    H272009   3.666   5.068  13.276  1.7343  1.1082 -0.5396
16840TIP3   OH272010   3.337   2.529   4.088 -0.2927  0.1299  0.3068
16840TIP3    H172011   3.265   2.481   4.046 -0.5378  0.8088 -0.0860
16840TIP3    H272012   3.297   2.612   4.115  0.3017  0.4409  0.2520
16841TIP3   OH272013   5.250   6.556  14.418  0.1458 -0.5556  0.0631
16841TIP3    H172014   5.158   6.578  14.403  0.1454 -0.5141  0.1231
16841TIP3    H272015   5.273   6.496  14.347  0.4936  0.5768 -0.8147
16842TIP3   OH272016   1.251   2.051   2.015 -0.9473  0.1925  0.1491
16842TIP3    H172017   1.338   2.089   2.012 -1.3782  1.1817 -0.2659
16842TIP3    H272018   1.256   1.984   2.084  0.3311 -0.3002 -0.4037
16843TIP3   OH272019   2.974   6.748  11.400  0.1545 -0.7307 -0.0189
16843TIP3    H172020   2.973   6.732  11.494 -0.2357 -0.0782  0.0926
16843TIP3    H272021   2.947   6.665  11.361 -0.1889 -0.8494  0.4671
16844TIP3   OH272022   3.214   1.409  14.010  0.5281  0.2784  0.9390
16844TIP3    H172023   3.205   1.348  14.083 -1.1755 -0.2949  0.2993
16844TIP3    H272024   3.126   1.445  13.997  0.4865 -0.5304 -1.5703
16845TIP3   OH272025   6.640   3.759  16.660  0.1916 -0.2428 -0.3632
16845TIP3    H172026   6.648   3.743  16.754  2.2732  0.1665 -0.4079
16845TIP3    H272027   6.564   3.816  16.651  1.1459  1.4251  1.3311
16846TIP3   OH272028   4.540   3.994  14.609 -0.0788  0.2440  0.3233
16846TIP3    H172029   4.533   3.962  14.699 -1.2619  0.5835  0.3682
16846TIP3    H272030   4.450   4.006  14.581  0.2366  3.6147  0.3335
16847TIP3   OH272031   5.099   0.073  13.567  0.9251  0.5203 -0.6607
16847TIP3    H172032   5.113   0.116  13.483 -1.4347  0.1919 -1.2999
16847TIP3    H272033   5.045   0.134  13.617 -0.1477 -0.4919 -0.5361
16848TIP3   OH272034   5.312   0.282  16.522  0.6163 -0.2087 -0.1610
16848TIP3    H172035   5.305   0.209  16.461 -0.1316 -0.1659 -0.1409
16848TIP3    H272036   5.382   0.337  16.487  0.5203 -0.4377 -0.7113
16849TIP3   OH272037   3.572   0.769  13.805 -0.1612  0.3808  0.3284
16849TIP3    H172038   3.531   0.794  13.888 -0.0132 -1.8565  1.1449
16849TIP3    H272039   3.647   0.828  13.797 -1.3365  1.9953  0.7317
16850TIP3   OH272040   0.663   0.928   6.162  0.7892  0.0253 -0.1704
16850TIP3    H172041   0.689   0.836   6.161 -1.5332 -0.6850 -0.9068
16850TIP3    H272042   0.652   0.949   6.255  0.2274 -0.7821 -0.0488
16851TIP3   OH272043   3.694   1.783  11.009 -0.2603 -0.0528  0.9350
16851TIP3    H172044   3.767   1.754  10.955 -0.3939  0.7709  0.3021
16851TIP3    H272045   3.727   1.775  11.099  0.8322  0.8745  0.6404
16852TIP3   OH272046   3.141   5.138  10.691  0.2889 -0.1817  0.2215
16852TIP3    H172047   3.104   5.200  10.629  0.2903 -0.5493 -0.1552
16852TIP3    H272048   3.072   5.073  10.705 -0.1905  0.5902  1.6160
16853TIP3   OH272049   4.220   6.528  13.104 -0.3930 -0.8629 -0.2317
16853TIP3    H172050   4.165   6.486  13.171 -0.6053 -0.4469 -0.1408
16853TIP3    H272051   4.263   6.455  13.059  1.9900 -1.1149  2.1885
16854TIP3   OH272052   1.601   3.761   3.679 -0.7612  0.9920  0.0662
16854TIP3    H172053   1.563   3.678   3.652  1.0691  0.3263 -0.6370
16854TIP3    H272054   1.620   3.806   3.596  0.8782  0.8390  0.3340
16855TIP3   OH272055   1.446   3.978  13.541  0.1169  0.1693 -0.3990
16855TIP3    H172056   1.372   3.919  13.529  0.1647 -0.0258  0.2161
16855TIP3    H272057   1.410   4.066  13.532 -0.0376  0.0576 -0.8810
16856TIP3   OH272058   4.057   6.690  14.462  0.2849  0.1162  0.2089
16856TIP3    H172059   4.128   6.754  14.463 -1.2487  1.8943  1.5605
16856TIP3    H272060   3.977   6.742  14.459 -1.0292 -1.7928 -0.0628
16857TIP3   OH272061   2.319   6.418  16.617  0.1908 -0.2242 -0.0402
16857TIP3    H172062   2.371   6.495  16.641 -2.5856  1.6528  0.4884
16857TIP3    H272063   2.292   6.380  16.700 -1.6900  0.6918 -0.1531
16858TIP3   OH272064   3.213   3.564  12.647  0.5011  0.6143 -0.2180
16858TIP3    H172065   3.134   3.566  12.592  0.4771  0.5679 -0.1865
16858TIP3    H272066   3.213   3.649  12.691  0.4741  0.6184 -0.2255
16859TIP3   OH272067   5.310   2.069   2.806  0.1824 -0.1459 -0.4643
16859TIP3    H172068   5.266   2.151   2.831  2.3958  0.8854  0.2694
16859TIP3    H272069   5.309   2.016   2.885 -0.2028 -0.3605 -0.6082
16860TIP3   OH272070   5.503   1.921   2.640  0.4237 -0.3129  0.3520
16860TIP3    H172071   5.451   1.847   2.669  1.2543 -2.0053 -2.1782
16860TIP3    H272072   5.459   1.998   2.678 -1.8085 -1.8938  1.1516
16861TIP3   OH272073   2.675   4.603   0.987 -0.0377 -0.1513 -0.1819
16861TIP3    H172074   2.658   4.510   0.967 -2.0876  0.0563  0.3492
16861TIP3    H272075   2.591   4.646   0.969  1.0467  1.7168 -0.9756
16862TIP3   OH272076   1.275   2.967   0.039  0.3746  0.0614 -0.1774
16862TIP3    H172077   1.326   2.890   0.064  0.3607  0.6061  1.7164
16862TIP3    H272078   1.184   2.940   0.046  0.2255  1.0314  3.7972
16863TIP3   OH272079   2.005   6.181   0.582 -0.4212 -0.2320 -0.1372
16863TIP3    H172080   1.920   6.217   0.555 -0.8343 -2.0197 -1.4201
16863TIP3    H272081   1.983   6.114   0.647  0.2441  0.9099  1.3405
16864TIP3   OH272082   1.933   5.429   4.019 -0.1175  0.8419 -0.4793
16864TIP3    H172083   1.934   5.507   3.964  2.4332  0.6154 -0.8595
16864TIP3    H272084   1.925   5.463   4.109  3.0713  1.8196 -0.4349
16865TIP3   OH272085   0.790   2.653  11.141  0.1582  0.2448  0.1582
16865TIP3    H172086   0.706   2.618  11.114  0.3056 -0.2969  0.3972
16865TIP3    H272087   0.801   2.623  11.231  0.1771  1.0976  0.4524
16866TIP3   OH272088   0.644   0.045  10.966  0.1429  0.7836  0.3332
16866TIP3    H172089   0.659   0.025  10.874 -1.9208  1.3184 -0.1827
16866TIP3    H272090   0.717   0.005  11.012 -0.6553 -2.7499 -1.1628
16867TIP3   OH272091   2.698   3.773   1.960 -0.0091 -0.0899 -0.2169
16867TIP3    H172092   2.642   3.809   1.891 -0.7572 -0.0040  0.4174
16867TIP3    H272093   2.657   3.802   2.042  0.8456 -0.2075  0.2716
16868TIP3   OH272094   4.680   2.765   5.517 -0.0334  0.7398 -0.4618
16868TIP3    H172095   4.624   2.839   5.540  1.7041  1.4507  1.8027
16868TIP3    H272096   4.767   2.790   5.546  1.4074 -0.6359 -3.1880
16869TIP3   OH272097   5.794   1.402   3.969  0.4532 -0.4264 -0.2189
16869TIP3    H172098   5.715   1.456   3.970  1.4359  1.0574  0.9556
16869TIP3    H272099   5.829   1.412   3.881 -0.9698 -1.6459 -0.9858
16870TIP3   OH272100   3.188   5.168  15.204 -0.7362 -0.2035 -0.1591
16870TIP3    H172101   3.121   5.236  15.200 -0.6910 -0.2175 -1.4555
16870TIP3    H272102   3.223   5.175  15.293  0.2454  2.4053 -0.6627
16871TIP3   OH272103   0.154   3.296  15.711 -0.0525 -0.2219 -0.0383
16871TIP3    H172104   0.176   3.262  15.798  1.9088 -2.2806 -1.2160
16871TIP3    H272105   0.238   3.326  15.675 -0.7563  0.2720 -1.3466
16872TIP3   OH272106   1.925   3.385  11.354 -0.2217 -0.2340 -0.2632
16872TIP3    H172107   1.974   3.379  11.436 -2.4874  3.2820  1.6361
16872TIP3    H272108   1.868   3.309  11.353  0.6650 -0.9264  0.8126
16873TIP3   OH272109   2.212   4.983   1.641 -0.3548 -0.4508  0.3830
16873TIP3    H172110   2.178   4.910   1.589  0.6626  0.0088 -0.9588
16873TIP3    H272111   2.221   5.055   1.579  0.0454  0.3938  1.3892
16874TIP3   OH272112   3.235   3.662  15.805 -0.8714  0.2834  0.7315
16874TIP3    H172113   3.179   3.704  15.871 -0.2428  2.9467 -0.3106
16874TIP3    H272114   3.318   3.709  15.810 -0.2005 -0.6766 -0.7345
16875TIP3   OH272115   3.690   6.693   1.483  0.5891 -0.1099  0.5983
16875TIP3    H172116   3.731   6.631   1.543 -2.8211 -1.6468  1.6397
16875TIP3    H272117   3.675   6.643   1.403 -0.1757  0.0385  0.6368
16876TIP3   OH272118   1.926   1.757  14.205  0.3551  0.4272 -0.0241
16876TIP3    H172119   1.913   1.778  14.113  1.6340  1.0283 -0.0980
16876TIP3    H272120   1.974   1.833  14.240  0.7866 -0.2439  0.8851
16877TIP3   OH272121   3.828   6.825   0.674  0.5155 -0.8527  0.6000
16877TIP3    H172122   3.753   6.861   0.626  0.5558  1.8054  2.3062
16877TIP3    H272123   3.904   6.853   0.623  0.4407 -0.6467  0.5976
16878TIP3   OH272124   4.843   6.283  16.029 -0.0746 -0.0469  0.3059
16878TIP3    H172125   4.875   6.369  16.003  1.9771 -1.2062 -1.3444
16878TIP3    H272126   4.750   6.284  16.009 -0.3882  2.1951  1.5844
16879TIP3   OH272127   3.603   0.172  15.480 -0.0039 -0.2497  0.1073
16879TIP3    H172128   3.562   0.208  15.559 -0.8348 -1.0583  0.0601
16879TIP3    H272129   3.647   0.246  15.440  3.0654 -0.3439  2.8920
16880TIP3   OH272130   1.380   5.311   3.681 -0.3905 -0.4746 -0.6390
16880TIP3    H172131   1.341   5.399   3.685  0.5996 -0.0660  0.9796
16880TIP3    H272132   1.319   5.256   3.730  0.3909 -0.0802  0.8361
16881TIP3   OH272133   0.137   3.732  15.861 -0.3978  0.2389 -0.6737
16881TIP3    H172134   0.106   3.702  15.776  2.3742 -2.5772 -0.8934
16881TIP3    H272135   0.116   3.660  15.921  1.2005  0.3817  0.1153
16882TIP3   OH272136   3.034   6.665  15.698  0.2025 -0.0565  0.3208
16882TIP3    H172137   3.125   6.688  15.712 -0.4782  3.0845  0.2674
16882TIP3    H272138   3.026   6.576  15.733  2.9029  0.1643  1.7623
16883TIP3   OH272139   0.335   0.013  16.385  0.4931  0.1307  0.5022
16883TIP3    H172140   0.324   0.046  16.295 -1.9430  0.9828  1.0428
16883TIP3    H272141   0.403   0.069  16.422  0.6628  0.5716 -0.4361
16884TIP3   OH272142   0.300   6.323  12.959 -0.2402  0.2492  0.1914
16884TIP3    H172143   0.266   6.400  12.913 -1.2968 -1.0269 -1.2612
16884TIP3    H272144   0.245   6.251  12.929  2.1824 -1.5062 -0.3303
16885TIP3   OH272145   5.864   2.226  12.294  0.1628 -0.3734  0.3327
16885TIP3    H172146   5.810   2.259  12.222 -1.5333 -0.6280  1.4318
16885TIP3    H272147   5.829   2.138  12.311 -0.8757  0.4160  2.7501
16886TIP3   OH272148   5.846   4.701   4.208 -0.0404  0.4255 -0.1851
16886TIP3    H172149   5.930   4.695   4.254 -0.2694  0.0026  0.1883
16886TIP3    H272150   5.809   4.613   4.215 -0.1020  0.3646 -1.1534
16887TIP3   OH272151   3.086   0.809  13.430 -0.3402 -0.2376 -0.6698
16887TIP3    H172152   3.145   0.737  13.450 -0.2559 -0.0301 -0.1730
16887TIP3    H272153   3.143   0.877  13.393 -0.1143  0.3226  0.6734
16888TIP3   OH272154   3.138   1.973   2.455  0.5079 -0.1887  0.4890
16888TIP3    H172155   3.070   1.994   2.520 -0.9237 -1.6347 -0.4486
16888TIP3    H272156   3.091   1.970   2.372  1.6081 -1.7032 -0.1346
16889TIP3   OH272157   6.140   5.573   5.287  0.3885  0.0718  0.0716
16889TIP3    H172158   6.233   5.593   5.295 -0.1407  2.1286  2.8947
16889TIP3    H272159   6.135   5.478   5.284  2.5444 -0.2157  2.4121
16890TIP3   OH272160   2.870   2.019   0.978  0.6069 -0.0666 -0.0383
16890TIP3    H172161   2.922   1.939   0.966 -0.3661 -0.8544  0.8631
16890TIP3    H272162   2.844   2.044   0.889  0.1702 -1.2735 -0.2684
16891TIP3   OH272163   1.646   3.016   1.518  0.1750 -0.0875 -0.6672
16891TIP3    H172164   1.665   2.933   1.562  0.9594  0.8664  0.8876
16891TIP3    H272165   1.550   3.022   1.518  0.1460 -0.3923  0.3968
16892TIP3   OH272166   4.367   6.371   2.753  0.1090  0.7045  0.2285
16892TIP3    H172167   4.369   6.420   2.835 -0.9378  1.3933 -0.1252
16892TIP3    H272168   4.393   6.435   2.687  1.8500 -0.0832  0.0972
16893TIP3   OH272169   6.123   3.191  14.304 -0.1348  0.2389  0.4440
16893TIP3    H172170   6.100   3.113  14.252 -1.5978  0.9408 -0.0232
16893TIP3    H272171   6.041   3.240  14.311 -0.0676  0.0984  3.6321
16894TIP3   OH272172   1.673   5.057  11.695 -0.8131 -0.1618  0.5799
16894TIP3    H172173   1.766   5.036  11.696 -0.7957 -0.0786  0.7252
16894TIP3    H272174   1.668   5.144  11.654 -0.7194  0.3450  1.6139
16895TIP3   OH272175   0.449   3.206  16.533  0.3220  0.1677  0.0270
16895TIP3    H172176   0.467   3.205  16.627 -0.2252 -0.9141  0.1330
16895TIP3    H272177   0.480   3.291  16.504  1.5568  0.0750  0.9837
16896TIP3   OH272178   4.455   3.462   0.664 -0.1367 -0.3921  0.1689
16896TIP3    H172179   4.502   3.403   0.724 -0.3714  0.5273  1.3031
16896TIP3    H272180   4.420   3.404   0.597 -0.7638 -1.6265  1.4896
16897TIP3   OH272181   5.344   4.546   5.704 -0.1043 -0.4253  0.2795
16897TIP3    H172182   5.420   4.603   5.697 -0.3627 -0.0468  0.4947
16897TIP3    H272183   5.317   4.552   5.795 -0.1742 -0.8460  0.2907
16898TIP3   OH272184   4.057   1.578  15.438  0.2208 -0.2087 -0.2711
16898TIP3    H172185   4.044   1.492  15.478  1.7669 -0.1269  0.4784
16898TIP3    H272186   3.969   1.616  15.434 -0.4138 -1.5907 -0.1158
16899TIP3   OH272187   2.350   1.696   0.166  0.2702  0.1457  0.4013
16899TIP3    H172188   2.303   1.774   0.193  1.0703  0.8298 -0.1407
16899TIP3    H272189   2.282   1.630   0.153 -0.5446  1.1373 -0.4860
16900TIP3   OH272190   0.518   1.953  16.412 -0.2476 -0.1446  0.5624
16900TIP3    H172191   0.452   1.987  16.352 -0.4107  0.3374  1.0108
16900TIP3    H272192   0.478   1.874  16.448  1.1674 -2.4550 -2.4853
16901TIP3   OH272193   3.745   6.716   4.354 -0.1589  0.2045  0.6886
16901TIP3    H172194   3.760   6.799   4.401 -0.7692 -0.4017  2.0026
16901TIP3    H272195   3.660   6.686   4.385 -0.9913  0.1854 -1.4856
16902TIP3   OH272196   4.908   2.924  13.733  0.2579  0.3114  0.2980
16902TIP3    H172197   5.001   2.910  13.752  0.7050  1.4519 -0.8678
16902TIP3    H272198   4.890   3.011  13.769 -0.9164 -0.7312  2.3222
16903TIP3   OH272199   3.888   6.659  12.039 -0.5333 -0.0330 -0.4966
16903TIP3    H172200   3.941   6.689  11.965  0.4598  0.6395  0.4508
16903TIP3    H272201   3.874   6.566  12.022  0.0361  0.0148 -1.3168
16904TIP3   OH272202   4.500   3.053  16.396 -0.3018  1.0874  0.5028
16904TIP3    H172203   4.437   3.120  16.368  0.8439  1.9253 -0.1764
16904TIP3    H272204   4.575   3.065  16.337  0.7636  0.5531  1.7026
16905TIP3   OH272205   3.128   4.623  15.845  0.6650  0.3392 -0.1960
16905TIP3    H172206   3.108   4.649  15.935 -0.9748 -0.2971 -0.3415
16905TIP3    H272207   3.153   4.705  15.802 -1.0293  1.1244  0.2196
16906TIP3   OH272208   5.612   1.868   4.372 -0.6347  0.5456 -0.3653
16906TIP3    H172209   5.705   1.854   4.355 -0.7231 -1.2767  0.4330
16906TIP3    H272210   5.603   1.962   4.386  0.8204  0.9571 -1.9335
16907TIP3   OH272211   1.763   0.675   1.641  0.5626  0.5341 -0.1263
16907TIP3    H172212   1.706   0.750   1.657  1.2510  0.7923  1.2094
16907TIP3    H272213   1.703   0.602   1.626 -0.1097  1.0614 -0.0578
16908TIP3   OH272214   5.675   1.386  15.907  0.0217 -0.3018 -0.1884
16908TIP3    H172215   5.708   1.389  15.817 -2.2366  0.4558 -1.0775
16908TIP3    H272216   5.702   1.469  15.946  1.5270 -0.8855  0.0780
16909TIP3   OH272217   6.298   1.818   2.953 -1.0054 -0.2926  0.5384
16909TIP3    H172218   6.331   1.745   2.901 -0.4321  0.4533 -0.1667
16909TIP3    H272219   6.205   1.821   2.933 -1.1282 -1.1100  0.9319
16910TIP3   OH272220   5.635   1.866   1.183 -0.2079 -0.1665 -0.3650
16910TIP3    H172221   5.553   1.841   1.140 -0.4092 -1.6046  0.7512
16910TIP3    H272222   5.685   1.784   1.187  0.1991  0.1189  1.2006
16911TIP3   OH272223   1.116   2.894   1.319  0.4413 -0.6332  0.0553
16911TIP3    H172224   1.169   2.867   1.244 -0.7630  0.5786 -1.2981
16911TIP3    H272225   1.066   2.815   1.342 -0.3847 -0.6137 -1.5241
16912TIP3   OH272226   3.569   3.772  12.711  0.1107 -0.5100 -0.5956
16912TIP3    H172227   3.562   3.791  12.804  0.4219  1.1746 -0.8829
16912TIP3    H272228   3.643   3.712  12.704  1.4761  1.0333  0.0703
16913TIP3   OH272229   1.334   1.429   6.164 -0.2635 -0.0119 -0.6630
16913TIP3    H172230   1.370   1.435   6.253 -3.6448 -0.4150  0.9021
16913TIP3    H272231   1.371   1.349   6.128  0.3418 -0.4359  0.8275
16914TIP3   OH272232   2.531   0.059  14.573 -0.0180  0.0459  0.4439
16914TIP3    H172233   2.455   0.071  14.629 -0.0769 -0.6600  0.5269
16914TIP3    H272234   2.594   0.012  14.627 -0.0209 -0.5213 -0.0274
16915TIP3   OH272235   2.644   1.082  13.618 -0.1756 -0.2245  0.2580
16915TIP3    H172236   2.695   1.025  13.561 -0.2031  0.2259 -0.2228
16915TIP3    H272237   2.707   1.147  13.650 -0.6512  1.0753 -1.2971
16916TIP3   OH272238   3.168   5.200  14.292  0.1505  0.0236  0.3834
16916TIP3    H172239   3.193   5.126  14.237  0.5553  0.2238  0.2948
16916TIP3    H272240   3.247   5.253  14.298 -0.0696  0.3246  0.6466
16917TIP3   OH272241   4.817   6.364   5.050  0.4521 -0.5128 -0.4964
16917TIP3    H172242   4.891   6.422   5.069 -0.0607 -0.6422  2.4006
16917TIP3    H272243   4.855   6.277   5.044  0.6896 -0.4507  0.0177
16918TIP3   OH272244   1.349   5.743  16.289 -0.0111 -0.0082  0.1632
16918TIP3    H172245   1.383   5.816  16.237 -0.4014  0.3632  0.4286
16918TIP3    H272246   1.256   5.764  16.303 -0.2045 -0.7097 -0.0315
16919TIP3   OH272247   4.378   4.532   2.598  0.5762 -0.9636  0.0365
16919TIP3    H172248   4.429   4.452   2.590 -0.8187 -1.7480 -1.6136
16919TIP3    H272249   4.295   4.512   2.554  0.1039  1.2993 -0.2117
16920TIP3   OH272250   6.615   5.237  14.038  0.1380  0.9450  0.0578
16920TIP3    H172251   6.688   5.289  14.070  0.6805  1.4390 -1.8473
16920TIP3    H272252   6.625   5.237  13.943 -1.3231 -0.4932 -0.1536
16921TIP3   OH272253   5.235   4.554  12.578 -0.3156  0.2986 -0.2048
16921TIP3    H172254   5.282   4.476  12.549  0.0092  0.1183  0.7589
16921TIP3    H272255   5.229   4.609  12.500  3.0995  1.1205 -0.0497
16922TIP3   OH272256   4.351   5.546   3.503  0.8519 -0.0673 -0.0774
16922TIP3    H172257   4.279   5.569   3.445  1.9206  1.1957 -0.9391
16922TIP3    H272258   4.352   5.615   3.569  1.3114 -0.0415 -0.1065
16923TIP3   OH272259   4.446   0.509  14.362  1.4938 -0.4949  0.1384
16923TIP3    H172260   4.376   0.495  14.426  3.6799  1.3968  3.1746
16923TIP3    H272261   4.426   0.593  14.322 -0.2463 -1.9807 -2.4066
16924TIP3   OH272262   5.373   3.700   0.359  0.2705 -0.3516  0.0137
16924TIP3    H172263   5.298   3.751   0.328  0.6843 -0.6149 -1.4787
16924TIP3    H272264   5.403   3.747   0.437 -0.2227  0.8757 -0.5154
16925TIP3   OH272265   0.876   3.496  10.541  0.1978  0.1622 -0.3139
16925TIP3    H172266   0.931   3.442  10.598  0.8903  1.8152  0.6745
16925TIP3    H272267   0.822   3.434  10.493  2.1201 -1.4631 -0.4674
16926TIP3   OH272268   2.509   4.087   3.910 -0.7782 -0.1338 -0.1413
16926TIP3    H172269   2.436   4.138   3.875 -0.4955  1.5208  1.5608
16926TIP3    H272270   2.475   4.047   3.989 -0.1633 -0.2552  0.0679
16927TIP3   OH272271   2.134   1.865   0.043 -0.0324  0.3087 -0.7729
16927TIP3    H172272   2.057   1.862  -0.015  0.2935 -1.3461 -1.1898
16927TIP3    H272273   2.197   1.808  -0.000  1.4225  1.5733 -0.3878
16928TIP3   OH272274   2.152   1.068   1.981 -0.6396 -0.4067 -1.1238
16928TIP3    H172275   2.243   1.055   1.954 -0.2315  0.8944 -0.4702
16928TIP3    H272276   2.100   1.039   1.906  0.2938 -1.5554 -1.3487
16929TIP3   OH272277   2.787   4.718   3.991  0.1402 -0.0392 -0.0972
16929TIP3    H172278   2.839   4.648   3.952  0.6026  1.0846 -1.5743
16929TIP3    H272279   2.705   4.719   3.941  0.2934  0.7118 -0.3447
16930TIP3   OH272280   6.366   5.896   0.046 -0.2571  0.3976 -0.5267
16930TIP3    H172281   6.358   5.827  -0.020 -0.3597  0.0733 -0.1767
16930TIP3    H272282   6.277   5.927   0.060 -0.4110 -0.3558  0.3213
16931TIP3   OH272283   5.608   3.797   0.510 -0.0341 -0.7685 -0.2846
16931TIP3    H172284   5.627   3.871   0.452  0.2689  0.5860  1.4719
16931TIP3    H272285   5.534   3.826   0.562  0.9695 -1.1033  1.4035
16932TIP3   OH272286   3.276   0.090   0.531  0.1612  0.4089 -0.1843
16932TIP3    H172287   3.325   0.139   0.597  0.5011 -1.4112  0.9799
16932TIP3    H272288   3.318   0.004   0.528 -0.7231 -0.0138 -1.7895
16933TIP3   OH272289   5.931   6.242   5.356 -0.3867 -0.3783 -0.1979
16933TIP3    H172290   5.956   6.151   5.341 -0.7636 -1.0082  2.4963
16933TIP3    H272291   5.846   6.251   5.313 -0.7614 -1.5601  0.2752
16934TIP3   OH272292   6.603   0.025  11.339  1.0814 -0.0553 -0.2129
16934TIP3    H172293   6.589  -0.034  11.413  3.0262 -0.1066  0.1712
16934TIP3    H272294   6.553  -0.015  11.267  2.0076 -1.9681  0.1495
16935TIP3   OH272295   0.345   1.149   4.877  0.3543 -0.3296  0.1000
16935TIP3    H172296   0.324   1.233   4.837  0.1399 -1.5466 -2.5985
16935TIP3    H272297   0.416   1.169   4.938 -0.4595  1.9532  0.3933
16936TIP3   OH272298   6.494   6.863  12.808  0.3860 -0.4215  0.0384
16936TIP3    H172299   6.440   6.815  12.745  0.8688 -1.1512  0.1668
16936TIP3    H272300   6.433   6.889  12.877  0.2260 -1.4200  0.2861
16937TIP3   OH272301   5.905   0.763   0.501  0.5167  0.2302 -0.2796
16937TIP3    H172302   5.944   0.847   0.527 -0.5506  0.4920  0.5332
16937TIP3    H272303   5.935   0.750   0.411  2.6727  0.2897  0.3729
16938TIP3   OH272304   3.886   0.227  16.512  0.3714  0.2824 -0.0532
16938TIP3    H172305   3.917   0.315  16.491 -2.2634  1.3073  0.0360
16938TIP3    H272306   3.963   0.183  16.548  1.7066  2.6280  0.1834
16939TIP3   OH272307   3.906   6.057   5.339  0.6056  0.0831  0.4634
16939TIP3    H172308   3.834   5.999   5.363  1.0407 -0.6235  0.0913
16939TIP3    H272309   3.966   6.053   5.413 -0.0216  1.1649  1.0510
16940TIP3   OH272310   0.020   0.412   4.773  0.6248  0.6703 -0.3955
16940TIP3    H172311   0.044   0.321   4.789  1.1407  1.0355  1.0962
16940TIP3    H272312  -0.073   0.417   4.796  0.2740  0.2933 -1.6220
16941TIP3   OH272313   6.052   2.055   5.062 -0.3338  0.1632 -0.1537
16941TIP3    H172314   6.121   2.100   5.014 -0.8789 -0.6600 -1.7629
16941TIP3    H272315   5.994   2.125   5.092  1.5129  0.9571  1.9004
16942TIP3   OH272316   2.329   5.944  16.777 -0.1114  0.1828  0.3925
16942TIP3    H172317   2.410   5.900  16.801 -0.4778 -2.3966 -2.4575
16942TIP3    H272318   2.346   5.980  16.690 -1.3141  1.6377  0.7278
16943TIP3   OH272319   6.520   5.731   4.235 -0.3134  0.2145  0.3439
16943TIP3    H172320   6.444   5.736   4.177  0.3161 -0.9962 -0.6210
16943TIP3    H272321   6.594   5.757   4.180  0.0795  0.7666  1.1053
16944TIP3   OH272322   5.326   3.468  11.123 -0.6649 -0.3116 -0.0259
16944TIP3    H172323   5.381   3.450  11.046  1.9388  0.8195  1.4231
16944TIP3    H272324   5.290   3.383  11.147  0.1627 -1.0483 -1.2754
16945TIP3   OH272325   2.314   5.465   5.268 -0.0514 -0.0519  0.0826
16945TIP3    H172326   2.227   5.506   5.263 -1.2790 -2.0176  2.8915
16945TIP3    H272327   2.298   5.378   5.303  2.8198 -1.6861 -2.2281
16946TIP3   OH272328   0.972   5.351   2.633  0.1476  0.0617 -0.1056
16946TIP3    H172329   0.910   5.387   2.571 -0.3347  0.3980  0.5540
16946TIP3    H272330   1.052   5.402   2.619 -0.0186  0.2704 -0.3140
16947TIP3   OH272331   4.796   0.220   4.306 -0.7884  0.2288 -0.2765
16947TIP3    H172332   4.773   0.235   4.214  2.9683 -1.8008 -1.7307
16947TIP3    H272333   4.791   0.125   4.317 -0.3855  0.3698  1.4068
16948TIP3   OH272334   1.070   6.485   0.825 -0.2599  0.1785 -0.0618
16948TIP3    H172335   1.146   6.542   0.840 -0.3300  0.9298 -2.1901
16948TIP3    H272336   0.997   6.533   0.863 -0.1831  1.1881 -1.1077
16949TIP3   OH272337   1.815   5.990   1.165  0.2082 -0.2382  0.1743
16949TIP3    H172338   1.865   5.914   1.195 -1.2062 -1.2612  0.0125
16949TIP3    H272339   1.873   6.033   1.103  0.7774 -1.5832 -0.2615
16950TIP3   OH272340   0.306   5.033   4.580 -0.0675  0.0611 -0.1800
16950TIP3    H172341   0.260   5.021   4.663 -1.5902 -0.6933 -1.0933
16950TIP3    H272342   0.365   4.958   4.573 -0.6975 -0.4385 -0.2410
16951TIP3   OH272343   5.475   1.413  10.664  0.0329  0.3294 -0.2201
16951TIP3    H172344   5.487   1.418  10.758 -1.2319  0.3697 -0.0478
16951TIP3    H272345   5.489   1.503  10.633 -1.2313  0.6763  0.1593
16952TIP3   OH272346   5.887   4.709   0.232 -0.5007 -0.0632  0.1520
16952TIP3    H172347   5.915   4.661   0.154 -1.0292  0.0243 -0.0953
16952TIP3    H272348   5.814   4.763   0.203  0.6037  1.5666  0.2183
16953TIP3   OH272349   1.430   3.785  16.571 -0.4259 -0.3932 -0.1545
16953TIP3    H172350   1.513   3.736  16.574  0.9349  1.7983 -0.0140
16953TIP3    H272351   1.438   3.851  16.640 -2.1663  0.1026 -0.3697
16954TIP3   OH272352   1.554   1.983   2.287  0.1353  0.0756  0.5542
16954TIP3    H172353   1.546   1.985   2.192  0.0836 -1.6548  0.4779
16954TIP3    H272354   1.470   2.016   2.319 -0.1726 -0.1401 -0.0136
16955TIP3   OH272355   1.684   1.494  16.474  0.3530 -0.0345 -0.3850
16955TIP3    H172356   1.730   1.494  16.558 -2.2418 -2.3092  1.2186
16955TIP3    H272357   1.621   1.566  16.482 -1.3729 -1.5676  0.6525
16956TIP3   OH272358   0.460   4.459  14.089  0.5181 -0.6864  0.8125
16956TIP3    H172359   0.484   4.550  14.104 -0.4480 -0.5780  1.8278
16956TIP3    H272360   0.455   4.420  14.176  0.8058 -1.6964  0.4008
16957TIP3   OH272361   6.598   3.209   4.938  0.1966 -0.6003 -0.1438
16957TIP3    H172362   6.594   3.148   5.011  0.1719  0.8002  1.0595
16957TIP3    H272363   6.686   3.198   4.902  0.0077 -1.7207 -0.3128
16958TIP3   OH272364   0.106   1.660   3.754  0.0461  0.6675 -0.4263
16958TIP3    H172365   0.062   1.744   3.738  1.2088  1.7166  1.4113
16958TIP3    H272366   0.199   1.682   3.755  0.4470 -0.8962 -1.0912
16959TIP3   OH272367   6.055   2.555  16.943 -0.5237  0.5559 -0.1395
16959TIP3    H172368   5.984   2.499  16.975  0.0202 -0.8334 -1.2379
16959TIP3    H272369   6.017   2.642  16.937 -1.9852 -0.0661 -0.2120
16960TIP3   OH272370   0.136   6.388   0.325  0.2178 -0.5034  0.2000
16960TIP3    H172371   0.068   6.401   0.259  0.5607 -3.5157 -0.9250
16960TIP3    H272372   0.097   6.327   0.388  1.5471 -1.6517 -0.0379
16961TIP3   OH272373   5.281   3.367   0.887 -0.1500 -0.2702 -0.4807
16961TIP3    H172374   5.248   3.454   0.862 -2.8533 -1.1726 -0.4358
16961TIP3    H272375   5.327   3.336   0.809 -1.4270  0.2019 -1.4605
16962TIP3   OH272376   1.206   1.214  14.149 -0.0642  0.1999  0.0725
16962TIP3    H172377   1.246   1.212  14.235 -1.0250 -0.6027  0.5174
16962TIP3    H272378   1.267   1.265  14.095  1.3186 -0.6095  0.8249
16963TIP3   OH272379   3.883   5.434  10.352 -0.5782 -0.2182 -0.0417
16963TIP3    H172380   3.849   5.519  10.382 -0.4016 -0.0527 -0.3040
16963TIP3    H272381   3.919   5.394  10.431  0.6402  0.5685 -0.1671
16964TIP3   OH272382   2.346   2.578  10.497  0.2448  0.5012 -0.2495
16964TIP3    H172383   2.305   2.614  10.575  1.5852  1.2613  0.1279
16964TIP3    H272384   2.338   2.647  10.431  0.9552  0.6693 -0.1595
16965TIP3   OH272385   6.222   6.866   3.329  0.2520 -0.2828  0.3964
16965TIP3    H172386   6.162   6.861   3.255  0.3161  0.9296  0.2514
16965TIP3    H272387   6.164   6.862   3.406 -0.0497  0.9788  0.2569
16966TIP3   OH272388   6.869   2.099  11.794  0.3540 -0.4412 -0.2848
16966TIP3    H172389   6.901   2.008  11.798 -1.2217 -1.1493 -2.2674
16966TIP3    H272390   6.947   2.151  11.774  1.4811 -1.1665  1.8845
16967TIP3   OH272391   0.622   0.681   1.592  0.1443 -0.3062  0.0342
16967TIP3    H172392   0.668   0.621   1.533  0.7633  0.6007 -0.4271
16967TIP3    H272393   0.679   0.758   1.597 -0.9575  0.5277  0.0659
16968TIP3   OH272394   2.719   3.318  14.794 -0.5305  0.2897  0.1119
16968TIP3    H172395   2.683   3.362  14.871 -0.5074 -0.0195  0.2983
16968TIP3    H272396   2.681   3.365  14.720 -0.6508  0.5066  0.3113
16969TIP3   OH272397   4.243   0.087  14.755  0.2946  0.1973 -0.2738
16969TIP3    H172398   4.336   0.111  14.758  0.1593  0.7885 -0.6359
16969TIP3    H272399   4.204   0.136  14.828  0.3295 -0.3735  0.1404
16970TIP3   OH272400   6.370   0.704   6.047  0.9104  0.0649 -0.5570
16970TIP3    H172401   6.416   0.768   5.992  1.1290 -1.1058 -1.7952
16970TIP3    H272402   6.439   0.662   6.097  1.1385 -1.1792 -1.8720
16971TIP3   OH272403   4.565   2.578  11.020  0.3685  0.3731  0.0766
16971TIP3    H172404   4.577   2.662  10.976  0.2294  0.0316 -0.6352
16971TIP3    H272405   4.498   2.533  10.968  0.1170 -0.0040  0.7071
16972TIP3   OH272406   3.725   2.664  14.661 -0.5820 -0.7409  0.0954
16972TIP3    H172407   3.694   2.657  14.751 -1.4073 -1.9266 -0.2524
16972TIP3    H272408   3.818   2.685  14.669 -0.3161 -2.1933  1.2720
16973TIP3   OH272409   3.720   0.545  15.139  0.3491  0.1334  0.8149
16973TIP3    H172410   3.721   0.465  15.192 -1.1510  1.1531  2.5141
16973TIP3    H272411   3.640   0.537  15.087  1.8682 -0.9151 -1.5408
16974TIP3   OH272412   0.300   2.213  13.946  0.0922  0.1935  0.0469
16974TIP3    H172413   0.303   2.119  13.928 -2.0811  0.3887 -1.7658
16974TIP3    H272414   0.241   2.222  14.021  0.5009  0.1158  0.3825
16975TIP3   OH272415   3.116   4.465   1.751  0.1166  0.4356 -0.0345
16975TIP3    H172416   3.031   4.444   1.788 -0.6123  3.1499  0.0012
16975TIP3    H272417   3.155   4.527   1.813  1.4002  0.5310 -0.8877
16976TIP3   OH272418   2.829   6.263  11.120  0.0783  0.0466 -0.7176
16976TIP3    H172419   2.830   6.279  11.026  2.6567 -0.1705 -0.7877
16976TIP3    H272420   2.737   6.275  11.145 -0.6527  0.2286 -3.2087
16977TIP3   OH272421   3.006   0.126   0.476  0.1560  0.0990  0.0860
16977TIP3    H172422   3.101   0.120   0.480  0.1322 -0.1783  0.2219
16977TIP3    H272423   2.975   0.036   0.486 -0.1078  0.1327 -0.3979
16978TIP3   OH272424   5.639   4.471   5.767  0.0451 -0.1130  0.4360
16978TIP3    H172425   5.664   4.501   5.680  1.9072 -1.7819  0.3124
16978TIP3    H272426   5.603   4.548   5.811  3.6399  2.1095 -0.1242
16979TIP3   OH272427   4.831   4.053   4.748  0.0010 -0.0554  0.0584
16979TIP3    H172428   4.843   3.987   4.679  1.2359 -1.8738  1.9253
16979TIP3    H272429   4.913   4.053   4.797 -0.6361  1.5954  1.2319
16980TIP3   OH272430   2.769   4.402   3.406 -0.1296  0.1603  0.4919
16980TIP3    H172431   2.781   4.490   3.370  0.5508  0.2148  0.8497
16980TIP3    H272432   2.706   4.413   3.477 -1.8699 -0.0188 -0.9411
16981TIP3   OH272433   0.627   3.183   2.158  0.0361  0.0371 -0.4921
16981TIP3    H172434   0.612   3.153   2.068  0.9316  0.2087 -0.7071
16981TIP3    H272435   0.691   3.253   2.150  0.5971 -0.3607  0.3308
16982TIP3   OH272436   6.162   2.379   3.509 -0.3165 -0.0291 -0.6914
16982TIP3    H172437   6.096   2.393   3.441 -0.7423 -2.2734 -0.8074
16982TIP3    H272438   6.236   2.432   3.482 -0.7495 -0.2929 -2.5174
16983TIP3   OH272439   3.351   5.063  12.343 -0.2208  0.3757 -0.2753
16983TIP3    H172440   3.372   4.977  12.307  0.8364  0.1896  0.7314
16983TIP3    H272441   3.433   5.112  12.336 -0.9959  1.5868 -1.5360
16984TIP3   OH272442   0.969   5.848   0.518 -0.2917  0.1966  0.6673
16984TIP3    H172443   0.941   5.765   0.556  0.1881  0.3921  1.4828
16984TIP3    H272444   1.049   5.871   0.566  1.6984 -0.6525 -1.9877
16985TIP3   OH272445   5.080   1.808   5.236 -0.1395 -0.2981  0.7746
16985TIP3    H172446   5.122   1.825   5.320 -0.6879  2.3950  0.6042
16985TIP3    H272447   4.995   1.854   5.242 -1.1094 -1.8212 -0.4920
16986TIP3   OH272448   2.840   4.553   1.195  0.3823 -0.6423 -0.0533
16986TIP3    H172449   2.926   4.524   1.165 -0.1987 -2.3880 -0.1301
16986TIP3    H272450   2.787   4.557   1.116  0.0968 -0.6776  0.1365
16987TIP3   OH272451   1.296   4.804   6.707 -0.3558  0.0253  0.1147
16987TIP3    H172452   1.224   4.853   6.747 -1.3906 -1.0393 -0.3758
16987TIP3    H272453   1.311   4.846   6.623  0.0650  0.6683  0.5059
16988TIP3   OH272454   4.006   0.466  12.647 -0.5332 -0.3224 -0.5808
16988TIP3    H172455   4.025   0.373  12.646 -0.0159 -0.2218 -0.8425
16988TIP3    H272456   3.960   0.481  12.729  0.1086 -0.6674 -0.1476
16989TIP3   OH272457   4.195   6.240   0.338  0.1196  0.2942  0.1380
16989TIP3    H172458   4.203   6.150   0.304  2.3187 -0.2320  1.8313
16989TIP3    H272459   4.105   6.244   0.372 -0.8728 -0.3746 -2.1444
16990TIP3   OH272460   1.147   2.468  11.472  0.0818  0.1535 -0.2303
16990TIP3    H172461   1.088   2.476  11.547  0.5933  0.3269  0.1602
16990TIP3    H272462   1.202   2.393  11.494 -0.2363 -0.2433 -0.7680
16991TIP3   OH272463   6.197   2.413  12.792  0.0103  0.0006  0.2368
16991TIP3    H172464   6.134   2.440  12.725  0.3101  0.2064  0.0366
16991TIP3    H272465   6.190   2.480  12.860  0.4248  0.3409 -0.0507
16992TIP3   OH272466   0.038   5.931  11.219  0.3316  0.0848  0.1048
16992TIP3    H172467   0.036   5.993  11.146  1.1635  1.9732  1.5683
16992TIP3    H272468  -0.050   5.933  11.255  0.6244  1.3740  0.8270
16993TIP3   OH272469   2.561   6.294   0.278  0.0200 -0.5820  0.1939
16993TIP3    H172470   2.540   6.343   0.358 -0.7570 -0.9790  0.2465
16993TIP3    H272471   2.653   6.313   0.262  0.3065 -0.8022  1.4189
16994TIP3   OH272472   0.029   6.070   5.202  0.4036  0.5145  0.4719
16994TIP3    H172473   0.077   6.044   5.124 -0.8753 -0.1118 -0.1392
16994TIP3    H272474   0.091   6.124   5.252  1.7484 -0.3402 -0.2230
16995TIP3   OH272475   3.760   3.036   5.331 -0.6778  0.1951 -0.2317
16995TIP3    H172476   3.757   3.072   5.420  1.7560 -1.1865  0.4879
16995TIP3    H272477   3.761   3.113   5.274 -0.1307  1.1690  1.0418
16996TIP3   OH272478   5.399   1.616   5.524 -0.0162  0.2574 -0.2281
16996TIP3    H172479   5.482   1.662   5.540 -0.5101  1.2753 -0.5186
16996TIP3    H272480   5.414   1.527   5.557  0.4306  1.0522  1.8554
16997TIP3   OH272481   0.542   0.893  14.221 -0.0044  0.8160 -0.7060
16997TIP3    H172482   0.482   0.962  14.194 -0.5214  0.6586 -0.0151
16997TIP3    H272483   0.490   0.812  14.212  0.2522  0.6314 -0.5361
16998TIP3   OH272484   4.192   2.128  10.801  0.3680 -0.0414 -0.0849
16998TIP3    H172485   4.146   2.051  10.767 -1.0678  1.1185 -0.8903
16998TIP3    H272486   4.227   2.171  10.723  0.7007  0.4039  0.3066
16999TIP3   OH272487   0.834   6.412  12.569  0.0783 -0.2417  0.3249
16999TIP3    H172488   0.811   6.343  12.507 -2.3387  0.2034  0.6169
16999TIP3    H272489   0.930   6.412  12.570  0.1880 -1.4107 -2.0738
17000TIP3   OH272490   2.109   0.731  15.405 -0.3019 -0.0725 -0.4003
17000TIP3    H172491   2.089   0.818  15.439 -0.1874  0.1615 -0.9229
17000TIP3    H272492   2.054   0.672  15.456  1.7406 -0.0371  1.9989
17001TIP3   OH272493   2.137   2.758  12.413 -0.2441  0.1314  0.1349
17001TIP3    H172494   2.047   2.773  12.444  0.2837 -1.2025  2.5493
17001TIP3    H272495   2.188   2.828  12.454 -0.0919  0.6806 -0.9563
17002TIP3   OH272496   6.759   4.318   1.105 -0.0595  0.4217 -0.4701
17002TIP3    H172497   6.822   4.344   1.036  0.7303 -0.2872 -0.0339
17002TIP3    H272498   6.720   4.401   1.133  3.1632  1.4469  1.6406
17003TIP3   OH272499   6.759   3.794   4.911  0.1361 -0.1310 -0.3683
17003TIP3    H172500   6.809   3.762   4.836 -0.1602 -0.1965 -0.5407
17003TIP3    H272501   6.681   3.739   4.913  0.3877 -0.4664  0.3001
17004TIP3   OH272502   4.186   4.452   4.517 -0.1280 -0.7070  0.2371
17004TIP3    H172503   4.250   4.523   4.517 -0.1415 -0.6423 -1.4612
17004TIP3    H272504   4.234   4.377   4.481 -0.6730 -0.9635  0.0368
17005TIP3   OH272505   6.686   5.976   0.359  1.1527 -0.3194  0.0391
17005TIP3    H172506   6.617   6.020   0.309  1.0831 -1.5611 -1.0149
17005TIP3    H272507   6.739   5.932   0.292  1.5739 -1.3262  1.0181
17006TIP3   OH272508   2.732   3.735   4.034  0.3204 -0.5388 -0.3437
17006TIP3    H172509   2.740   3.805   3.969 -0.7477  1.9058  1.9826
17006TIP3    H272510   2.776   3.769   4.112 -0.4579 -2.3618  0.9627
17007TIP3   OH272511   1.969   0.165  15.432 -0.1573  0.0857  0.0721
17007TIP3    H172512   2.044   0.134  15.483  0.9378 -1.3889 -2.2670
17007TIP3    H272513   2.006   0.232  15.374 -1.3680  1.7233  1.1253
17008TIP3   OH272514   2.747   6.035   0.384  0.2964  0.3745  0.4898
17008TIP3    H172515   2.678   5.969   0.384 -0.7223  1.4084  0.8054
17008TIP3    H272516   2.774   6.041   0.476 -0.1474  0.9154  0.5931
17009TIP3   OH272517   6.698   5.354   4.421 -0.7026 -0.7577 -0.5636
17009TIP3    H172518   6.693   5.385   4.331  2.5041 -1.5306 -1.1197
17009TIP3    H272519   6.710   5.433   4.474  0.6408 -0.5186 -1.2013
17010TIP3   OH272520   4.957   0.456   1.001 -0.0320 -0.2566  0.3657
17010TIP3    H172521   4.865   0.484   0.998  0.0083  0.0420  1.4581
17010TIP3    H272522   4.979   0.459   1.094  1.3158  0.4199  0.0468
17011TIP3   OH272523   2.709   2.170  16.444  0.3074 -0.0386  0.1538
17011TIP3    H172524   2.695   2.081  16.476  0.7275  0.5850  2.2036
17011TIP3    H272525   2.621   2.204  16.427  0.1314 -0.7123 -0.3264
17012TIP3   OH272526   3.221   2.861  16.710  0.3173 -0.7527 -0.0553
17012TIP3    H172527   3.165   2.785  16.726 -1.0784  0.5182  1.3527
17012TIP3    H272528   3.161   2.932  16.687  1.3458  0.5903  1.1932
17013TIP3   OH272529   6.852   0.209  14.407 -0.2702 -0.3905  0.5483
17013TIP3    H172530   6.890   0.195  14.493 -1.1675  0.9335  1.2040
17013TIP3    H272531   6.804   0.292  14.415 -1.1849 -0.7249 -0.9397
17014TIP3   OH272532   2.058   4.651  11.678 -0.5043 -0.0749  0.2112
17014TIP3    H172533   2.143   4.693  11.665 -0.5077 -0.2875 -0.5136
17014TIP3    H272534   2.028   4.629  11.590  0.8048 -4.2093  0.6179
17015TIP3   OH272535   2.184   1.055   2.601 -0.3162 -0.0957  0.0977
17015TIP3    H172536   2.250   1.097   2.545  0.1192 -3.3425 -2.1509
17015TIP3    H272537   2.100   1.083   2.564 -0.0871  0.2426 -0.1778
17016TIP3   OH272538   5.507   2.776  16.755 -0.1442  0.2709  0.0958
17016TIP3    H172539   5.471   2.820  16.678 -0.9268 -0.1227  0.2265
17016TIP3    H272540   5.499   2.683  16.735  2.0114  0.1348 -0.4195
17017TIP3   OH272541   2.365   3.932   0.277 -0.3687  0.4442 -0.2307
17017TIP3    H172542   2.458   3.955   0.275 -0.4659  0.8666  0.1639
17017TIP3    H272543   2.320   4.005   0.235 -0.5302  0.2800 -0.3463
17018TIP3   OH272544   0.045   5.374  10.231  0.2271 -0.1766 -0.3472
17018TIP3    H172545   0.131   5.409  10.209  0.1453 -0.1471 -0.6220
17018TIP3    H272546   0.061   5.312  10.302  0.3289  0.7110  0.4211
17019TIP3   OH272547   6.524   6.495  10.683  0.1419  0.0644  0.1522
17019TIP3    H172548   6.593   6.435  10.710 -0.4209 -0.5109  0.3446
17019TIP3    H272549   6.508   6.474  10.591  0.7473  0.7290 -0.1174
17020TIP3   OH272550   1.926   4.196   4.736 -0.1164  0.0706  0.5612
17020TIP3    H172551   1.877   4.176   4.816 -0.9599  2.7112  0.8360
17020TIP3    H272552   2.009   4.232   4.767 -0.7223  1.7594  0.3375
17021TIP3   OH272553   2.580   3.238   5.448 -0.1088 -0.4593 -0.1054
17021TIP3    H172554   2.506   3.251   5.389 -2.1593 -0.8505  2.1978
17021TIP3    H272555   2.640   3.310   5.428 -1.3434  0.1672 -1.7356
17022TIP3   OH272556   6.873   2.104   5.527 -0.0328 -0.0578  0.1174
17022TIP3    H172557   6.850   2.016   5.498 -4.9506  0.3695  1.8167
17022TIP3    H272558   6.870   2.099   5.622 -1.1872  2.0295  0.2393
17023TIP3   OH272559   2.059   0.607   3.549 -0.0981 -0.2320 -0.2200
17023TIP3    H172560   2.092   0.569   3.630 -1.6636  0.5103  0.8187
17023TIP3    H272561   1.999   0.540   3.514 -1.2257  0.3678  0.5003
17024TIP3   OH272562   5.770   3.922  13.960 -0.2488 -0.2100 -0.0325
17024TIP3    H172563   5.844   3.973  13.928 -0.4842  0.1117 -0.0667
17024TIP3    H272564   5.756   3.953  14.049 -0.6981  0.1299 -0.2178
17025TIP3   OH272565   4.066   5.446  10.028 -0.4127 -0.3265  0.7241
17025TIP3    H172566   3.972   5.465  10.023 -0.0588  1.2817 -1.2716
17025TIP3    H272567   4.071   5.351  10.020 -1.8437 -0.3549 -0.3822
17026TIP3   OH272568   5.024   0.614  14.481 -0.3588  0.9592 -0.1179
17026TIP3    H172569   5.069   0.633  14.399 -0.9245 -0.0628 -0.6826
17026TIP3    H272570   5.093   0.583  14.540  0.0911  1.9490 -0.1090
17027TIP3   OH272571   6.814   2.281   1.138 -0.4326  0.3653  0.0442
17027TIP3    H172572   6.892   2.248   1.183 -1.5241 -0.7355  1.2113
17027TIP3    H272573   6.757   2.205   1.131 -1.5166  1.2123 -0.5452
17028TIP3   OH272574   3.932   5.113   1.901 -0.2190  0.3223  0.0346
17028TIP3    H172575   3.956   5.031   1.945  0.5683  0.8934  0.6840
17028TIP3    H272576   3.911   5.086   1.811 -1.1966 -0.7618  0.5494
17029TIP3   OH272577   1.401   1.425  16.037  0.6528 -0.3637 -0.5732
17029TIP3    H172578   1.333   1.366  16.071 -0.0435  0.7842  0.0973
17029TIP3    H272579   1.429   1.475  16.114 -0.8910  2.2528 -1.6059
17030TIP3   OH272580   5.848   5.739   1.569 -0.4630 -0.4628  0.0573
17030TIP3    H172581   5.856   5.834   1.566  0.0245 -0.4515  1.1766
17030TIP3    H272582   5.808   5.715   1.485  0.1178  0.6503 -0.5552
17031TIP3   OH272583   0.587   0.278  12.652  0.5833 -0.4252  0.1313
17031TIP3    H172584   0.527   0.226  12.600 -0.2538 -0.0005  0.6539
17031TIP3    H272585   0.547   0.365  12.656  1.6335  0.0933 -0.1841
17032TIP3   OH272586   3.849   1.288   1.977 -0.4911 -0.2744 -0.4853
17032TIP3    H172587   3.884   1.200   1.990 -0.5422 -0.2261  0.0401
17032TIP3    H272588   3.759   1.283   2.011 -0.1504  0.2391  0.5596
17033TIP3   OH272589   5.289   2.161  13.126 -0.7808 -0.1099  0.0673
17033TIP3    H172590   5.333   2.187  13.207  1.1669  0.4832 -1.1001
17033TIP3    H272591   5.269   2.068  13.137 -1.0005  0.0783  1.3915
17034TIP3   OH272592   6.200   4.181   2.330 -0.3068 -0.0116  0.3756
17034TIP3    H172593   6.257   4.115   2.370 -1.3907 -1.0259  0.2800
17034TIP3    H272594   6.116   4.136   2.318 -0.1991  0.4043 -2.5467
17035TIP3   OH272595   5.301   5.850   5.960 -0.3224  0.2861 -0.4253
17035TIP3    H172596   5.379   5.857   5.906  0.0427 -0.7308 -0.0550
17035TIP3    H272597   5.334   5.828   6.047 -1.0007  0.1948 -0.1860
17036TIP3   OH272598   5.365   4.554   3.138 -0.5735  0.3371  0.1196
17036TIP3    H172599   5.414   4.595   3.210 -0.0465  1.1360 -0.6799
17036TIP3    H272600   5.276   4.546   3.172  0.0104 -0.8794  1.4972
17037TIP3   OH272601   5.085   5.040  10.066  0.0650 -0.1398 -0.4811
17037TIP3    H172602   5.169   4.994  10.068  1.4353  2.0291  3.0366
17037TIP3    H272603   5.027   4.987  10.121  1.5112  1.7487  3.2036
17038TIP3   OH272604   3.015   2.964  13.113 -0.4323  0.3469  0.4188
17038TIP3    H172605   2.933   3.006  13.085 -0.3080  0.7741  0.6850
17038TIP3    H272606   3.012   2.877  13.073 -0.9475  0.4132  0.3012
17039TIP3   OH272607   4.234   3.797  16.335 -0.4689 -0.1061 -0.3349
17039TIP3    H172608   4.226   3.761  16.247  0.1826 -2.7725  0.5967
17039TIP3    H272609   4.259   3.723  16.390  0.6048  1.7292  1.8765
17040TIP3   OH272610   6.834   5.870  12.933  0.0405 -0.1858  0.2054
17040TIP3    H172611   6.861   5.797  12.989 -0.4623  0.8418  1.8719
17040TIP3    H272612   6.751   5.841  12.894  0.8310 -1.2603 -0.7602
17041TIP3   OH272613   1.217   6.173  16.475 -0.4052 -0.3632  0.2288
17041TIP3    H172614   1.185   6.164  16.385 -0.1478 -1.8206  0.2535
17041TIP3    H272615   1.144   6.213  16.523 -0.9982 -0.7034 -0.3772
17042TIP3   OH272616   5.738   5.633   3.925  0.1667 -0.1100 -0.0011
17042TIP3    H172617   5.738   5.566   3.857  0.7116 -0.7620  0.6262
17042TIP3    H272618   5.773   5.589   4.002 -0.6246  0.5568  0.7624
17043TIP3   OH272619   3.412   2.293  16.301 -0.1978  0.2805  0.1230
17043TIP3    H172620   3.343   2.234  16.332  0.2423  0.3404  1.2628
17043TIP3    H272621   3.463   2.314  16.379 -0.2135  2.0164 -0.2891
17044TIP3   OH272622   4.707   0.358   4.760  0.3637  0.1571  0.4079
17044TIP3    H172623   4.729   0.417   4.833  0.4300 -0.7240  1.1186
17044TIP3    H272624   4.790   0.317   4.736 -0.1843 -2.2861  2.3059
17045TIP3   OH272625   6.240   3.921  16.223  0.5776 -0.2585 -0.4326
17045TIP3    H172626   6.221   3.974  16.301  0.0282 -2.5045  1.0641
17045TIP3    H272627   6.155   3.911  16.180  0.2821 -1.5664  0.4191
17046TIP3   OH272628   3.335   3.878   1.838  0.4705  0.0679 -0.1112
17046TIP3    H172629   3.430   3.873   1.840  0.5816  1.7367 -0.4163
17046TIP3    H272630   3.306   3.788   1.856  2.0907 -0.9156 -2.1338
17047TIP3   OH272631   3.105   5.206   5.669 -0.3036 -0.1611 -0.3660
17047TIP3    H172632   3.059   5.273   5.720 -0.0115  1.4599 -2.1326
17047TIP3    H272633   3.180   5.182   5.723 -0.2886  1.1076  0.2109
17048TIP3   OH272634   3.493   6.535   6.369  0.4780  0.7749  0.2740
17048TIP3    H172635   3.470   6.465   6.308  0.2856  1.7750 -0.8376
17048TIP3    H272636   3.589   6.542   6.363  0.5957  0.0270  1.0657
17049TIP3   OH272637   5.190   1.985   3.647 -0.6132 -0.3654  0.1037
17049TIP3    H172638   5.149   1.907   3.684 -0.7474  0.5767  2.0401
17049TIP3    H272639   5.283   1.961   3.638 -0.8359 -1.0891 -0.3000
17050TIP3   OH272640   2.123   6.007   5.123  0.0147 -0.1802 -0.0284
17050TIP3    H172641   2.092   5.928   5.079  0.3272 -0.9693  1.1333
17050TIP3    H272642   2.048   6.067   5.120 -0.7294 -1.0665  0.3942
17051TIP3   OH272643   6.555   6.102   2.705  0.4344  0.7329  0.4339
17051TIP3    H172644   6.609   6.030   2.737 -1.8117 -0.9666  0.6595
17051TIP3    H272645   6.490   6.115   2.774 -3.1263 -1.4645 -2.2023
17052TIP3   OH272646   6.854   0.532   3.126  0.1781  0.1763  0.3209
17052TIP3    H172647   6.923   0.531   3.059  0.4218  1.3959  0.5367
17052TIP3    H272648   6.775   0.557   3.078  0.1013 -0.1585  0.2707
17053TIP3   OH272649   6.108   5.335   3.620  0.4866  0.8400  0.5650
17053TIP3    H172650   6.194   5.330   3.578  0.8388  2.8214  0.9459
17053TIP3    H272651   6.125   5.376   3.705 -0.7186  0.3420  1.0699
17054TIP3   OH272652   3.303   2.915   5.457  0.5631 -0.0380  0.3273
17054TIP3    H172653   3.268   2.872   5.535 -1.2519  1.0946  0.2015
17054TIP3    H272654   3.227   2.957   5.417  0.4779 -3.5711 -4.1310
17055TIP3   OH272655   5.096   6.417  14.630  0.0629 -0.1996 -0.1129
17055TIP3    H172656   5.111   6.393  14.721  2.3094 -0.4514 -0.4745
17055TIP3    H272657   5.013   6.465  14.630 -1.4862 -2.7135  1.5489
17056TIP3   OH272658   1.877   1.434   5.749 -0.6499 -0.4374 -0.1731
17056TIP3    H172659   1.965   1.416   5.718  0.1162  2.4663 -0.0241
17056TIP3    H272660   1.859   1.524   5.720 -3.0686 -0.4807  0.8843
17057TIP3   OH272661   4.269   4.972   3.709  0.6322  0.7057 -0.1493
17057TIP3    H172662   4.229   4.949   3.626  1.5128  0.7398 -0.5971
17057TIP3    H272663   4.258   4.894   3.763  0.0809  0.6738 -0.3022
17058TIP3   OH272664   6.068   6.458   3.123  0.0387  0.2976 -0.1165
17058TIP3    H172665   6.013   6.380   3.115  0.3457  0.1310 -0.6655
17058TIP3    H272666   6.007   6.531   3.118 -0.1362  0.1167 -0.8135
17059TIP3   OH272667   0.605   5.864   5.355  0.1263  0.1661  0.1952
17059TIP3    H172668   0.614   5.786   5.300  0.3893  1.2651 -1.3679
17059TIP3    H272669   0.539   5.917   5.311 -0.4466  0.6052  1.5343
17060TIP3   OH272670   5.977   6.312  12.618  0.6193  0.5052  0.1695
17060TIP3    H172671   6.002   6.398  12.586  1.8182  0.2650  0.4409
17060TIP3    H272672   5.985   6.255  12.542  2.0913  0.2057  0.5227
17061TIP3   OH272673   2.063   4.511  16.687  0.3997 -0.4426 -0.3339
17061TIP3    H172674   1.972   4.485  16.676  0.2197  0.6774 -1.8584
17061TIP3    H272675   2.113   4.429  16.677 -0.3296 -0.7577 -1.7046
17062TIP3   OH272676   5.866   1.122   0.242 -0.0556  0.0040 -0.2931
17062TIP3    H172677   5.934   1.060   0.214 -0.1869 -0.1706 -0.2252
17062TIP3    H272678   5.788   1.096   0.192 -0.5352 -0.8495  0.8403
17063TIP3   OH272679   6.635   5.027   0.192 -0.1844  0.2207 -0.3842
17063TIP3    H172680   6.633   5.034   0.287 -0.1634  0.9316 -0.4294
17063TIP3    H272681   6.635   5.118   0.161 -1.5166  0.0081 -1.0929
17064TIP3   OH272682   5.628   1.256   1.281 -0.4067 -0.0888 -0.1776
17064TIP3    H172683   5.563   1.287   1.218  0.4434 -0.2962 -1.1920
17064TIP3    H272684   5.630   1.323   1.349  0.5192  1.5040 -1.6920
17065TIP3   OH272685   3.748   0.630   4.610  0.2293  0.4918 -0.2391
17065TIP3    H172686   3.764   0.687   4.535  0.8360  1.0091  0.2693
17065TIP3    H272687   3.812   0.658   4.675  0.8654 -1.0807 -0.1396
17066TIP3   OH272688   1.215   3.602  11.494 -0.1538 -0.0124 -0.6621
17066TIP3    H172689   1.280   3.668  11.469 -2.0990  1.3671 -2.3755
17066TIP3    H272690   1.234   3.527  11.437 -0.9201  0.9426 -2.2294
17067TIP3   OH272691   4.847   6.079  16.544 -0.0702  0.0464  0.0118
17067TIP3    H172692   4.895   5.999  16.566 -0.2148 -0.1351 -0.3175
17067TIP3    H272693   4.899   6.121  16.475  0.4629  0.6933  0.7992
17068TIP3   OH272694   2.281   5.205  13.430  0.0909 -0.0839 -0.0549
17068TIP3    H172695   2.266   5.129  13.487  1.0321  0.1234  0.4904
17068TIP3    H272696   2.373   5.197  13.403  0.4981  1.3710  0.8019
17069TIP3   OH272697   2.844   4.936   4.823  0.2013  0.2545  0.3343
17069TIP3    H172698   2.913   5.001   4.830 -0.0152  0.4961  0.2638
17069TIP3    H272699   2.881   4.867   4.767  1.1441 -0.6478  2.0147
17070TIP3   OH272700   2.570   3.375  11.922  0.0957 -0.5010 -0.0064
17070TIP3    H172701   2.495   3.413  11.877 -0.4531 -2.2143 -0.6356
17070TIP3    H272702   2.639   3.441  11.915 -0.9894  0.6208 -0.4573
17071TIP3   OH272703   4.267   1.562  15.173  0.3716 -0.3824 -0.1357
17071TIP3    H172704   4.188   1.611  15.195  1.5478  1.0633  1.0685
17071TIP3    H272705   4.249   1.473  15.204 -0.3279  0.2128  1.2558
17072TIP3   OH272706   5.090   2.125   1.412 -0.4055 -0.2952  0.3505
17072TIP3    H172707   5.113   2.160   1.499  1.3797  1.5154 -0.7546
17072TIP3    H272708   5.175   2.100   1.374 -0.8720  0.8983 -1.6279
17073TIP3   OH272709   1.788   6.773   1.692  0.8894  0.4643  0.6617
17073TIP3    H172710   1.866   6.828   1.692  0.7350  0.6996  0.0766
17073TIP3    H272711   1.788   6.732   1.605  1.5781 -1.3013  1.4631
17074TIP3   OH272712   6.381   4.084   0.693 -0.8939 -0.8985 -0.5837
17074TIP3    H172713   6.412   4.076   0.603 -1.8082 -0.0248 -1.0009
17074TIP3    H272714   6.285   4.086   0.686 -0.9777  1.6134  0.1106
17075TIP3   OH272715   3.505   2.312   0.903 -0.0855  0.2325  0.1354
17075TIP3    H172716   3.442   2.330   0.973 -1.7526 -2.2353 -0.5966
17075TIP3    H272717   3.526   2.219   0.912  0.2670  0.0297 -2.1336
17076TIP3   OH272718   2.781   3.061   3.813  0.0200 -0.2999 -0.5849
17076TIP3    H172719   2.764   2.978   3.768  0.9017 -0.5609 -0.4456
17076TIP3    H272720   2.750   3.047   3.902 -2.4441  0.4668 -1.2340
17077TIP3   OH272721   5.580   0.644  16.562  0.2619  0.0068 -0.2786
17077TIP3    H172722   5.578   0.639  16.658  1.2576  0.5560 -0.2187
17077TIP3    H272723   5.605   0.734  16.543 -2.0573  0.5520 -1.1116
17078TIP3   OH272724   0.248   5.606   5.652 -0.0014  0.4101  0.6281
17078TIP3    H172725   0.343   5.613   5.654 -0.0188  1.1542 -0.3680
17078TIP3    H272726   0.230   5.530   5.597  0.0129  0.4672  0.5446
17079TIP3   OH272727   6.852   5.869  13.659 -0.4517  0.3278  0.0374
17079TIP3    H172728   6.774   5.845  13.709  0.4649  1.4538  2.1707
17079TIP3    H272729   6.830   5.953  13.619  0.0627  1.3760  1.8263
17080TIP3   OH272730   1.866   1.261   3.706 -0.3292  0.2156 -0.3294
17080TIP3    H172731   1.864   1.354   3.683 -2.1207  1.1244  2.9490
17080TIP3    H272732   1.939   1.253   3.767 -0.6747 -0.3535  0.0187
17081TIP3   OH272733   1.981   3.188   0.346 -0.0054 -0.4150 -0.6283
17081TIP3    H172734   2.062   3.230   0.376 -0.1305  0.7790 -1.8740
17081TIP3    H272735   1.943   3.250   0.284 -3.0536  0.1182  1.5410
17082TIP3   OH272736   4.952   6.784  11.720  0.4437 -0.3251 -0.3143
17082TIP3    H172737   4.866   6.754  11.751  0.6624 -0.8759 -0.2279
17082TIP3    H272738   5.013   6.717  11.751  0.9362  0.1784 -0.1815
17083TIP3   OH272739   3.364   5.036   1.011 -0.0795 -0.0103 -0.4230
17083TIP3    H172740   3.313   4.978   0.954  0.8450  0.0193 -1.3068
17083TIP3    H272741   3.415   4.976   1.066  0.1422 -0.0413 -0.6605
17084TIP3   OH272742   4.203   4.525   1.953 -0.2878  0.1308  0.0238
17084TIP3    H172743   4.198   4.430   1.963  2.2871 -0.1061 -0.2743
17084TIP3    H272744   4.289   4.548   1.989 -0.3617  2.1973 -0.9908
17085TIP3   OH272745   4.310   4.677  13.835 -0.4468  0.2821 -1.0248
17085TIP3    H172746   4.380   4.715  13.888 -0.2885 -0.0574 -0.9886
17085TIP3    H272747   4.316   4.583  13.850 -1.0392  0.2665 -0.8681
17086TIP3   OH272748   1.148   3.636  16.651  0.0817 -0.5084  0.3557
17086TIP3    H172749   1.224   3.668  16.601 -0.4963  0.7211  0.2269
17086TIP3    H272750   1.147   3.542  16.634 -0.8064 -0.0249 -3.0481
17087TIP3   OH272751   3.906   5.837   4.448 -0.3187 -0.1019 -0.2714
17087TIP3    H172752   3.835   5.879   4.399 -0.8127 -0.1378  0.3920
17087TIP3    H272753   3.975   5.823   4.383 -0.2242  1.5187 -0.5806
17088TIP3   OH272754   3.252   0.998  13.814 -0.2567 -0.5824 -0.5100
17088TIP3    H172755   3.255   0.914  13.860 -1.2366 -0.1577  0.3791
17088TIP3    H272756   3.280   0.978  13.725  0.1197 -1.7359 -0.1447
17089TIP3   OH272757   1.137   6.356   2.669  0.5850 -0.7952  0.4888
17089TIP3    H172758   1.180   6.344   2.584  1.0963  0.2897  0.5776
17089TIP3    H272759   1.098   6.443   2.664 -2.3376 -1.9906  0.1260
17090TIP3   OH272760   1.901   6.629  15.169 -0.2027 -0.0387 -0.3514
17090TIP3    H172761   1.951   6.557  15.130  0.4570 -0.2163  0.7684
17090TIP3    H272762   1.822   6.587  15.204 -1.1672  0.2337 -2.0734
17091TIP3   OH272763   3.622   4.235   4.681 -0.0003 -0.2258 -0.4581
17091TIP3    H172764   3.715   4.253   4.669  0.0640 -0.7750 -0.8261
17091TIP3    H272765   3.585   4.234   4.593 -0.2036 -0.7898 -0.3718
17092TIP3   OH272766   1.616   5.277  12.609 -0.3952 -0.2275  0.3165
17092TIP3    H172767   1.574   5.359  12.586 -0.1566 -0.3552 -0.6330
17092TIP3    H272768   1.682   5.301  12.674  0.3248  0.4961 -0.6481
17093TIP3   OH272769   0.659   5.093   4.400 -0.1240 -0.3736  0.1174
17093TIP3    H172770   0.603   5.016   4.393 -0.9223  0.1379  0.6915
17093TIP3    H272771   0.607   5.164   4.363  1.5011 -0.4786 -2.6385
17094TIP3   OH272772   0.207   4.277   3.119 -0.0097  0.4100 -0.1647
17094TIP3    H172773   0.175   4.214   3.054 -0.5698  2.3235 -1.8310
17094TIP3    H272774   0.157   4.256   3.198  0.1032 -1.4671 -0.5460
17095TIP3   OH272775   4.213   3.224   2.212 -0.3262  0.1443  0.1876
17095TIP3    H172776   4.225   3.241   2.119 -1.0778  0.9864  0.2282
17095TIP3    H272777   4.298   3.195   2.243  0.3675  1.4370 -0.4375
17096TIP3   OH272778   0.571   3.245   4.173  0.5261 -0.2191  0.5359
17096TIP3    H172779   0.556   3.335   4.144 -2.2063 -0.0648  2.0945
17096TIP3    H272780   0.538   3.191   4.102  4.7822 -0.2744 -1.7557
17097TIP3   OH272781   6.083   0.737  15.947  0.2960  0.0780  0.6256
17097TIP3    H172782   6.086   0.648  15.982 -0.4126 -0.0429  0.3822
17097TIP3    H272783   6.047   0.727  15.859 -0.4780  0.6834  0.8621
17098TIP3   OH272784   0.187   3.299  13.582 -0.2443  0.4667 -0.1525
17098TIP3    H172785   0.140   3.305  13.498 -1.7637 -2.1282  0.4284
17098TIP3    H272786   0.254   3.232  13.567  0.2468  0.8314  0.3852
17099TIP3   OH272787   1.440   1.972  13.575  0.3343 -0.4238  0.1239
17099TIP3    H172788   1.486   2.054  13.593 -0.6278 -0.0498  0.9340
17099TIP3    H272789   1.351   1.998  13.554  0.1980 -1.2193 -0.3194
17100TIP3   OH272790   5.192   4.393  15.843  0.0900  0.4254 -0.1294
17100TIP3    H172791   5.200   4.488  15.839  1.0108  0.3315 -1.0984
17100TIP3    H272792   5.099   4.377  15.859 -0.1852  1.4762 -0.5825
17101TIP3   OH272793   6.215   3.180  12.519 -0.0392 -0.3622  0.8471
17101TIP3    H172794   6.276   3.114  12.486 -0.8649 -0.9143  0.4115
17101TIP3    H272795   6.150   3.130  12.568 -1.7392 -0.1187 -1.0429
17102TIP3   OH272796   3.382   6.775  14.864 -0.6839  0.1785 -0.5753
17102TIP3    H172797   3.444   6.848  14.866 -0.9154  0.3685 -0.2243
17102TIP3    H272798   3.425   6.709  14.810 -0.2569  0.3787 -0.4844
17103TIP3   OH272799   4.061   4.153  12.459 -0.4805 -0.6792  0.1452
17103TIP3    H172800   4.154   4.134  12.448 -0.2480  0.3779  0.1766
17103TIP3    H272801   4.018   4.098  12.393  0.2133 -0.6914 -0.3126
17104TIP3   OH272802   2.526   0.668   1.452 -0.3930 -0.2521  0.1346
17104TIP3    H172803   2.528   0.733   1.383  0.2876  0.3932  0.7406
17104TIP3    H272804   2.615   0.665   1.485 -0.6241 -0.8165  0.7411
17105TIP3   OH272805   6.162   6.422   4.082 -0.6089  0.0974  0.0211
17105TIP3    H172806   6.203   6.491   4.030 -0.3642  0.5125  0.7508
17105TIP3    H272807   6.083   6.399   4.034  0.2748 -0.4675 -1.2375
17106TIP3   OH272808   3.621   2.520  15.097  0.2223 -0.3587 -0.1252
17106TIP3    H172809   3.707   2.560  15.081 -0.2407  0.3281 -0.9982
17106TIP3    H272810   3.615   2.514  15.192 -0.3889  3.3272  0.2450
17107TIP3   OH272811   5.803   0.736  13.476  0.3236 -0.0585 -0.1226
17107TIP3    H172812   5.897   0.751  13.487  0.2619  0.5322 -0.3771
17107TIP3    H272813   5.797   0.665  13.413  0.6019 -0.2096  0.0204
17108TIP3   OH272814   2.291   4.964  13.955  0.1617 -0.2281 -0.1764
17108TIP3    H172815   2.227   5.027  13.921  0.8264  0.1928 -0.6788
17108TIP3    H272816   2.254   4.935  14.038  1.0638  2.9005  1.5118
17109TIP3   OH272817   0.148   1.379   0.011  0.0960 -0.0208  0.2974
17109TIP3    H172818   0.189   1.416  -0.067 -0.9724  1.3217  0.3329
17109TIP3    H272819   0.094   1.307  -0.022 -1.1196  1.1525 -0.3650
17110TIP3   OH272820   6.682   4.106  12.421  0.3161  0.3640 -0.2551
17110TIP3    H172821   6.651   4.076  12.336 -0.2862 -2.4556  0.8245
17110TIP3    H272822   6.761   4.054  12.437  2.2380  3.0600 -0.3216
17111TIP3   OH272823   5.613   6.224  11.442 -0.5551 -0.3282  0.5988
17111TIP3    H172824   5.544   6.291  11.436 -1.4007 -1.0677  1.6948
17111TIP3    H272825   5.686   6.269  11.484 -1.7471 -0.4900  3.0196
17112TIP3   OH272826   4.092   5.822  10.684 -0.2643 -0.1250 -0.1062
17112TIP3    H172827   4.069   5.818  10.592 -0.8682 -1.8643  0.0894
17112TIP3    H272828   4.011   5.805  10.731 -0.4936  3.0019  0.8809
17113TIP3   OH272829   5.221   5.070  15.282 -0.1633 -0.3362 -0.4334
17113TIP3    H172830   5.176   4.987  15.268 -0.9660 -0.0458  0.3477
17113TIP3    H272831   5.159   5.123  15.332  0.0810  0.9783 -1.4658
17114TIP3   OH272832   3.420   1.200  14.490 -0.1536 -0.3332  0.1384
17114TIP3    H172833   3.464   1.245  14.563  0.7103 -1.0066  0.0642
17114TIP3    H272834   3.332   1.182  14.522 -0.4680  1.2550  0.2177
17115TIP3   OH272835   4.827   2.735  14.079 -0.5148 -0.2724 -0.2331
17115TIP3    H172836   4.761   2.668  14.098 -1.2381  0.8954  1.7077
17115TIP3    H272837   4.777   2.810  14.046  0.2249 -0.4358 -1.8254
17116TIP3   OH272838   4.034   2.100  14.819  0.1266 -0.4057 -0.5401
17116TIP3    H172839   4.059   2.016  14.781 -1.5607 -0.5051 -1.5182
17116TIP3    H272840   3.966   2.079  14.883  0.5747  0.1074  0.1255
17117TIP3   OH272841   3.092   2.031   6.504  0.0419  0.3332 -0.3526
17117TIP3    H172842   3.117   2.118   6.535 -0.0651 -0.2408  1.4663
17117TIP3    H272843   3.017   2.046   6.448  0.1036  1.4358 -0.1561
17118TIP3   OH272844   1.281   4.178  12.831  0.1699 -0.2498  0.0495
17118TIP3    H172845   1.321   4.265  12.825 -1.2565  0.4774  0.5355
17118TIP3    H272846   1.353   4.117  12.818  1.3781  0.9996  0.6377
17119TIP3   OH272847   0.931   2.664  10.609 -0.5888  0.0346 -0.0607
17119TIP3    H172848   0.963   2.709  10.530 -0.0520 -1.7904 -0.9421
17119TIP3    H272849   0.910   2.735  10.670 -0.4949  1.4928 -1.6336
17120TIP3   OH272850   1.532   3.722  14.125 -0.4181  0.2850 -0.5166
17120TIP3    H172851   1.446   3.764  14.118  0.3262  1.7164 -1.4673
17120TIP3    H272852   1.559   3.738  14.215 -0.7400  0.6447 -0.4822
17121TIP3   OH272853   5.823   2.980  14.646 -0.3551  0.0047 -0.1094
17121TIP3    H172854   5.832   3.074  14.631  1.8456  0.2645  2.2790
17121TIP3    H272855   5.872   2.940  14.574 -0.4609  0.6943 -0.5801
17122TIP3   OH272856   5.491   4.009  12.574  0.7789  0.6391 -0.3372
17122TIP3    H172857   5.582   3.991  12.597  0.0916  1.1268  3.2529
17122TIP3    H272858   5.453   3.922  12.559  1.1187  0.1564  1.4087
17123TIP3   OH272859   0.339   5.311  16.336  0.3560  0.3585 -0.4912
17123TIP3    H172860   0.292   5.387  16.299  0.3442  0.4970 -0.1943
17123TIP3    H272861   0.355   5.335  16.427 -0.1000 -0.2106 -0.2538
17124TIP3   OH272862   2.702   3.160   0.094  0.5787 -0.0199  0.1510
17124TIP3    H172863   2.629   3.207   0.055 -0.1033 -1.9507 -1.0534
17124TIP3    H272864   2.666   3.075   0.119  2.4299 -1.1768 -0.7977
17125TIP3   OH272865   2.368   6.386  14.080 -0.0159  0.3753 -0.5672
17125TIP3    H172866   2.453   6.344  14.064  0.7172  1.1179  1.1443
17125TIP3    H272867   2.342   6.356  14.167 -1.7594 -0.1907 -1.2272
17126TIP3   OH272868   6.878   6.255   4.573 -0.4953 -0.3587 -0.3312
17126TIP3    H172869   6.970   6.278   4.587 -0.3189 -0.9867 -0.4494
17126TIP3    H272870   6.863   6.179   4.628 -1.3416  0.5963  0.8021
17127TIP3   OH272871   3.213   3.419  12.323  0.3194 -0.3837 -0.2797
17127TIP3    H172872   3.297   3.461  12.308 -0.2179  0.8430  0.0505
17127TIP3    H272873   3.163   3.483  12.374 -0.7258 -1.1932 -0.2634
17128TIP3   OH272874   0.033   3.173   2.784 -0.0211 -0.2289  0.2358
17128TIP3    H172875  -0.019   3.251   2.765 -1.7741 -1.3560  0.2123
17128TIP3    H272876   0.116   3.189   2.740 -0.4569  1.4745 -0.0493
17129TIP3   OH272877   0.871   5.185   2.309  0.0992  0.7322 -0.5543
17129TIP3    H172878   0.821   5.227   2.239  0.7820  3.0701  0.2732
17129TIP3    H272879   0.963   5.204   2.287  0.3136  1.9107  1.1407
17130TIP3   OH272880   6.418   0.395  15.920 -0.1044  0.4016  0.5164
17130TIP3    H172881   6.327   0.421  15.934 -0.1702  1.6880 -1.9456
17130TIP3    H272882   6.460   0.471  15.880  1.3295 -1.1062 -1.0257
17131TIP3   OH272883   5.072   1.919   1.975  0.3699  0.6063 -0.3287
17131TIP3    H172884   5.008   1.866   2.023  1.1636 -1.4966 -1.4552
17131TIP3    H272885   5.091   1.868   1.896  1.7065  2.2890 -1.1650
17132TIP3   OH272886   6.590   4.999   1.304 -0.6152  0.1782 -0.7188
17132TIP3    H172887   6.572   5.027   1.394 -2.0174 -0.2420 -0.8447
17132TIP3    H272888   6.623   5.078   1.261 -0.3672  0.5001  0.0332
17133TIP3   OH272889   4.299   1.274  12.597  0.3990  0.3029 -0.3717
17133TIP3    H172890   4.334   1.340  12.658  2.2513 -0.6691 -0.2901
17133TIP3    H272891   4.265   1.325  12.523 -0.4897  1.4335  0.7738
17134TIP3   OH272892   1.224   4.200   2.645 -0.2907 -0.7130  0.8184
17134TIP3    H172893   1.147   4.144   2.636 -1.5794  0.8496  1.6843
17134TIP3    H272894   1.226   4.225   2.737  1.0920 -0.4631  0.7496
17135TIP3   OH272895   5.145   5.877  11.000  0.4788  0.2423  0.4779
17135TIP3    H172896   5.070   5.934  11.015 -0.1194 -0.1636 -0.7811
17135TIP3    H272897   5.120   5.824  10.924  1.7603 -0.3975  0.4665
17136TIP3   OH272898   6.792   0.029   4.656 -0.6652 -0.2246  0.0118
17136TIP3    H172899   6.882   0.055   4.674 -0.9921  0.2536  1.0041
17136TIP3    H272900   6.771   0.071   4.573 -0.3310  0.5524  0.3183
17137TIP3   OH272901   1.020   6.451   5.905 -0.1845  0.2030  0.2170
17137TIP3    H172902   0.998   6.443   5.812  2.0519 -1.7831 -0.2609
17137TIP3    H272903   0.943   6.418   5.951 -0.4211 -1.1901 -1.0821
17138TIP3   OH272904   4.362   2.413   5.334 -0.3401 -0.0568 -0.0815
17138TIP3    H172905   4.439   2.438   5.385 -0.4076 -0.0110 -0.0011
17138TIP3    H272906   4.381   2.443   5.245  1.0434 -2.6924 -0.7701
17139TIP3   OH272907   3.287   3.992  12.049 -0.4893  0.0903  0.0844
17139TIP3    H172908   3.308   3.899  12.056 -1.4623 -0.2800 -1.2954
17139TIP3    H272909   3.191   3.994  12.041 -0.5251  1.2549  0.6013
17140TIP3   OH272910   6.177   2.518   1.769  0.0128 -0.5190  0.0100
17140TIP3    H172911   6.202   2.537   1.860 -0.3935 -0.9934  0.2296
17140TIP3    H272912   6.094   2.470   1.777  0.3641 -1.2474 -0.5715
17141TIP3   OH272913   1.245   1.708   1.542  0.3745  0.0039  0.6567
17141TIP3    H172914   1.167   1.754   1.575 -1.0389 -1.6148 -0.3091
17141TIP3    H272915   1.213   1.623   1.513  1.7816  0.6097 -3.2914
17142TIP3   OH272916   4.588   6.721   1.337 -0.1211  0.1269  0.0694
17142TIP3    H172917   4.584   6.625   1.343  0.3742  0.1532  0.9745
17142TIP3    H272918   4.601   6.739   1.244  0.2538 -0.7042 -0.0458
17143TIP3   OH272919   2.964   5.304  12.443 -0.1175 -0.4841  0.1196
17143TIP3    H172920   2.944   5.211  12.431  0.8233 -0.5451 -1.2122
17143TIP3    H272921   3.036   5.321  12.382 -0.2733  1.1200  0.3432
17144TIP3   OH272922   4.100   0.892  13.100  0.6412 -0.5160  0.6831
17144TIP3    H172923   4.175   0.931  13.057 -1.2601  1.1314 -1.3410
17144TIP3    H272924   4.046   0.858  13.029 -0.5748 -1.6512  2.0734
17145TIP3   OH272925   0.435   2.194  12.505  0.2439  0.3745  0.3692
17145TIP3    H172926   0.504   2.136  12.475 -0.7949  0.1231 -1.6814
17145TIP3    H272927   0.387   2.144  12.571 -0.0725 -0.7970 -0.7085
17146TIP3   OH272928   2.284   0.135   1.707  0.5591  0.1700  0.1734
17146TIP3    H172929   2.250   0.172   1.626  0.4531  0.5109  0.3679
17146TIP3    H272930   2.297   0.211   1.764 -1.9035 -0.2455  1.4349
17147TIP3   OH272931   4.616   5.185   0.964 -0.5117  0.3529 -0.0507
17147TIP3    H172932   4.582   5.203   0.876 -0.0678 -0.8330 -0.4754
17147TIP3    H272933   4.704   5.152   0.950 -0.7525 -0.6838  0.7833
17148TIP3   OH272934   0.501   5.247   0.245 -0.0890  0.3480 -0.5088
17148TIP3    H172935   0.431   5.227   0.183  0.0595 -0.8085 -0.3263
17148TIP3    H272936   0.532   5.161   0.275  0.1116  0.8744  0.8612
17149TIP3   OH272937   1.802   3.308   3.620 -0.2550 -0.1737  0.0998
17149TIP3    H172938   1.715   3.336   3.648  0.9067  1.6798  2.1773
17149TIP3    H272939   1.795   3.299   3.525 -2.7233 -0.2354  0.2185
17150TIP3   OH272940   5.753   3.221  14.533  0.6022 -0.0201  0.1186
17150TIP3    H172941   5.682   3.285  14.534  1.4652  0.9867 -0.4507
17150TIP3    H272942   5.825   3.267  14.490  1.3222 -1.3111 -0.0871
17151TIP3   OH272943   1.848   3.795   1.370 -0.0976  0.0325 -0.4342
17151TIP3    H172944   1.899   3.755   1.300 -0.3000  1.2871 -1.3442
17151TIP3    H272945   1.907   3.859   1.409 -0.1445 -0.3274  0.2447
17152TIP3   OH272946   4.158   6.739   2.271 -0.3808  0.0451 -0.0278
17152TIP3    H172947   4.078   6.790   2.280 -1.3086 -1.6301  1.9502
17152TIP3    H272948   4.229   6.802   2.285 -1.2928  1.5468 -1.8080
17153TIP3   OH272949   3.291   4.678   1.888  0.0419 -0.1413 -0.4371
17153TIP3    H172950   3.282   4.675   1.983 -1.1336  1.1902 -0.4726
17153TIP3    H272951   3.379   4.644   1.872  1.1404  1.5959  1.3102
17154TIP3   OH272952   4.557   3.789   3.782  0.0508 -0.0919  0.4912
17154TIP3    H172953   4.567   3.867   3.837 -0.9383  0.6152 -0.3209
17154TIP3    H272954   4.571   3.716   3.843 -0.2322  0.6866  1.5236
17155TIP3   OH272955   3.733   5.733  13.627 -0.6452 -0.5867  0.1292
17155TIP3    H172956   3.826   5.740  13.648 -0.0725  0.5302 -2.3714
17155TIP3    H272957   3.699   5.821  13.639 -1.3534 -0.9565  0.8687
17156TIP3   OH272958   1.015   1.627   5.446 -0.4108  0.1811  0.3783
17156TIP3    H172959   0.990   1.714   5.479 -3.0299 -0.0836 -0.7111
17156TIP3    H272960   0.938   1.573   5.462  0.6109 -1.5666 -0.4079
17157TIP3   OH272961   2.781   5.154  15.861 -0.3401 -0.3334  0.3888
17157TIP3    H172962   2.722   5.129  15.931 -0.0617  1.1646  1.1825
17157TIP3    H272963   2.855   5.196  15.905  0.2010 -0.0593 -0.7383
17158TIP3   OH272964   4.389   1.841   2.451  0.6647  0.2144  0.0984
17158TIP3    H172965   4.355   1.757   2.421 -1.6895  0.7869  0.9496
17158TIP3    H272966   4.467   1.856   2.398 -0.1883 -1.3866 -1.7072
17159TIP3   OH272967   3.926   1.683   0.393  0.6598 -0.0262 -0.3627
17159TIP3    H172968   3.885   1.689   0.479 -0.0880 -0.3483 -0.6870
17159TIP3    H272969   3.982   1.606   0.399 -0.4395 -0.8725 -0.5759
17160TIP3   OH272970   1.595   3.325  12.772  0.1116  0.0452 -0.7002
17160TIP3    H172971   1.643   3.385  12.830 -0.6731 -0.0724  0.0845
17160TIP3    H272972   1.503   3.343  12.789 -0.1548 -1.7902 -0.0108
17161TIP3   OH272973   1.410   6.111  10.988  0.4686 -0.3751 -0.3923
17161TIP3    H172974   1.432   6.192  11.034  0.2114 -0.1476 -0.6740
17161TIP3    H272975   1.421   6.042  11.055 -2.0151  0.1531  0.6783
17162TIP3   OH272976   3.061   0.613   6.113  0.2524 -0.0026  0.4474
17162TIP3    H172977   3.138   0.666   6.134 -0.8225  2.2157 -0.8199
17162TIP3    H272978   3.000   0.630   6.184  0.9579 -2.0105  1.6188
17163TIP3   OH272979   2.866   1.331  11.379 -0.4292  0.0211  0.6523
17163TIP3    H172980   2.794   1.273  11.356  0.0590 -0.3469  0.0117
17163TIP3    H272981   2.893   1.370  11.295  0.2738 -0.0337  0.8494
17164TIP3   OH272982   1.082   2.517  15.057  0.1830 -0.3481  0.0069
17164TIP3    H172983   1.076   2.542  14.964 -1.4444  2.9705  0.8296
17164TIP3    H272984   1.168   2.550  15.084 -0.0781  0.3245  0.0465
17165TIP3   OH272985   0.923   6.661   6.185 -0.4290  0.5064 -0.2857
17165TIP3    H172986   0.883   6.668   6.272  0.7926 -0.4360  0.3840
17165TIP3    H272987   0.860   6.613   6.133 -0.6940  0.0698  0.4208
17166TIP3   OH272988   1.746   4.539   0.068 -0.4591 -0.1053 -0.3911
17166TIP3    H172989   1.749   4.471   0.001  0.1840 -0.1998 -0.2723
17166TIP3    H272990   1.730   4.620   0.020 -0.7185 -0.2695 -0.5817
17167TIP3   OH272991   3.597   2.035   2.432 -0.1039 -0.2972  0.1577
17167TIP3    H172992   3.669   2.075   2.385 -0.2323  0.2978  0.4523
17167TIP3    H272993   3.518   2.075   2.395 -0.1995  0.2637  0.9443
17168TIP3   OH272994   0.510   0.913   3.039  0.5166  0.0336 -0.1377
17168TIP3    H172995   0.603   0.932   3.024  0.0459  1.8628 -1.0519
17168TIP3    H272996   0.464   0.982   2.992 -1.3061 -0.2475  1.1472
17169TIP3   OH272997   3.487   0.819  12.449  0.5312 -0.8886 -0.0592
17169TIP3    H172998   3.490   0.723  12.448  0.2368 -0.9064  0.3694
17169TIP3    H272999   3.579   0.846  12.449  0.6133 -1.1683 -0.3494
17170TIP3   OH273000   6.811   6.117  11.022  1.1419 -0.2359 -0.0280
17170TIP3    H173001   6.858   6.088  10.944  0.2505 -3.3723  0.4292
17170TIP3    H273002   6.724   6.140  10.990  1.4654  0.7426 -0.2289
17171TIP3   OH273003   2.993   1.755  13.057  0.9672  0.6165  0.3546
17171TIP3    H173004   2.937   1.730  12.984  1.9713 -0.0965 -0.1909
17171TIP3    H273005   3.060   1.687  13.061  0.8736  0.5773  2.0170
17172TIP3   OH273006   1.073   3.761   0.589 -0.0017 -0.1605  0.0330
17172TIP3    H173007   1.113   3.761   0.677  0.3115 -2.7143 -0.0055
17172TIP3    H273008   1.147   3.746   0.530 -0.4796 -0.8882 -0.4067
17173TIP3   OH273009   6.277   5.828   2.837 -0.1453  0.0373  0.1038
17173TIP3    H173010   6.231   5.810   2.919 -0.2528 -1.5804 -0.2737
17173TIP3    H273011   6.347   5.889   2.862 -1.0850  0.7416  1.0995
17174TIP3   OH273012   6.244   0.058   0.231  0.0665 -0.2362  0.8003
17174TIP3    H173013   6.228  -0.029   0.196 -1.3688  0.3447 -0.1062
17174TIP3    H273014   6.334   0.078   0.205  0.2206 -1.2343  0.5372
17175TIP3   OH273015   2.586   1.127   4.502 -0.3706  0.1693 -0.5681
17175TIP3    H173016   2.579   1.222   4.515 -3.6959 -0.2313  2.1546
17175TIP3    H273017   2.497   1.095   4.517  0.9284 -3.5555  0.2438
17176TIP3   OH273018   5.148   0.231   2.939 -0.1094 -0.3320  0.3350
17176TIP3    H173019   5.067   0.185   2.916  0.8620 -1.4274 -1.0715
17176TIP3    H273020   5.211   0.161   2.954  1.5239  0.4737 -2.2499
17177TIP3   OH273021   1.589   6.565  11.080 -0.1839 -0.1007  0.7202
17177TIP3    H173022   1.563   6.586  10.990  0.0649 -0.2945  0.6039
17177TIP3    H273023   1.596   6.650  11.123  0.2631  0.0275  0.4001
17178TIP3   OH273024   4.972   2.799  11.996  0.2392 -0.0889  0.5947
17178TIP3    H173025   5.002   2.760  12.078  0.5405 -0.0847  0.4885
17178TIP3    H273026   4.933   2.883  12.022  1.0424  0.2826  0.6627
17179TIP3   OH273027   3.644   3.517  15.357  0.0855  0.2928 -0.0226
17179TIP3    H173028   3.603   3.435  15.330  1.4089  0.0958 -1.5909
17179TIP3    H273029   3.612   3.532  15.446 -0.0496 -2.0125  0.3729
17180TIP3   OH273030   5.148   6.737  11.519  0.4765 -0.2081  0.5480
17180TIP3    H173031   5.061   6.705  11.541  0.3756  0.7594  1.6566
17180TIP3    H273032   5.208   6.677  11.564  0.4484 -1.3417 -0.8391
17181TIP3   OH273033   0.767   4.128   4.547 -0.0820  0.4463 -0.3189
17181TIP3    H173034   0.831   4.164   4.486  1.3573  0.7858  1.3044
17181TIP3    H273035   0.696   4.096   4.492  0.4080  2.1858 -2.0534
17182TIP3   OH273036   3.980   2.257   3.498  0.6459  0.1394 -0.6552
17182TIP3    H173037   3.996   2.334   3.444  0.4939  0.8461  0.2843
17182TIP3    H273038   3.885   2.246   3.497  0.6568  0.0519 -0.6791
17183TIP3   OH273039   2.337   5.049  15.985  0.1530 -0.1239 -0.4636
17183TIP3    H173040   2.314   4.975  16.040  1.0026  0.4352  0.6779
17183TIP3    H273041   2.276   5.118  16.012  0.3241  0.0385 -0.4910
17184TIP3   OH273042   1.067   3.566   2.936 -0.4194  0.3400  0.0755
17184TIP3    H173043   1.005   3.549   2.865 -0.7581  0.6268  0.3017
17184TIP3    H273044   1.014   3.604   3.006 -0.3614 -1.3049  1.0534
17185TIP3   OH273045   0.517   5.305   4.224  0.4188 -0.7511 -0.1124
17185TIP3    H173046   0.506   5.245   4.150  2.3230 -1.2250 -0.0695
17185TIP3    H273047   0.602   5.347   4.209  0.3317 -0.0258  1.2350
17186TIP3   OH273048   5.192   0.781  11.915 -0.2452 -0.4100 -0.2689
17186TIP3    H173049   5.223   0.696  11.885  0.1301 -0.8402  1.2407
17186TIP3    H273050   5.107   0.792  11.871 -0.1821 -1.4464 -0.6847
17187TIP3   OH273051   5.581   4.260   1.601 -0.2965 -0.0004 -0.3284
17187TIP3    H173052   5.581   4.176   1.647  1.7806 -0.0592 -0.3355
17187TIP3    H273053   5.660   4.258   1.546  0.7653  2.5515  0.8925
17188TIP3   OH273054   3.215   6.850  14.274 -0.0199  0.2103  0.2908
17188TIP3    H173055   3.230   6.944  14.263 -0.4330  0.1965 -0.4313
17188TIP3    H273056   3.122   6.838  14.255  0.0098 -0.3343  0.4647
17189TIP3   OH273057   1.471   6.173   1.236  0.0095  0.0463  0.2571
17189TIP3    H173058   1.495   6.175   1.143  0.7399 -1.2686  0.4002
17189TIP3    H273059   1.416   6.096   1.245  1.2420 -0.7471  1.2010
17190TIP3   OH273060   2.900   1.628   1.338  0.2398 -0.4586  0.0026
17190TIP3    H173061   2.893   1.676   1.421  1.2823 -0.7358  0.2628
17190TIP3    H273062   2.897   1.536   1.364  2.9258 -0.6077  0.0192
17191TIP3   OH273063   2.100   6.477  16.468  0.0783 -0.3811  0.5076
17191TIP3    H173064   2.183   6.483  16.515 -0.3106 -0.3600  1.2019
17191TIP3    H273065   2.105   6.394  16.420  0.3306 -0.5712  0.8644
17192TIP3   OH273066   5.593   6.456  11.990 -0.2555  0.7900  0.1547
17192TIP3    H173067   5.633   6.370  12.001  1.8984  1.5635 -1.0569
17192TIP3    H273068   5.606   6.499  12.075 -0.1224  0.3983  0.3374
17193TIP3   OH273069   2.439   2.592  14.421 -0.4517  0.1918 -1.1305
17193TIP3    H173070   2.401   2.539  14.491  0.3143  0.0894 -0.7739
17193TIP3    H273071   2.458   2.676  14.462 -0.2241  0.2118 -1.2718
17194TIP3   OH273072   0.688   0.947  11.001 -0.4461  0.3837 -0.6048
17194TIP3    H173073   0.701   0.948  10.906  0.7936  1.7690 -0.4671
17194TIP3    H273074   0.772   0.919  11.036 -1.0142 -0.4880  0.0874
17195TIP3   OH273075   2.828   0.650  15.791 -0.2224  0.1761  0.8540
17195TIP3    H173076   2.745   0.666  15.836 -1.1416 -0.4248 -0.5652
17195TIP3    H273077   2.877   0.594  15.851 -0.8724  0.4494  1.6671
17196TIP3   OH273078   5.445   0.633  16.828  0.0000  0.7786  0.1010
17196TIP3    H173079   5.354   0.650  16.852 -0.7949 -1.1164 -1.3464
17196TIP3    H273080   5.470   0.555  16.878  0.0801 -0.0137 -1.1363
17197TIP3   OH273081   5.520   5.310  14.243  0.8369  0.2070 -0.3755
17197TIP3    H173082   5.428   5.317  14.269  0.4238  0.4562 -1.8365
17197TIP3    H273083   5.544   5.219  14.265  0.2111  0.0984 -0.1325
17198TIP3   OH273084   0.334   0.953   3.683 -0.0518  0.0588 -0.2864
17198TIP3    H173085   0.250   0.986   3.652  0.1447  0.2055 -0.6627
17198TIP3    H273086   0.393   0.961   3.608 -0.3313 -2.4485 -0.8704
17199TIP3   OH273087   2.981   2.558  13.522 -0.9424  0.3992  0.4982
17199TIP3    H173088   3.052   2.596  13.470 -0.5583  0.3722  0.9941
17199TIP3    H273089   3.012   2.470  13.545 -0.4559  0.9452  2.0259
17200TIP3   OH273090   2.473   3.861   1.436 -0.1498  0.3025  0.1922
17200TIP3    H173091   2.422   3.929   1.393  0.6865  1.0914  0.4191
17200TIP3    H273092   2.564   3.882   1.415  0.2490  0.3974  1.8444
17201TIP3   OH273093   2.964   3.254  13.127  0.5752 -0.1500 -0.2687
17201TIP3    H173094   2.960   3.301  13.210 -2.1704  1.0211 -0.9339
17201TIP3    H273095   2.997   3.167  13.149 -2.0304 -0.5880  2.4531
17202TIP3   OH273096   0.136   5.257  16.728  0.2982 -0.0219  0.2509
17202TIP3    H173097   0.158   5.335  16.779  1.7199 -0.8720  0.9803
17202TIP3    H273098   0.141   5.286  16.637 -1.1152  1.2092  0.5134
17203TIP3   OH273099   0.726   4.143   2.903 -0.1001  0.3024  0.4092
17203TIP3    H173100   0.729   4.053   2.873  0.0214  1.1919 -2.5381
17203TIP3    H273101   0.638   4.154   2.938 -0.2199 -0.8538  0.5079
17204TIP3   OH273102   5.041   4.950   0.608  0.1885  0.2657 -0.0008
17204TIP3    H173103   5.106   5.020   0.597  0.0451  0.1400 -2.0181
17204TIP3    H273104   5.013   4.930   0.519 -1.6780 -0.5910  0.7437
17205TIP3   OH273105   3.848   2.318   4.599 -0.3500  0.2433  0.3377
17205TIP3    H173106   3.865   2.317   4.504  0.2985  0.5923  0.4483
17205TIP3    H273107   3.768   2.370   4.608  0.3250  1.3630  0.0870
17206TIP3   OH273108   1.412   5.768   4.791  0.7971  0.1108 -0.6845
17206TIP3    H173109   1.490   5.797   4.744  0.4001  1.5264 -0.5159
17206TIP3    H273110   1.340   5.782   4.729  0.6880 -1.6613 -1.0304
17207TIP3   OH273111   3.329   2.793  11.262  0.1688 -0.1844  0.3662
17207TIP3    H173112   3.332   2.712  11.211  1.7345  0.7080 -1.0851
17207TIP3    H273113   3.419   2.827  11.258  0.1153  0.4414  2.9637
17208TIP3   OH273114   6.628   5.311   0.797  0.5611 -0.0120  0.0834
17208TIP3    H173115   6.681   5.244   0.753  0.6109 -0.2490  0.5009
17208TIP3    H273116   6.564   5.261   0.848  0.4289  0.2637  0.1874
17209TIP3   OH273117   5.499   3.362   1.854 -0.3707 -0.0294  0.3433
17209TIP3    H173118   5.481   3.422   1.781 -0.2768  0.1580  0.4743
17209TIP3    H273119   5.462   3.279   1.826 -1.1231  0.2590  0.4501
17210TIP3   OH273120   6.855   3.499   0.414  0.2536  0.0775 -0.3593
17210TIP3    H173121   6.812   3.585   0.415 -1.0852 -0.5634  1.1900
17210TIP3    H273122   6.841   3.467   0.324 -0.0739  1.0631 -0.6808
17211TIP3   OH273123   6.264   1.099   4.422 -0.4355  0.2118  0.2688
17211TIP3    H173124   6.208   1.119   4.347  2.1830  1.5814 -1.4815
17211TIP3    H273125   6.277   1.183   4.466 -1.3371 -0.4529  1.8963
17212TIP3   OH273126   5.644   6.706  14.580 -0.2805 -0.4584 -0.0024
17212TIP3    H173127   5.681   6.719  14.493  0.6377 -0.8065  0.3291
17212TIP3    H273128   5.716   6.725  14.640 -0.5907 -1.2867  0.6526
17213TIP3   OH273129   5.245   0.347   4.458 -0.1193  0.5778  0.0376
17213TIP3    H173130   5.244   0.345   4.554 -0.1967 -1.2537  0.0350
17213TIP3    H273131   5.201   0.266   4.432  1.5085  0.1250 -1.5159
17214TIP3   OH273132   2.222   3.018   0.678 -0.3261  0.0003  0.3933
17214TIP3    H173133   2.145   2.995   0.729 -0.4153 -1.1113 -0.2221
17214TIP3    H273134   2.276   3.070   0.738  0.0405 -2.0792  1.9576
17215TIP3   OH273135   0.592   4.573   4.944  0.2695 -0.1721 -0.1676
17215TIP3    H173136   0.603   4.532   5.030  0.4314  0.7737  0.2748
17215TIP3    H273137   0.600   4.501   4.882  1.2937 -0.6905  0.5485
17216TIP3   OH273138   1.047   3.524  12.931 -0.1298 -0.2550  0.3088
17216TIP3    H173139   1.022   3.491  13.017  0.2185 -0.2494  0.4128
17216TIP3    H273140   1.052   3.446  12.875  0.5532 -0.3715  0.5207
17217TIP3   OH273141   0.703   6.186  15.794 -0.1538 -1.1628  0.0355
17217TIP3    H173142   0.753   6.180  15.875 -1.0305 -0.8751  0.5980
17217TIP3    H273143   0.770   6.185  15.725  0.6093 -1.1038  0.7671
17218TIP3   OH273144   3.844   2.073   6.053 -1.0625 -0.2568 -0.0879
17218TIP3    H173145   3.766   2.118   6.087 -1.7610 -1.1565 -0.4485
17218TIP3    H273146   3.822   1.980   6.059  0.1331 -0.5367  0.1229
17219TIP3   OH273147   2.120   3.931   3.163 -0.4646 -0.2755 -0.3071
17219TIP3    H173148   2.166   3.935   3.080 -1.1523 -0.6379 -0.7109
17219TIP3    H273149   2.186   3.956   3.228 -0.3568  1.5985 -1.0918
17220TIP3   OH273150   6.147   5.690   0.515 -0.1341 -0.0138  0.4705
17220TIP3    H173151   6.192   5.616   0.472  1.7696  0.2411  1.8892
17220TIP3    H273152   6.069   5.650   0.554  0.3177 -1.0782  0.3395
17221TIP3   OH273153   0.399   1.677  15.250  0.3044  0.3608 -0.1237
17221TIP3    H173154   0.314   1.678  15.294  0.6220 -1.0960  0.5724
17221TIP3    H273155   0.460   1.713  15.314  0.5480 -0.5506  0.1724
17222TIP3   OH273156   0.345   2.966   4.289 -0.4552  0.5249 -0.1000
17222TIP3    H173157   0.390   2.965   4.373 -0.0016  2.1395 -0.3016
17222TIP3    H273158   0.395   3.028   4.236 -0.3495 -0.9239 -1.7934
17223TIP3   OH273159   4.524   1.128   1.374  0.0230  0.1394  0.0588
17223TIP3    H173160   4.576   1.143   1.453 -1.2903  2.7768  0.5614
17223TIP3    H273161   4.577   1.069   1.321  1.8910 -0.0675  2.0027
17224TIP3   OH273162   4.258   6.379  13.659  0.0151 -0.3599 -0.4504
17224TIP3    H173163   4.269   6.284  13.646  0.3112 -0.4388  0.3550
17224TIP3    H273164   4.336   6.417  13.619 -0.0424 -0.4606 -0.6630
17225TIP3   OH273165   1.976   4.667  10.905 -0.4303  0.3711 -0.3223
17225TIP3    H173166   2.009   4.757  10.903 -1.1151  0.6888 -3.5407
17225TIP3    H273167   1.880   4.677  10.908 -0.4865 -0.2969  0.3445
17226TIP3   OH273168   0.188   2.110   3.518  0.0752  0.2762 -0.1740
17226TIP3    H173169   0.142   2.047   3.574 -0.5614  0.3059 -0.6520
17226TIP3    H273170   0.189   2.191   3.569 -0.5059  0.3049 -0.2028
17227TIP3   OH273171   5.734   3.675   0.152  0.1307  0.0896 -0.0972
17227TIP3    H173172   5.780   3.594   0.131  1.0670  1.1911 -2.7826
17227TIP3    H273173   5.766   3.699   0.239 -0.4265 -2.5167  0.9189
17228TIP3   OH273174   3.038   2.920   6.005 -0.1959  0.4926  0.3296
17228TIP3    H173175   3.087   2.838   6.001 -2.2865 -0.7897 -1.2388
17228TIP3    H273176   3.104   2.988   5.989  1.1594 -1.0910 -1.2922
17229TIP3   OH273177   5.887   0.257  13.523  0.2066  0.5238 -0.3581
17229TIP3    H173178   5.892   0.341  13.477 -0.5121 -0.1988 -1.8083
17229TIP3    H273179   5.961   0.207  13.490  1.1585  0.8478  1.1559
17230TIP3   OH273180   4.118   3.714  10.784  0.3218  0.4015 -0.2128
17230TIP3    H173181   4.153   3.753  10.704  0.2770  0.3293 -0.2676
17230TIP3    H273182   4.076   3.633  10.756 -0.9808  1.0887 -0.3284
17231TIP3   OH273183   2.651   0.358   0.080 -0.1243 -0.5422  0.0597
17231TIP3    H173184   2.622   0.313  -0.000 -0.2466 -0.3637  0.0023
17231TIP3    H273185   2.574   0.406   0.109  0.1813  0.1436 -0.2346
17232TIP3   OH273186   1.069   2.557   2.819 -0.1882  0.1959 -0.5840
17232TIP3    H173187   1.133   2.606   2.871 -1.1937 -0.2416  1.1014
17232TIP3    H273188   1.107   2.557   2.730  2.9948 -1.4447  0.6135
17233TIP3   OH273189   4.247   5.487   1.627  0.1612  0.8142 -0.4030
17233TIP3    H173190   4.187   5.542   1.576  0.0206  1.9275  0.9097
17233TIP3    H273191   4.303   5.445   1.562 -0.1670  2.0079 -1.4885
17234TIP3   OH273192   0.717   4.985  15.157  0.4893 -0.0205  0.6068
17234TIP3    H173193   0.697   5.078  15.169  0.6176 -0.1234  1.8213
17234TIP3    H273194   0.736   4.975  15.064  2.9560  1.6862  0.8290
17235TIP3   OH273195   5.293   2.435  14.145  0.3254 -0.0365  0.3935
17235TIP3    H173196   5.206   2.440  14.185 -0.4753  1.2758 -1.3770
17235TIP3    H273197   5.298   2.348  14.107 -0.8295  0.3864 -0.7675
17236TIP3   OH273198   4.365   3.186   1.678  0.1258 -0.1088 -0.0389
17236TIP3    H173199   4.460   3.177   1.684  0.1310 -0.1168 -0.1385
17236TIP3    H273200   4.351   3.230   1.594  0.2812  3.1349  1.4550
17237TIP3   OH273201   3.323   0.024  12.808  1.1273 -0.2490 -0.2636
17237TIP3    H173202   3.322   0.012  12.713 -0.5236 -1.1706 -0.1864
17237TIP3    H273203   3.343  -0.063  12.843 -1.8367 -0.8760  0.2145
17238TIP3   OH273204   2.507   2.761  16.764 -0.8692 -0.0768  0.6001
17238TIP3    H173205   2.431   2.816  16.779  0.1001  0.9186  2.1223
17238TIP3    H273206   2.510   2.749  16.669 -2.5264  0.3929  0.4664
17239TIP3   OH273207   0.979   6.617   5.560  0.1635 -0.0650 -0.3982
17239TIP3    H173208   1.037   6.544   5.541  0.8218  0.2072  0.5170
17239TIP3    H273209   0.919   6.620   5.485 -0.2955 -1.9451 -0.1438
17240TIP3   OH273210   6.750   5.891   2.801  0.1693 -0.5790  0.5690
17240TIP3    H173211   6.744   5.831   2.876  0.0291 -1.5154 -0.1754
17240TIP3    H273212   6.770   5.834   2.727  2.4211  0.5484  0.2063
17241TIP3   OH273213   4.151   4.665   1.720 -0.3756  0.3036  0.4536
17241TIP3    H173214   4.142   4.618   1.803 -2.2581  0.2324  0.2427
17241TIP3    H273215   4.063   4.667   1.683 -0.0229  2.3910 -0.4370
17242TIP3   OH273216   0.034   0.174   1.194 -0.1742  0.5755  0.4949
17242TIP3    H173217   0.003   0.254   1.237  1.8663  1.5060  0.3724
17242TIP3    H273218   0.068   0.204   1.110 -0.4489 -0.6083 -0.0514
17243TIP3   OH273219   2.646   4.210   0.604  0.2511 -0.3809 -0.8785
17243TIP3    H173220   2.577   4.247   0.659  0.3841 -0.5792 -0.5738
17243TIP3    H273221   2.602   4.190   0.521 -0.1926 -1.0108 -0.5062
17244TIP3   OH273222   2.244   3.668  13.394 -0.1967 -0.0001 -0.1682
17244TIP3    H173223   2.197   3.610  13.454 -2.1726  1.5636 -0.1112
17244TIP3    H273224   2.180   3.690  13.327  1.6607 -0.8663 -2.3320
17245TIP3   OH273225   5.527   1.017  15.766 -0.2527 -0.5952 -0.2477
17245TIP3    H173226   5.537   0.922  15.756 -0.1270 -0.5852 -0.2163
17245TIP3    H273227   5.456   1.026  15.830  0.2270 -0.6785  0.3052
17246TIP3   OH273228   4.555   6.300  16.050  1.0341 -0.1904  0.1019
17246TIP3    H173229   4.520   6.266  15.968 -0.7151  0.5902  0.4751
17246TIP3    H273230   4.564   6.222  16.106 -2.3739 -0.2800  0.7539
17247TIP3   OH273231   1.290   2.953  11.520 -0.2045  0.3289 -0.3483
17247TIP3    H173232   1.302   2.862  11.548  2.0237  0.1672 -1.6118
17247TIP3    H273233   1.248   2.995  11.594 -0.3633 -1.5138  0.6668
17248TIP3   OH273234   1.881   0.092   2.937  0.0158  0.2328  0.0790
17248TIP3    H173235   1.818   0.055   2.999 -0.5866  1.2490  0.1064
17248TIP3    H273236   1.901   0.021   2.876  0.1560 -0.5991  1.0840
17249TIP3   OH273237   1.521   1.865  15.284  0.0525  0.3083  0.1471
17249TIP3    H173238   1.482   1.835  15.202  0.0828 -1.3658  0.7151
17249TIP3    H273239   1.463   1.830  15.352  0.9510  0.2351  0.8942
17250TIP3   OH273240   6.588   1.863  13.447  0.0296 -0.4614 -0.2243
17250TIP3    H173241   6.537   1.931  13.405  2.9606  1.8794 -0.3597
17250TIP3    H273242   6.545   1.849  13.531 -0.6784  1.6336 -0.1875
17251TIP3   OH273243   5.243   5.996  11.664 -0.7620  0.2629 -0.3786
17251TIP3    H173244   5.314   6.032  11.717 -0.4565  0.4143 -0.8868
17251TIP3    H273245   5.176   5.972  11.728 -1.6146  3.0797 -0.0935
17252TIP3   OH273246   6.414   2.134   2.971 -0.3290 -0.2743 -0.2540
17252TIP3    H173247   6.373   2.197   3.030  0.5893  0.1592 -0.0590
17252TIP3    H273248   6.381   2.049   2.999 -1.4286  0.1009 -0.3892
17253TIP3   OH273249   4.487   0.509   6.214 -0.1407 -0.3303  0.0541
17253TIP3    H173250   4.578   0.495   6.244 -0.7146 -1.5915  1.3752
17253TIP3    H273251   4.487   0.597   6.176  0.5814  1.8999  4.5451
17254TIP3   OH273252   4.012   3.968  16.359  1.0156 -0.4606 -0.2198
17254TIP3    H173253   3.957   3.890  16.347 -0.1410  0.3536 -0.3155
17254TIP3    H273254   4.100   3.933  16.370  0.2486 -1.9150  1.7531
17255TIP3   OH273255   5.749   0.912  11.785  0.3891 -0.8082  0.6367
17255TIP3    H173256   5.738   0.817  11.792  0.6502 -0.9960 -0.9744
17255TIP3    H273257   5.660   0.947  11.792 -0.0370 -1.4058 -1.2485
17256TIP3   OH273258   0.656   2.080  15.041 -0.2038 -0.0761  0.4196
17256TIP3    H173259   0.560   2.084  15.033 -0.1974 -1.0661 -0.3812
17256TIP3    H273260   0.672   2.003  15.095  0.1214  0.8176  1.6374
17257TIP3   OH273261   1.567   4.888   4.875  0.6447 -0.1899  0.0163
17257TIP3    H173262   1.504   4.920   4.810  0.2850  0.2618  0.5713
17257TIP3    H273263   1.631   4.838   4.824  0.2126 -0.0876 -0.6450
17258TIP3   OH273264   4.804   3.538   4.304  0.7256 -0.3616 -0.4215
17258TIP3    H173265   4.754   3.618   4.315  1.1153  0.1472 -2.0406
17258TIP3    H273266   4.888   3.556   4.348  0.2659 -0.4729  0.5347
17259TIP3   OH273267   6.610   5.956   1.387 -0.4098 -0.5470 -0.0049
17259TIP3    H173268   6.632   5.898   1.314  0.7978 -0.7607  0.4923
17259TIP3    H273269   6.523   5.990   1.366  1.3041  2.4553 -3.5863
17260TIP3   OH273270   5.423   2.670   6.275  0.0768  0.2861  0.1994
17260TIP3    H173271   5.508   2.647   6.312  0.3025  2.2011  1.0063
17260TIP3    H273272   5.374   2.588   6.275  1.9516 -0.9185 -0.4543
17261TIP3   OH273273   0.507   2.986  16.040  0.0512 -0.3810  0.2296
17261TIP3    H173274   0.591   2.982  16.086  0.3003 -1.3868 -0.2957
17261TIP3    H273275   0.449   2.930  16.091 -0.5022  0.7836  0.9401
17262TIP3   OH273276   3.173   6.220   4.950  0.3327 -1.0890 -0.1412
17262TIP3    H173277   3.115   6.296   4.947  2.0660  0.5452  2.8570
17262TIP3    H273278   3.230   6.230   4.874 -1.0136 -0.8247 -1.1600
17263TIP3   OH273279   4.486   5.128  16.229 -0.1732 -0.1547 -0.8476
17263TIP3    H173280   4.428   5.053  16.221 -0.8006  0.3254 -0.8932
17263TIP3    H273281   4.427   5.204  16.234  0.3767  0.2195  0.6409
17264TIP3   OH273282   0.112   5.010  12.330 -0.4354  0.1500 -0.4009
17264TIP3    H173283   0.039   5.072  12.332 -0.7061 -0.1347 -1.0756
17264TIP3    H273284   0.096   4.951  12.404 -1.1148 -0.1597 -0.7892
17265TIP3   OH273285   0.476   0.825   0.045 -0.7142 -0.3534  0.3727
17265TIP3    H173286   0.429   0.795   0.123 -1.5465  0.2366  0.1126
17265TIP3    H273287   0.442   0.771  -0.026 -0.0235 -0.8283  0.3931
17266TIP3   OH273288   2.776   0.078  16.488 -0.0964 -0.1456 -0.4693
17266TIP3    H173289   2.707   0.104  16.427  0.8751  2.6400 -0.5338
17266TIP3    H273290   2.831   0.157  16.497  0.8027 -0.9947  2.6583
17267TIP3   OH273291   4.103   2.152  10.253  0.4879  0.1941  0.3173
17267TIP3    H173292   4.091   2.064  10.288  1.5022  0.5734  1.7208
17267TIP3    H273293   4.024   2.169  10.201  0.0287 -1.3126  0.4905
17268TIP3   OH273294   1.540   1.109  12.298  0.3244 -0.5337  0.1347
17268TIP3    H173295   1.524   1.198  12.327 -0.7943 -0.7755  0.3184
17268TIP3    H273296   1.498   1.104  12.212  1.3863 -0.5609 -0.3985
17269TIP3   OH273297   6.249   0.610   6.463  0.0909  0.0692  0.1180
17269TIP3    H173298   6.277   0.691   6.421  1.1931  0.1107  0.8861
17269TIP3    H273299   6.328   0.555   6.464 -0.8655 -1.4281 -1.2842
17270TIP3   OH273300   6.335   5.594   2.977  0.1883  0.1484  0.0136
17270TIP3    H173301   6.342   5.655   2.904 -1.7957  1.0255  0.4725
17270TIP3    H273302   6.287   5.643   3.044  1.4873 -0.8113  1.7168
17271TIP3   OH273303   2.775   6.132  13.297  0.4351  0.6285 -0.5017
17271TIP3    H173304   2.865   6.144  13.328  1.0831 -0.1150 -1.9809
17271TIP3    H273305   2.730   6.089  13.369  1.6441 -0.2581 -0.2565
17272TIP3   OH273306   5.420   0.522  12.643  0.3598  0.1730  0.2435
17272TIP3    H173307   5.343   0.522  12.699 -0.4446 -0.5949 -0.8292
17272TIP3    H273308   5.400   0.460  12.573  1.2230  1.2604 -1.0361
17273TIP3   OH273309   5.803   1.995   0.931 -0.2086 -0.0273  0.1823
17273TIP3    H173310   5.829   2.087   0.936 -0.3936  0.0698 -0.6563
17273TIP3    H273311   5.761   1.978   1.016  0.5993  0.4154  0.6898
17274TIP3   OH273312   2.874   4.105  10.729 -0.6217  0.5062 -0.2426
17274TIP3    H173313   2.927   4.092  10.650  0.4100  0.2472  0.4715
17274TIP3    H273314   2.807   4.037  10.724  1.0473 -1.2578  0.4034
17275TIP3   OH273315   0.878   5.724  12.176 -0.1911 -0.6539 -0.3321
17275TIP3    H173316   0.882   5.774  12.257  1.1925  0.2037 -0.9003
17275TIP3    H273317   0.964   5.683  12.168  0.1942  0.3801 -2.0220
17276TIP3   OH273318   5.690   2.003  16.823 -0.3441  0.1818  0.1196
17276TIP3    H173319   5.721   2.093  16.814 -3.5993  1.4387  0.2881
17276TIP3    H273320   5.635   1.989  16.746 -3.4937  0.0281  2.2312
17277TIP3   OH273321   3.351   2.283   5.370 -0.3908 -0.4128 -0.3558
17277TIP3    H173322   3.376   2.294   5.279 -2.1860  0.2274 -0.8226
17277TIP3    H273323   3.275   2.224   5.367 -0.9517  0.2253  0.6276
17278TIP3   OH273324   1.588   3.953  10.556 -0.0741  0.1344 -0.4072
17278TIP3    H173325   1.539   3.893  10.612 -2.8731  2.6118  0.0418
17278TIP3    H273326   1.526   3.976  10.486  1.4359  1.2992 -1.4333
17279TIP3   OH273327   0.385   2.688   4.473 -0.2172 -0.0889 -0.3402
17279TIP3    H173328   0.462   2.669   4.527  0.0456  1.9315  0.0964
17279TIP3    H273329   0.421   2.706   4.386 -0.4887 -1.7663 -0.8295
17280TIP3   OH273330   4.399   0.810   6.167 -0.3357 -1.1191  0.6431
17280TIP3    H173331   4.495   0.806   6.167 -0.2377  0.4275  0.8863
17280TIP3    H273332   4.376   0.848   6.082 -0.3892  2.6495  2.1248
17281TIP3   OH273333   5.108   5.888   2.259 -0.4085  0.6313 -0.3420
17281TIP3    H173334   5.071   5.937   2.185  1.4872  1.0267 -1.1008
17281TIP3    H273335   5.181   5.943   2.290  1.7511 -1.5675 -1.1649
17282TIP3   OH273336   0.127   3.634  11.647  0.0060 -0.3478  0.5378
17282TIP3    H173337   0.141   3.728  11.648 -2.0598  0.1079 -2.0186
17282TIP3    H273338   0.198   3.600  11.592  0.1070 -0.1557  0.5482
17283TIP3   OH273339   3.333   3.992  16.878  0.0094  0.2244 -0.6744
17283TIP3    H173340   3.358   3.972  16.788  0.5250  0.1353 -0.5166
17283TIP3    H273341   3.238   3.983  16.879  0.0472 -0.3143 -1.0800
17284TIP3   OH273342   0.825   0.373  16.387 -0.1161  0.1460  0.5193
17284TIP3    H173343   0.873   0.416  16.316 -1.4937  0.5518 -0.2085
17284TIP3    H273344   0.831   0.434  16.461 -0.0007  0.4574  0.2543
17285TIP3   OH273345   5.800   2.755   4.067 -0.2078  0.5723 -0.6106
17285TIP3    H173346   5.738   2.777   4.137 -0.2908  0.3630 -0.6198
17285TIP3    H273347   5.756   2.689   4.014  0.4125 -0.3393 -0.0299
17286TIP3   OH273348   4.315   1.002  14.745  0.3911 -0.2417 -0.3916
17286TIP3    H173349   4.226   1.014  14.712 -0.1382 -0.9591  0.7394
17286TIP3    H273350   4.344   1.090  14.769  0.6894  0.2677 -2.4226
17287TIP3   OH273351   0.749   5.990  11.776 -0.5689  0.6970  0.2995
17287TIP3    H173352   0.677   5.959  11.831 -1.0101  2.0410  0.5387
17287TIP3    H273353   0.737   5.945  11.692 -0.5053 -0.5892  0.9683
17288TIP3   OH273354   4.040   2.534  13.968 -0.6434 -0.6474 -0.3293
17288TIP3    H173355   4.117   2.493  13.927 -0.9672 -1.2483 -0.3437
17288TIP3    H273356   3.975   2.537  13.898 -1.2483 -1.8058  0.1511
17289TIP3   OH273357   6.780   1.785  11.439 -0.0748  0.3066  0.0178
17289TIP3    H173358   6.845   1.843  11.399 -0.8225  0.7725 -0.5645
17289TIP3    H273359   6.830   1.710  11.470  0.5595 -0.0720 -1.7934
17290TIP3   OH273360   6.297   5.097  13.667 -0.0092  0.3563  0.5191
17290TIP3    H173361   6.211   5.068  13.635 -0.3969 -0.1051  1.8918
17290TIP3    H273362   6.325   5.164  13.605 -0.8975 -0.2177 -0.5241
17291TIP3   OH273363   2.649   2.757   0.271 -0.0779 -0.4599 -0.1110
17291TIP3    H173364   2.719   2.778   0.209 -0.6290  0.5108 -0.4174
17291TIP3    H273365   2.691   2.699   0.335  1.5138  1.5307  0.7713
17292TIP3   OH273366   5.999   0.726   5.140 -0.2449 -0.2880 -0.6089
17292TIP3    H173367   6.019   0.779   5.217 -0.9463 -1.3718  0.3499
17292TIP3    H273368   5.980   0.790   5.071  2.2763  0.7445 -0.4516
17293TIP3   OH273369   1.017   0.037   5.198 -0.4613  0.3151 -0.1958
17293TIP3    H173370   0.961  -0.010   5.260 -0.7381 -0.2264 -0.8412
17293TIP3    H273371   1.086  -0.026   5.175  0.5505  1.0507  0.7595
17294TIP3   OH273372   0.855   2.706   0.645  0.3065  0.7722 -0.1017
17294TIP3    H173373   0.939   2.750   0.634  1.7872 -0.7266  3.3263
17294TIP3    H273374   0.871   2.617   0.613 -0.4128  0.8329 -0.6367
17295TIP3   OH273375   5.328   2.890  10.785 -0.1796  0.4744  0.0531
17295TIP3    H173376   5.316   2.950  10.711  2.3012  1.1137  0.0900
17295TIP3    H273377   5.357   2.808  10.745 -1.7238 -0.1433  0.1439
17296TIP3   OH273378   3.035   2.639  16.341  0.5656 -0.6452  0.5478
17296TIP3    H173379   3.040   2.604  16.252  2.0223  0.8181 -0.0048
17296TIP3    H273380   2.966   2.705  16.336  1.3595  0.1762  0.2001
17297TIP3   OH273381   0.436   3.241   2.347 -0.7021  0.0020 -0.6226
17297TIP3    H173382   0.513   3.195   2.311 -0.7597 -0.1844 -0.5050
17297TIP3    H273383   0.416   3.308   2.281  0.1422  0.6819 -0.2201
17298TIP3   OH273384   5.782   5.186  15.182 -0.1104 -0.7673 -0.1278
17298TIP3    H173385   5.865   5.204  15.225 -1.3996 -0.0720  2.2658
17298TIP3    H273386   5.774   5.254  15.115  1.2122 -0.8159 -0.3486
17299TIP3   OH273387   3.388   5.006   5.725  0.0771 -0.3096 -0.5496
17299TIP3    H173388   3.338   4.996   5.644  0.1162 -1.6919 -0.4308
17299TIP3    H273389   3.339   4.956   5.791 -0.7845  2.0473  0.6935
17300TIP3   OH273390   5.768   2.787  11.480 -0.1351  0.0599  0.9015
17300TIP3    H173391   5.801   2.702  11.451  0.7740  0.4506  0.7813
17300TIP3    H273392   5.788   2.790  11.574  1.6322  0.9396  0.5362
17301TIP3   OH273393   5.615   1.034   0.117 -0.1309  0.4778 -0.3368
17301TIP3    H173394   5.581   1.060   0.032 -1.6685  1.7420  0.5950
17301TIP3    H273395   5.579   0.946   0.132 -2.5268  1.5055  0.3153
17302TIP3   OH273396   3.469   4.841   1.188 -0.4090 -0.6559 -0.4647
17302TIP3    H173397   3.388   4.791   1.203 -0.9330 -0.0717 -1.2707
17302TIP3    H273398   3.533   4.801   1.247 -1.4427 -0.7416  0.6472
17303TIP3   OH273399   6.662   1.798   2.348  0.2985  0.2335  0.0967
17303TIP3    H173400   6.583   1.836   2.308 -2.4673 -1.9888  2.9306
17303TIP3    H273401   6.693   1.866   2.408 -1.0705  0.2437  0.8395
17304TIP3   OH273402   3.981   0.242   3.245 -0.1615  0.0593 -0.3469
17304TIP3    H173403   4.049   0.202   3.190  0.7304 -0.0361  0.8003
17304TIP3    H273404   3.911   0.177   3.247 -1.0251  0.7912 -2.8159
17305TIP3   OH273405   2.408   3.360  14.944 -0.0482  0.0123  0.4840
17305TIP3    H173406   2.496   3.384  14.973  0.5842  2.6288 -2.9760
17305TIP3    H273407   2.360   3.443  14.941 -1.1903 -0.6430 -1.9265
17306TIP3   OH273408   6.440   3.620   2.663  0.2955 -0.2189 -0.6378
17306TIP3    H173409   6.497   3.560   2.615 -0.0868  0.7864 -2.3988
17306TIP3    H273410   6.352   3.599   2.632 -0.0771 -0.2210  0.3851
17307TIP3   OH273411   5.053   5.420  13.274 -0.1735 -1.2538 -0.0766
17307TIP3    H173412   5.065   5.396  13.183 -1.0362 -0.4235 -0.4329
17307TIP3    H273413   4.967   5.384  13.298 -0.7012 -0.0844 -0.1133
17308TIP3   OH273414   2.664   3.948   4.898 -0.1137 -0.3774  0.3110
17308TIP3    H173415   2.658   3.874   4.836  0.2082 -0.1494  0.0055
17308TIP3    H273416   2.650   4.025   4.844  4.2809  0.2029 -0.3563
17309TIP3   OH273417   2.621   5.992  11.058  0.4040  0.3621 -0.0501
17309TIP3    H173418   2.594   6.084  11.058 -0.1254  0.2400  1.5140
17309TIP3    H273419   2.540   5.944  11.073  0.7951 -0.3131 -0.0881
17310TIP3   OH273420   0.574   4.778  15.242 -0.0510  0.5364  0.1859
17310TIP3    H173421   0.517   4.833  15.296  0.7248  1.0012  0.5557
17310TIP3    H273422   0.624   4.840  15.189  0.9008  0.2067  0.6696
17311TIP3   OH273423   5.241   1.251  13.247 -0.2278 -0.6935  0.1944
17311TIP3    H173424   5.329   1.245  13.284 -0.5052  0.5983  1.1208
17311TIP3    H273425   5.186   1.200  13.308 -0.2613 -0.7844  0.0883
17312TIP3   OH273426   3.748   2.792   4.508  0.5120 -0.2409 -0.4130
17312TIP3    H173427   3.713   2.880   4.495  0.3233  0.1656  2.2144
17312TIP3    H273428   3.821   2.786   4.446 -0.4692  1.1336 -1.7765
17313TIP3   OH273429   5.449   6.060  13.270 -0.3786  0.3394  1.1328
17313TIP3    H173430   5.480   6.142  13.232  0.2478  0.0115  0.9316
17313TIP3    H273431   5.501   6.050  13.350  1.1157 -0.9457  0.0510
17314TIP3   OH273432   6.625   5.733   5.984  0.4176  0.0210  0.3089
17314TIP3    H173433   6.678   5.808   5.958  0.3896 -0.4559 -1.2190
17314TIP3    H273434   6.537   5.752   5.950  0.7248 -1.2841 -1.3309
17315TIP3   OH273435   4.277   6.880  14.497 -0.0212 -0.0935 -0.0281
17315TIP3    H173436   4.236   6.936  14.563 -0.0990 -1.1112  0.8181
17315TIP3    H273437   4.337   6.825  14.548 -0.0843 -0.8994 -0.8119
17316TIP3   OH273438   3.040   6.459   4.912  0.5377 -0.0382 -0.6633
17316TIP3    H173439   3.016   6.482   5.002  4.0511  1.1848  0.1225
17316TIP3    H273440   3.039   6.542   4.865  1.3232 -0.2381 -1.0447
17317TIP3   OH273441   0.824   5.454  12.595  0.2034  0.0822  0.2680
17317TIP3    H173442   0.771   5.413  12.664  0.8271 -2.8774 -0.8642
17317TIP3    H273443   0.759   5.488  12.533 -0.3628  0.0956  0.8561
17318TIP3   OH273444   3.731   0.511  14.132  0.6012  0.3157  0.4481
17318TIP3    H173445   3.723   0.580  14.067 -0.6450  0.4313  0.6964
17318TIP3    H273446   3.703   0.432  14.086 -2.2169  0.6897  1.2731
17319TIP3   OH273447   4.994   6.102  14.064  0.1112  0.7858  0.0690
17319TIP3    H173448   5.083   6.101  14.100 -0.0789  0.7084  0.5507
17319TIP3    H273449   4.960   6.014  14.082  0.1087  0.6530 -0.5592
17320TIP3   OH273450   5.441   1.172   1.002 -0.6445  0.4203 -0.8673
17320TIP3    H173451   5.355   1.130   1.004  0.0532 -1.0742 -0.8529
17320TIP3    H273452   5.482   1.137   0.923 -0.2882  1.6488 -1.2394
17321TIP3   OH273453   5.304   1.425  16.431 -0.1394 -0.1877 -0.4978
17321TIP3    H173454   5.315   1.446  16.523  0.2383 -0.5106 -0.4644
17321TIP3    H273455   5.292   1.509  16.388 -0.6226 -0.0579 -0.1133
17322TIP3   OH273456   6.813   1.565  16.268 -0.3399 -0.6787  0.1821
17322TIP3    H173457   6.753   1.583  16.341 -0.1043  0.2911  0.1484
17322TIP3    H273458   6.809   1.470  16.257  3.0726 -1.6942  4.5676
17323TIP3   OH273459   2.076   3.613   5.079 -0.1648  0.4471  0.1965
17323TIP3    H173460   2.085   3.527   5.037 -1.3445  1.6545 -2.8492
17323TIP3    H273461   2.118   3.674   5.017 -1.1770  2.2839  1.2439
17324TIP3   OH273462   3.704   3.131  10.830  0.1614  0.5912  0.0576
17324TIP3    H173463   3.741   3.159  10.913  0.1843 -1.0707  0.6457
17324TIP3    H273464   3.645   3.202  10.804 -1.5819  0.1712  2.6145
17325TIP3   OH273465   4.126   3.709  16.089 -0.3692  0.1528 -0.2051
17325TIP3    H173466   4.047   3.732  16.039 -0.2357  1.4594  0.1311
17325TIP3    H273467   4.197   3.755  16.043 -0.1033  0.5755  0.5974
17326TIP3   OH273468   0.470   0.089   1.785  0.0072  0.3782  0.5457
17326TIP3    H173469   0.550   0.138   1.807 -1.1003  1.3071  2.8643
17326TIP3    H273470   0.400   0.153   1.795 -1.0543 -0.3226 -1.8205
17327TIP3   OH273471   3.538   2.809   6.224  0.1957  0.1667  0.4622
17327TIP3    H173472   3.512   2.717   6.219 -0.1496  0.2960 -0.5120
17327TIP3    H273473   3.501   2.840   6.307 -3.4189  0.4623 -1.0262
17328TIP3   OH273474   6.654   6.016   5.178 -0.3444 -0.0340  0.4107
17328TIP3    H173475   6.653   5.952   5.107 -0.1699 -0.8354  1.1020
17328TIP3    H273476   6.747   6.032   5.194 -0.3788  0.0414  0.5338
17329TIP3   OH273477   4.472   0.198  14.815  0.7869  0.2769  0.1970
17329TIP3    H173478   4.548   0.241  14.775  0.0543  1.5083  0.0874
17329TIP3    H273479   4.503   0.170  14.901  1.8674 -0.8478 -0.5189
17330TIP3   OH273480   5.743   3.210  13.805 -0.3426  0.2400  0.2932
17330TIP3    H173481   5.756   3.176  13.894  2.0828  0.2094 -0.0089
17330TIP3    H273482   5.660   3.172  13.777 -0.6401 -0.6077  2.1478
17331TIP3   OH273483   3.312   1.796  11.621  0.7343  0.0972 -0.1017
17331TIP3    H173484   3.268   1.880  11.609 -1.2775 -0.8927 -0.1203
17331TIP3    H273485   3.324   1.788  11.716  1.7240  0.7451 -0.1538
17332TIP3   OH273486   6.696   5.434  16.038  0.9434  0.3971  0.4718
17332TIP3    H173487   6.724   5.414  16.128  0.2052 -1.0925  0.3900
17332TIP3    H273488   6.606   5.465  16.047  0.7523 -0.0805  0.2087
17333TIP3   OH273489   0.073   0.168   2.779 -0.8699  0.1227 -0.2854
17333TIP3    H173490   0.127   0.247   2.781 -0.8887  0.1837 -1.6315
17333TIP3    H273491   0.092   0.125   2.862  0.1649  0.8611 -0.1148
17334TIP3   OH273492   2.881   4.055   3.615 -0.5299 -0.3967 -0.5695
17334TIP3    H173493   2.859   3.964   3.632  0.2647 -0.5996 -0.5880
17334TIP3    H273494   2.850   4.071   3.526  0.1679 -0.9395 -0.9229
17335TIP3   OH273495   0.683   3.177   4.436 -0.1459 -0.1228 -0.0778
17335TIP3    H173496   0.661   3.202   4.346  1.4974 -2.8745 -1.3738
17335TIP3    H273497   0.778   3.174   4.438 -0.1298 -3.7583  0.5061
17336TIP3   OH273498   4.301   3.813  13.756 -0.2186 -0.2385  0.0565
17336TIP3    H173499   4.279   3.740  13.699 -0.6185 -1.3322  1.5457
17336TIP3    H273500   4.335   3.772  13.836 -0.3452  1.1966  0.8882
17337TIP3   OH273501   5.164   3.204  10.831  0.2341 -0.4609  0.5313
17337TIP3    H173502   5.086   3.161  10.866 -0.4830  1.0977  0.9458
17337TIP3    H273503   5.153   3.296  10.855  0.7443  0.3277 -2.0120
17338TIP3   OH273504   3.468   3.617   1.060  0.0708 -0.5756  0.2521
17338TIP3    H173505   3.529   3.547   1.037  0.2247 -0.2396 -0.3619
17338TIP3    H273506   3.513   3.698   1.034 -0.0881 -0.2402  0.9894
17339TIP3   OH273507   5.092   2.222  16.983 -0.3489  0.0936  0.2548
17339TIP3    H173508   5.180   2.209  17.016 -0.0775 -1.4385 -0.9586
17339TIP3    H273509   5.104   2.252  16.892 -1.0671 -0.4041 -0.0155
17340TIP3   OH273510   5.890   2.386   1.763 -0.4418  0.5425 -0.4109
17340TIP3    H173511   5.834   2.415   1.691  0.3240 -0.7262 -1.5561
17340TIP3    H273512   5.842   2.313   1.802 -0.0827  0.1438 -0.7118
17341TIP3   OH273513   6.520   1.556  11.205 -0.1606 -0.3015  0.2607
17341TIP3    H173514   6.585   1.575  11.137  0.2458  0.0444  0.7310
17341TIP3    H273515   6.547   1.472  11.241 -0.0316 -0.2131  0.3755
17342TIP3   OH273516   2.276   5.422   2.446  0.3795 -0.6315 -0.2991
17342TIP3    H173517   2.189   5.458   2.460  1.6897  2.1048  1.9172
17342TIP3    H273518   2.282   5.407   2.352 -0.7591  4.2103 -1.3889
17343TIP3   OH273519   5.233   4.914   0.132 -0.6784 -0.3733  0.2777
17343TIP3    H173520   5.247   4.820   0.141  0.0044 -0.2331  0.7209
17343TIP3    H273521   5.161   4.933   0.192  0.4993 -0.2974  1.7209
17344TIP3   OH273522   6.021   5.588   4.553  0.2190 -0.4143 -0.4516
17344TIP3    H173523   5.933   5.602   4.519  0.8003 -0.8488 -2.2504
17344TIP3    H273524   6.019   5.499   4.588  0.0797 -0.5975 -0.9256
17345TIP3   OH273525   5.349   3.538   2.387  0.1033 -0.2818  0.1425
17345TIP3    H173526   5.255   3.549   2.375 -0.1068 -0.8682  1.1601
17345TIP3    H273527   5.379   3.499   2.304 -0.4053  0.5844 -0.4706
17346TIP3   OH273528   4.531   5.225   4.520 -0.1606  0.2609 -0.0910
17346TIP3    H173529   4.515   5.221   4.614  0.3883 -1.8319 -0.0445
17346TIP3    H273530   4.443   5.223   4.481 -0.3733  0.6704  0.3486
17347TIP3   OH273531   2.144   1.009  13.143 -0.6739 -0.2327 -0.3879
17347TIP3    H173532   2.228   0.982  13.182 -1.7569 -1.1309  1.4780
17347TIP3    H273533   2.161   1.097  13.110  1.2693 -0.7719 -0.9646
17348TIP3   OH273534   3.403   1.946  10.496  0.1757 -0.2340  0.0346
17348TIP3    H173535   3.498   1.939  10.493  0.0192 -3.1182 -0.4674
17348TIP3    H273536   3.383   1.964  10.588  1.1926  1.5921 -0.0464
17349TIP3   OH273537   5.236   6.071  14.950  0.2598 -0.1554  0.4020
17349TIP3    H173538   5.223   6.161  14.982  2.4122  0.8106 -1.1822
17349TIP3    H273539   5.169   6.060  14.883  1.0693  0.9715 -0.6358
17350TIP3   OH273540   6.476   4.105   2.060  0.6786  0.0023 -0.0316
17350TIP3    H173541   6.395   4.056   2.046 -0.4104  2.0167 -1.1366
17350TIP3    H273542   6.450   4.183   2.108  2.0288  0.5297 -0.1050
17351TIP3   OH273543   2.270   1.002  12.836  0.1429 -0.5350 -0.0005
17351TIP3    H173544   2.244   1.066  12.902 -0.0861 -1.0379  0.4000
17351TIP3    H273545   2.260   1.048  12.752  0.6209  0.1701  0.3186
17352TIP3   OH273546   4.244   3.454  12.334  0.1662  1.0686 -0.3246
17352TIP3    H173547   4.276   3.535  12.293 -0.9663  2.0190  0.5804
17352TIP3    H273548   4.159   3.479  12.371  0.7106  0.0213  1.7737
17353TIP3   OH273549   4.301   3.357  14.573  0.6162  0.2319  0.1331
17353TIP3    H173550   4.212   3.392  14.579  0.7087  0.5215 -0.1930
17353TIP3    H273551   4.293   3.282  14.515  0.7020  0.6474 -0.4181
17354TIP3   OH273552   4.059   4.461  14.514 -0.6057  0.0997 -0.0848
17354TIP3    H173553   4.126   4.393  14.522 -2.6326 -1.9696  0.3049
17354TIP3    H273554   4.106   4.536  14.479  1.4130 -2.0907 -2.5262
17355TIP3   OH273555   6.820   3.393  13.084 -0.3406  0.5111  0.0792
17355TIP3    H173556   6.825   3.448  13.006 -2.5825  2.1126  0.9512
17355TIP3    H273557   6.830   3.454  13.157 -0.3754 -0.6264  1.0693
17356TIP3   OH273558   5.872   0.200   5.613  0.3714  0.0351  0.3319
17356TIP3    H173559   5.876   0.226   5.705  2.8924 -1.7527  0.8285
17356TIP3    H273560   5.955   0.229   5.576  0.4717 -1.4410 -0.7045
17357TIP3   OH273561   6.557   3.963   5.935  0.1410  0.1498  0.0366
17357TIP3    H173562   6.634   3.981   5.882  0.5915 -0.6393  0.4009
17357TIP3    H273563   6.588   3.963   6.025  0.0217 -1.5290  0.1120
17358TIP3   OH273564   3.132   3.087  13.980  0.1182  0.0476  0.1396
17358TIP3    H173565   3.220   3.125  13.977  0.1313  0.0013 -0.0613
17358TIP3    H273566   3.108   3.090  14.073  0.0150  0.7898  0.1019
17359TIP3   OH273567   5.372   1.928  15.662  0.2894 -0.2506 -0.3109
17359TIP3    H173568   5.311   1.932  15.589 -0.7836 -0.3683  0.5564
17359TIP3    H273569   5.372   1.835  15.688  0.6163 -0.2010 -0.1268
17360TIP3   OH273570   6.720   3.392   2.680  0.4537 -0.5631  0.4344
17360TIP3    H173571   6.670   3.325   2.633  0.4069  0.7600 -1.5613
17360TIP3    H273572   6.681   3.395   2.767 -1.5667 -1.0360 -0.3991
17361TIP3   OH273573   5.144   3.910  11.830  0.6121  0.4621  0.2740
17361TIP3    H173574   5.082   3.898  11.903  0.5003  1.6545  0.3977
17361TIP3    H273575   5.216   3.850  11.850  0.9500  1.3233  1.7908
17362TIP3   OH273576   6.773   5.420  11.912  0.4986  0.5755 -0.4572
17362TIP3    H173577   6.729   5.349  11.865 -0.4356  1.0857 -0.3752
17362TIP3    H273578   6.826   5.376  11.978 -0.6621 -0.0311  0.0974
17363TIP3   OH273579   2.118   4.410  11.865  0.3877 -0.4655 -0.0175
17363TIP3    H173580   2.097   4.494  11.824  1.5647  0.7836  1.7799
17363TIP3    H273581   2.060   4.347  11.822 -3.0199  1.7823  0.8568
17364TIP3   OH273582   0.365   5.012   0.483  0.1607  0.5268  0.4878
17364TIP3    H173583   0.451   5.031   0.521 -0.6001  2.8259  1.2804
17364TIP3    H273584   0.358   5.072   0.408 -1.0167  0.9169  0.8873
17365TIP3   OH273585   5.855   5.634  16.356 -0.3384  0.0753  0.4217
17365TIP3    H173586   5.792   5.593  16.296 -1.0265  0.1540  1.0764
17365TIP3    H273587   5.820   5.617  16.443  0.1566  0.7728  0.7701
17366TIP3   OH273588   6.648   4.900  14.860 -0.2588 -0.0721 -0.8354
17366TIP3    H173589   6.632   4.922  14.952  1.5096 -1.2506 -0.1743
17366TIP3    H273590   6.712   4.965  14.831 -0.3497 -0.0773 -1.0476
17367TIP3   OH273591   1.993   5.624   3.235 -0.5855 -0.4196  0.8512
17367TIP3    H173592   2.049   5.592   3.306 -0.3347 -1.9016  0.0155
17367TIP3    H273593   1.923   5.671   3.280  1.0277  1.0721  1.9511
17368TIP3   OH273594   2.808   5.578  15.008 -0.3850 -0.5074  0.1683
17368TIP3    H173595   2.774   5.666  14.990 -0.9992 -0.6015  0.8141
17368TIP3    H273596   2.852   5.552  14.927 -1.9656 -0.4227 -0.7573
17369TIP3   OH273597   4.813   2.652  16.594 -0.0286  0.6716  0.1473
17369TIP3    H173598   4.880   2.721  16.602  0.1435  0.5939 -0.5625
17369TIP3    H273599   4.741   2.694  16.548 -0.1196  0.5100  0.1430
17370TIP3   OH273600   1.013   2.388   3.333 -0.5512 -0.2535  0.5689
17370TIP3    H173601   1.048   2.310   3.290 -2.3070  0.2478 -2.0249
17370TIP3    H273602   0.919   2.384   3.316 -1.1203  0.9213  3.0249
17371TIP3   OH273603   5.196   5.892   0.141  0.3211 -0.2640 -0.5107
17371TIP3    H173604   5.162   5.884   0.229 -0.3061 -1.0637 -0.8183
17371TIP3    H273605   5.237   5.979   0.139 -0.2421  0.0308  0.3562
17372TIP3   OH273606   6.729   6.737  12.893  0.3040 -0.2773  0.0601
17372TIP3    H173607   6.660   6.789  12.850  0.0249 -0.6229  0.0847
17372TIP3    H273608   6.715   6.648  12.861  0.0408 -0.5593  0.9237
17373TIP3   OH273609   1.320   0.958   5.586  0.1207  0.7012 -0.5914
17373TIP3    H173610   1.324   0.923   5.497  3.0626  1.0053 -0.6819
17373TIP3    H273611   1.317   1.053   5.574  0.4210  0.7390 -0.3886
17374TIP3   OH273612   0.360   1.240   3.920  0.1901  0.0412 -0.0533
17374TIP3    H173613   0.303   1.230   3.843  0.8922 -0.1246 -0.5684
17374TIP3    H273614   0.415   1.162   3.919  0.3050  0.1144  0.5359
17375TIP3   OH273615   4.775   1.534  14.599 -0.5153 -0.1341 -0.6729
17375TIP3    H173616   4.751   1.442  14.605  0.0467 -0.3113 -1.0066
17375TIP3    H273617   4.839   1.537  14.528 -1.1019  0.6359 -1.1775
17376TIP3   OH273618   5.189   3.936  14.868  0.3290  0.4180 -0.3660
17376TIP3    H173619   5.169   4.013  14.921 -1.1432  0.7578 -1.3729
17376TIP3    H273620   5.280   3.915  14.890  0.4302  1.8111  0.6830
17377TIP3   OH273621   4.085   4.990  15.423 -0.8435 -0.3302  0.4921
17377TIP3    H173622   4.081   5.011  15.517 -2.3479  0.5820  0.2650
17377TIP3    H273623   3.996   4.964  15.401 -1.1358  1.7466 -1.1548
17378TIP3   OH273624   2.037   6.257   5.261 -0.2070  0.2178  0.1498
17378TIP3    H173625   1.949   6.241   5.294 -0.6947  1.5047 -0.4550
17378TIP3    H273626   2.094   6.211   5.323 -1.2659 -0.1879  0.8613
17379TIP3   OH273627   5.073   4.472   1.435 -0.5722  0.2003  0.4630
17379TIP3    H173628   5.014   4.418   1.382 -1.4784  1.3652  0.2466
17379TIP3    H273629   5.158   4.429   1.426 -1.2863 -1.3103  0.4770
17380TIP3   OH273630   5.790   4.711   2.491  0.2156  0.0007  0.1535
17380TIP3    H173631   5.833   4.773   2.550 -0.4917  0.0177  0.6606
17380TIP3    H273632   5.776   4.633   2.544  3.0621 -1.4569 -1.0635
17381TIP3   OH273633   3.017   3.693   1.209 -0.5235 -0.3646 -0.6120
17381TIP3    H173634   3.075   3.664   1.279  0.4268 -1.6677 -1.8835
17381TIP3    H273635   3.072   3.698   1.132 -1.7688 -0.0213 -1.5170
17382TIP3   OH273636   0.482   3.288  13.198 -0.0804 -0.0102 -0.4397
17382TIP3    H173637   0.506   3.211  13.146 -0.5556 -0.2477 -0.3177
17382TIP3    H273638   0.557   3.346  13.191  0.9040 -1.0897  0.6385
17383TIP3   OH273639   5.234   5.810  15.527 -0.6884 -0.0561  0.3994
17383TIP3    H173640   5.174   5.853  15.465 -1.5199  1.4266  2.1466
17383TIP3    H273641   5.192   5.821  15.612  1.5418  0.0292  1.5496
17384TIP3   OH273642   2.534   1.043   4.216 -0.5837  0.5169 -0.1406
17384TIP3    H173643   2.462   1.096   4.184 -0.5433  0.9293  0.4337
17384TIP3    H273644   2.613   1.084   4.180 -0.5099  1.2081  0.7531
17385TIP3   OH273645   2.062   3.678  12.756  0.2361 -0.0802  0.1710
17385TIP3    H173646   2.034   3.743  12.692  3.0359  1.7336  0.5820
17385TIP3    H273647   2.071   3.597  12.706 -1.8779  0.1713 -0.6925
17386TIP3   OH273648   6.337   4.587  15.229 -1.4533  0.1970  0.0252
17386TIP3    H173649   6.358   4.606  15.320 -0.2220 -0.7673 -0.0281
17386TIP3    H273650   6.279   4.658  15.202 -1.2066  0.9194  1.3253
17387TIP3   OH273651   5.503   6.626   1.982  0.2023  0.6676 -0.2095
17387TIP3    H173652   5.433   6.617   1.918  1.5965  2.2441 -2.0664
17387TIP3    H273653   5.571   6.565   1.951 -0.6029 -1.6167  2.1297
17388TIP3   OH273654   4.210   4.501  16.304 -0.6289 -0.2734 -0.0444
17388TIP3    H173655   4.143   4.527  16.366  0.5709  0.4797  0.9848
17388TIP3    H273656   4.193   4.408  16.288 -2.8324  0.2409 -1.0359
17389TIP3   OH273657   2.952   0.270  13.519 -0.1370 -0.2651 -0.1252
17389TIP3    H173658   2.953   0.350  13.466 -0.2327 -0.1526  0.0440
17389TIP3    H273659   2.987   0.203  13.460  1.6925  0.2531  0.3018
17390TIP3   OH273660   4.506   3.660  11.548  0.4332 -0.0260 -0.1931
17390TIP3    H173661   4.434   3.642  11.609 -1.5484 -0.7246 -2.5410
17390TIP3    H273662   4.515   3.578  11.499 -0.0463  1.3192 -2.6898
17391TIP3   OH273663   5.229   3.734  11.452 -0.2338  0.0686 -0.4037
17391TIP3    H173664   5.134   3.725  11.450 -0.4166  1.8508 -1.0627
17391TIP3    H273665   5.256   3.683  11.528 -1.8092  0.4062  0.4204
17392TIP3   OH273666   6.202   6.678   5.350  0.0123  0.7429  0.1920
17392TIP3    H173667   6.205   6.583   5.339  1.1306  0.7995 -0.1133
17392TIP3    H273668   6.109   6.698   5.360 -0.2032 -0.4205  0.6622
17393TIP3   OH273669   0.609   5.274  16.574  0.4350 -0.1583 -0.0205
17393TIP3    H173670   0.559   5.203  16.533 -0.0191  0.7610 -1.1225
17393TIP3    H273671   0.543   5.342  16.592  0.7051 -0.3439  1.8587
17394TIP3   OH273672   6.334   2.162  13.026  0.2776  0.0074 -0.2755
17394TIP3    H173673   6.416   2.124  13.060 -0.1652 -0.3403  0.4329
17394TIP3    H273674   6.357   2.192  12.938  0.6972 -1.8172 -0.8388
17395TIP3   OH273675   1.829   4.229  11.386  0.4625  0.0847 -0.4103
17395TIP3    H173676   1.776   4.300  11.422  0.7267 -0.3228  0.8258
17395TIP3    H273677   1.810   4.230  11.292 -2.1224 -0.3518  0.0219
17396TIP3   OH273678   0.609   3.635   3.711 -0.0768 -0.8091 -0.3730
17396TIP3    H173679   0.666   3.561   3.690  0.3555 -0.3768 -0.7192
17396TIP3    H273680   0.568   3.659   3.628 -0.2852 -0.7139 -0.2443
17397TIP3   OH273681   0.787   0.691   0.131  0.0255  0.0372 -0.3108
17397TIP3    H173682   0.701   0.703   0.089  0.9039 -0.6179 -2.4659
17397TIP3    H273683   0.793   0.596   0.144 -0.3362  0.2477  1.6738
17398TIP3   OH273684   6.556   2.914   0.509  0.2670  0.0606  0.0711
17398TIP3    H173685   6.552   3.009   0.496 -1.7717 -0.1102 -1.0091
17398TIP3    H273686   6.609   2.882   0.435  0.8099  0.3198  0.3396
17399TIP3   OH273687   1.554   1.372  14.879  0.7639  0.7313  0.0514
17399TIP3    H173688   1.589   1.283  14.881  0.2794  0.5488  0.3344
17399TIP3    H273689   1.629   1.426  14.854  1.2919  0.3600  0.8037
17400TIP3   OH273690   0.554   3.653   6.433  0.1331  0.5431 -0.0079
17400TIP3    H173691   0.488   3.722   6.437  1.8976  2.3186  0.5789
17400TIP3    H273692   0.527   3.597   6.360 -1.3185  1.9098 -0.5751
17401TIP3   OH273693   1.992   2.540   0.072 -0.1992  0.1555 -0.1428
17401TIP3    H173694   2.033   2.625   0.056 -1.8346  1.0581  0.1976
17401TIP3    H273695   1.988   2.533   0.168 -1.8295  0.6305 -0.1471
17402TIP3   OH273696   0.002   0.123   3.941  0.7353 -0.4632 -0.0752
17402TIP3    H173697  -0.053   0.151   3.867 -0.4954 -2.0314  0.1804
17402TIP3    H273698   0.077   0.081   3.901  0.1892 -1.0954 -0.4465
17403TIP3   OH273699   0.164   1.169  11.469  0.2109 -0.2533  0.0506
17403TIP3    H173700   0.239   1.144  11.414  0.0093 -0.0483 -0.3210
17403TIP3    H273701   0.169   1.109  11.544  0.5928 -0.4182 -0.1004
17404TIP3   OH273702   4.369   6.077  15.028 -0.2367  0.2053 -0.4169
17404TIP3    H173703   4.278   6.091  15.003 -0.4250  1.4111  0.8420
17404TIP3    H273704   4.391   5.992  14.989 -1.8665 -0.0897 -0.7841
17405TIP3   OH273705   6.132   5.161  16.166 -0.7251 -0.0687  0.4662
17405TIP3    H173706   6.178   5.242  16.144  0.1899 -1.1455 -1.8678
17405TIP3    H273707   6.201   5.100  16.190 -0.7092 -1.6956 -3.0430
17406TIP3   OH273708   5.553   3.124  13.376 -0.2137  0.6062 -0.3390
17406TIP3    H173709   5.633   3.079  13.351  1.0703  0.9273  2.7447
17406TIP3    H273710   5.504   3.061  13.428  0.0876  1.6615  1.3154
17407TIP3   OH273711   1.443   4.324   0.026  0.1427  0.2347  0.4903
17407TIP3    H173712   1.397   4.368  -0.046 -0.1136  0.1046  0.5702
17407TIP3    H273713   1.529   4.303  -0.009 -0.3398 -0.7708 -0.1277
17408TIP3   OH273714   1.605   0.286  10.776  0.8059  0.9846 -0.2903
17408TIP3    H173715   1.539   0.243  10.829  0.0015 -0.4236 -2.3095
17408TIP3    H273716   1.561   0.363  10.740  0.6095  0.6786 -0.7158
17409TIP3   OH273717   6.031   2.050  10.975 -0.2841 -0.5837  0.1673
17409TIP3    H173718   6.089   1.999  11.033  2.0060  0.7208 -0.8278
17409TIP3    H273719   6.060   2.028  10.887  0.7849  2.2664 -0.3106
17410TIP3   OH273720   3.004   6.154   5.602  0.8703  0.6606  0.1140
17410TIP3    H173721   3.036   6.234   5.644  0.6594  1.5481 -1.3308
17410TIP3    H273722   3.048   6.152   5.517 -0.5611  0.2600 -0.6518
17411TIP3   OH273723   2.044   2.169   2.508  0.6901 -0.0241  0.1443
17411TIP3    H173724   1.957   2.179   2.470  0.8685 -1.2260 -0.6137
17411TIP3    H273725   2.104   2.201   2.441  0.8941 -0.1683  0.2566
17412TIP3   OH273726   6.307   1.603   2.713 -0.1384  0.7920  0.3852
17412TIP3    H173727   6.377   1.546   2.682  0.6049  1.2100  1.2459
17412TIP3    H273728   6.261   1.551   2.778  0.0711  0.9071  0.6266
17413TIP3   OH273729   6.522   5.286  13.494 -0.4325  0.1774 -0.5851
17413TIP3    H173730   6.500   5.231  13.419 -1.0070  1.2567 -1.2391
17413TIP3    H273731   6.505   5.376  13.464 -0.9712  0.6256  0.9286
17414TIP3   OH273732   4.107   5.705   4.866  0.2037 -0.7538 -0.0207
17414TIP3    H173733   4.176   5.721   4.802  0.7006 -1.6639  0.2860
17414TIP3    H273734   4.045   5.648   4.821  0.1733 -0.7855  0.0608
17415TIP3   OH273735   6.729   4.799  16.487  0.3309  0.2741  0.2779
17415TIP3    H173736   6.745   4.726  16.546  0.1737 -0.2194 -0.2809
17415TIP3    H273737   6.669   4.856  16.535  0.0675 -0.2085  0.5256
17416TIP3   OH273738   3.547   2.778   5.513  0.3296 -0.2656 -0.3965
17416TIP3    H173739   3.561   2.834   5.589 -1.2641 -1.5987  0.9833
17416TIP3    H273740   3.479   2.823   5.463  0.2064 -0.1787 -0.1543
17417TIP3   OH273741   3.567   4.950  10.809  0.5384  0.6902 -0.1092
17417TIP3    H173742   3.585   5.038  10.842  1.7920  0.0979  0.8549
17417TIP3    H273743   3.647   4.925  10.761  0.2405  0.0281 -0.2774
17418TIP3   OH273744   0.230   6.587   3.284 -0.3513  0.1951 -0.1735
17418TIP3    H173745   0.249   6.516   3.223 -1.4200  0.8259 -1.2664
17418TIP3    H273746   0.316   6.611   3.319  0.1752 -0.7720 -0.7356
17419TIP3   OH273747   3.855   4.890  15.061 -0.8889 -0.1309  0.4112
17419TIP3    H173748   3.886   4.874  14.972 -0.5195  0.4231  0.4290
17419TIP3    H273749   3.794   4.963  15.053 -1.6210 -0.7210  0.4856
17420TIP3   OH273750   1.865   0.803   1.069 -0.7170  0.8358 -0.3342
17420TIP3    H173751   1.800   0.740   1.098 -0.3789  0.9065  0.6148
17420TIP3    H273752   1.824   0.848   0.995 -2.0884  1.4769  0.7851
17421TIP3   OH273753   4.266   0.941  13.816  0.1795  0.2933 -0.2828
17421TIP3    H173754   4.333   1.003  13.787 -0.1289  0.4510 -0.6667
17421TIP3    H273755   4.285   0.927  13.908  0.9257  0.1079 -0.4573
17422TIP3   OH273756   0.982   5.410  12.055 -0.3809  0.5556  0.8681
17422TIP3    H173757   0.958   5.375  11.969  1.4011 -0.0030  0.5611
17422TIP3    H273758   0.899   5.414  12.102 -1.0286 -1.9403  0.1393
17423TIP3   OH273759   4.747   3.060  13.486  0.0361 -0.1593  0.0185
17423TIP3    H173760   4.804   3.041  13.560  0.5621  3.3613  0.7088
17423TIP3    H273761   4.788   3.015  13.412  2.2367  0.0591  1.0143
17424TIP3   OH273762   4.500   3.099   3.205 -0.0377  0.1168 -0.4434
17424TIP3    H173763   4.432   3.095   3.272 -1.4717  0.9168 -1.7806
17424TIP3    H273764   4.493   3.188   3.168  1.7385  0.2248 -0.6442
17425TIP3   OH273765   1.763   6.219  11.706 -0.2163 -0.3425  0.3742
17425TIP3    H173766   1.708   6.163  11.652 -0.6580  0.1220  0.3391
17425TIP3    H273767   1.744   6.308  11.675 -0.0332 -0.1218  0.8935
17426TIP3   OH273768   2.345   2.692  13.815  0.0668  0.6481  0.1514
17426TIP3    H173769   2.249   2.690  13.820  0.0330 -1.3331 -0.3162
17426TIP3    H273770   2.364   2.765  13.756 -1.1390  1.2932  0.5303
17427TIP3   OH273771   5.234   4.732   6.308  0.1289 -0.0593  0.1444
17427TIP3    H173772   5.303   4.783   6.349 -0.0567  0.7443 -0.5194
17427TIP3    H273773   5.271   4.644   6.299  0.8335  0.2072  0.3579
17428TIP3   OH273774   5.890   3.519   0.620 -0.1474  0.4340 -0.2852
17428TIP3    H173775   5.965   3.495   0.567 -0.2124 -0.2871 -0.0635
17428TIP3    H273776   5.924   3.525   0.709 -0.1213  1.2293 -0.3480
17429TIP3   OH273777   4.054   3.898  13.562  0.1458 -0.0712  0.2691
17429TIP3    H173778   4.073   3.943  13.645 -1.1611 -0.2870  0.7075
17429TIP3    H273779   3.983   3.838  13.583 -0.4376  0.1050 -1.0957
17430TIP3   OH273780   2.439   4.566   6.304 -0.2332 -0.1503 -0.2694
17430TIP3    H173781   2.372   4.581   6.237  0.1774 -0.0988 -0.6705
17430TIP3    H273782   2.505   4.513   6.260 -0.0968 -0.3567  0.1802
17431TIP3   OH273783   6.594   3.418   2.930 -0.2751  0.0830 -0.2035
17431TIP3    H173784   6.618   3.417   3.023  0.9191  0.4111 -0.5020
17431TIP3    H273785   6.555   3.504   2.917 -1.6357 -0.4309  0.2667
17432TIP3   OH273786   4.368   4.449  12.980  0.2498 -0.3251 -0.6274
17432TIP3    H173787   4.454   4.484  13.005  0.4825 -1.0249 -0.4208
17432TIP3    H273788   4.352   4.379  13.044  0.6117 -1.8102 -2.1126
17433TIP3   OH273789   2.536   1.696  12.226 -0.1234 -0.2789 -0.2930
17433TIP3    H173790   2.444   1.680  12.208  0.2030 -1.1688 -1.2392
17433TIP3    H273791   2.574   1.721  12.142  0.1461  1.9670  0.4261
17434TIP3   OH273792   6.787   2.811   1.661 -0.0984  0.0226  0.0171
17434TIP3    H173793   6.883   2.805   1.663 -0.0173  0.9936 -0.1202
17434TIP3    H273794   6.765   2.873   1.730 -0.3686  2.1063 -1.8075
17435TIP3   OH273795   5.416   4.258   3.234  0.0564 -0.0562  0.0873
17435TIP3    H173796   5.472   4.335   3.232 -0.2486  0.2154  1.1803
17435TIP3    H273797   5.391   4.244   3.143 -0.1662  1.3550 -0.0913
17436TIP3   OH273798   6.785   1.512  12.064  0.3370  0.2429 -0.2187
17436TIP3    H173799   6.861   1.454  12.057  0.9230  1.2188 -3.2177
17436TIP3    H273800   6.711   1.458  12.037 -0.0959 -0.5720  2.2677
17437TIP3   OH273801   4.038   4.303   2.501 -0.1403  0.2630 -0.3838
17437TIP3    H173802   4.023   4.385   2.548  0.3973  0.3020 -0.2688
17437TIP3    H273803   4.112   4.323   2.443  0.5304 -0.3704  0.2380
17438TIP3   OH273804   3.440   5.286   1.069 -0.1661  0.1742 -0.4149
17438TIP3    H173805   3.393   5.205   1.052 -0.6238  0.4920 -0.7184
17438TIP3    H273806   3.504   5.293   0.998 -1.3913  0.9936 -1.4931
17439TIP3   OH273807   1.601   4.870  15.065 -0.5517  0.1442 -0.1427
17439TIP3    H173808   1.646   4.837  15.143  1.2631 -0.3247 -1.3305
17439TIP3    H273809   1.637   4.958  15.052  1.1504 -0.7233 -1.8543
17440TIP3   OH273810   2.420   2.736   6.740  0.5397 -0.4071 -0.1142
17440TIP3    H173811   2.359   2.698   6.804  1.1228  1.0929  1.4391
17440TIP3    H273812   2.441   2.665   6.681  0.0275 -1.9213  1.4353
17441TIP3   OH273813   5.419   1.614  14.247 -0.0108  0.4313  0.2323
17441TIP3    H173814   5.363   1.688  14.272 -0.8591 -0.9724  2.8006
17441TIP3    H273815   5.452   1.579  14.330  2.6536 -0.3981 -1.0570
17442TIP3   OH273816   0.577   4.337  13.865 -0.2445  0.3804 -0.2056
17442TIP3    H173817   0.528   4.388  13.930 -0.6942 -0.3172  0.0274
17442TIP3    H273818   0.530   4.253  13.861  2.0970 -1.1849  1.6178
17443TIP3   OH273819   0.779   1.170  16.384 -0.7561 -0.0572 -0.4964
17443TIP3    H173820   0.770   1.113  16.460  0.0919 -0.6528 -0.8281
17443TIP3    H273821   0.689   1.186  16.355 -1.1472  0.9783  1.1888
17444TIP3   OH273822   1.791   3.986  16.613  0.3916 -0.4041 -0.1947
17444TIP3    H173823   1.800   4.029  16.528  2.5812  1.2222  0.7707
17444TIP3    H273824   1.804   3.893  16.594 -1.0457 -0.3182 -1.8487
17445TIP3   OH273825   1.646   3.616  15.995 -0.0263  0.4792  0.1483
17445TIP3    H173826   1.575   3.680  15.999 -0.9561 -0.4108 -1.2489
17445TIP3    H273827   1.717   3.663  15.951 -0.9075  0.4116 -1.4202
17446TIP3   OH273828   0.701   2.620  15.312  0.5383  0.0599  0.0782
17446TIP3    H173829   0.702   2.525  15.316  0.6778 -0.0222 -1.4654
17446TIP3    H273830   0.719   2.648  15.403 -0.7641 -1.3455  0.8006
17447TIP3   OH273831   3.679   3.358  12.734 -0.3115 -0.1831  0.4561
17447TIP3    H173832   3.589   3.357  12.703 -0.1174 -1.1096 -0.1371
17447TIP3    H273833   3.674   3.324  12.824 -0.5717 -0.0262  0.5022
17448TIP3   OH273834   5.988   4.862  12.298 -0.3550 -0.0932 -0.4100
17448TIP3    H173835   6.069   4.903  12.327  1.0597 -2.1281 -1.2606
17448TIP3    H273836   5.949   4.825  12.377  0.1685 -0.1477 -0.1792
17449TIP3   OH273837   1.684   2.168  11.792  0.1530  0.6389 -0.1058
17449TIP3    H173838   1.676   2.230  11.864 -1.2923 -0.0511  0.3575
17449TIP3    H273839   1.597   2.128  11.784  1.1372 -1.6460 -0.0928
17450TIP3   OH273840   0.629   5.934   2.949 -0.1441  0.1556  0.3981
17450TIP3    H173841   0.669   5.957   3.033  0.4757  0.7281 -0.0397
17450TIP3    H273842   0.541   5.971   2.953 -0.1910  0.0008  0.8720
17451TIP3   OH273843   6.831   1.072  14.124 -0.9008 -0.0066  0.1873
17451TIP3    H173844   6.899   1.007  14.107  1.0745  1.8299  0.6374
17451TIP3    H273845   6.834   1.130  14.048 -1.5521  0.4488  0.4993
17452TIP3   OH273846   6.420   2.264  12.784  0.1407  0.0824  0.3427
17452TIP3    H173847   6.436   2.221  12.700  1.5676 -0.1712  0.7168
17452TIP3    H273848   6.346   2.322  12.768  1.4310  1.2824 -1.5446
17453TIP3   OH273849   2.318   2.508   3.247 -0.4304  0.1208  0.1977
17453TIP3    H173850   2.278   2.429   3.284  1.1154 -0.7617  0.0524
17453TIP3    H273851   2.392   2.477   3.196  0.6648  1.7055  0.7217
17454TIP3   OH273852   0.220   1.063   0.099  1.2362  0.1926 -0.0898
17454TIP3    H173853   0.144   1.010   0.121  1.9276  0.0872  2.3232
17454TIP3    H273854   0.208   1.085   0.007 -1.6433  0.0947  0.1689
17455TIP3   OH273855   4.730   0.619   1.062  0.4272 -0.2287 -1.2848
17455TIP3    H173856   4.736   0.706   1.022 -0.0534  0.5639  0.2983
17455TIP3    H273857   4.726   0.636   1.156 -1.0275 -1.9073 -0.9975
17456TIP3   OH273858   2.268   5.054  12.974 -0.6493 -0.0838 -0.1531
17456TIP3    H173859   2.240   5.013  13.055 -1.7265 -0.6185 -0.7789
17456TIP3    H273860   2.211   5.017  12.906 -1.9997  2.6976 -0.7098
17457TIP3   OH273861   0.261   6.672  16.534  0.3936 -0.5695  0.2819
17457TIP3    H173862   0.339   6.690  16.587  0.2376  0.2293  0.2433
17457TIP3    H273863   0.255   6.745  16.472 -0.2922 -0.7051  0.1715
17458TIP3   OH273864   3.531   6.621   2.512 -0.0775  0.5291  1.0152
17458TIP3    H173865   3.550   6.628   2.419 -1.2461 -0.5690  0.6674
17458TIP3    H273866   3.617   6.607   2.553  0.2811 -0.7833 -0.0983
17459TIP3   OH273867   6.803   3.966   0.210 -0.7239 -0.1288  0.0961
17459TIP3    H173868   6.757   4.047   0.233  2.2904  1.7562 -0.0135
17459TIP3    H273869   6.799   3.962   0.115  0.6061  0.9323 -0.0394
17460TIP3   OH273870   0.291   5.147   3.017  0.6209 -0.2440 -0.3044
17460TIP3    H173871   0.216   5.153   2.959  0.9834 -0.0019 -0.7466
17460TIP3    H273872   0.319   5.237   3.031 -1.5152  0.1112  2.9948
17461TIP3   OH273873   5.548   2.371  15.752 -0.3486 -0.3172  0.2297
17461TIP3    H173874   5.618   2.331  15.700 -0.7350 -1.9039  0.8517
17461TIP3    H273875   5.469   2.324  15.724 -1.3405  1.9383 -0.9975
17462TIP3   OH273876   6.826   2.065  13.396  0.4668 -0.2014  0.1251
17462TIP3    H173877   6.828   2.068  13.491  0.1279  0.6175  0.1160
17462TIP3    H273878   6.823   1.972  13.375  0.6910 -0.3917  0.9085
17463TIP3   OH273879   2.387   4.478   5.201  0.0382  0.0774 -0.7627
17463TIP3    H173880   2.377   4.438   5.287  0.4693 -0.0667 -0.7769
17463TIP3    H273881   2.312   4.537   5.193 -1.9753 -2.4126 -1.6789
17464TIP3   OH273882   2.380   3.151  15.413  0.3403  0.5931 -0.2360
17464TIP3    H173883   2.320   3.084  15.380 -0.8438  1.2815  0.4593
17464TIP3    H273884   2.441   3.165  15.340 -2.6587  2.6691 -2.6504
17465TIP3   OH273885   0.062   1.762  16.622  0.1178 -0.1974  0.4732
17465TIP3    H173886   0.098   1.813  16.549  0.0872 -0.7735  0.0481
17465TIP3    H273887   0.093   1.673  16.607  0.0681 -0.3286  1.1413
17466TIP3   OH273888   2.308   0.035   5.222  0.1260 -0.3633 -0.3177
17466TIP3    H173889   2.301  -0.032   5.154 -0.7516 -0.6786  0.0693
17466TIP3    H273890   2.218   0.064   5.236  0.2897 -0.3421  0.7433
17467TIP3   OH273891   2.081   4.196  14.593  0.2967  0.2150 -0.2312
17467TIP3    H173892   2.068   4.102  14.580  0.0916 -0.0962  1.9151
17467TIP3    H273893   2.174   4.210  14.575  0.6999 -0.7216  0.9772
17468TIP3   OH273894   4.174   0.272  15.716  0.0308 -0.3947 -0.0208
17468TIP3    H173895   4.219   0.288  15.633 -0.3837 -0.7726 -0.3291
17468TIP3    H273896   4.240   0.235  15.773 -0.0960 -1.8161 -0.7641
17469TIP3   OH273897   0.967   3.322   3.514 -0.6216  0.3287  0.0672
17469TIP3    H173898   1.048   3.372   3.503  0.3270 -1.0572  0.5194
17469TIP3    H273899   0.989   3.233   3.488 -2.1616  0.0338 -0.3181
17470TIP3   OH273900   2.628   2.382  16.025 -0.6574 -0.0736  0.1466
17470TIP3    H173901   2.671   2.312  15.975 -0.3951  0.9474 -1.1115
17470TIP3    H273902   2.697   2.414  16.084 -0.0510  0.6190 -0.8871
17471TIP3   OH273903   5.857   3.688  11.300 -0.8368  0.3690  0.1769
17471TIP3    H173904   5.811   3.770  11.319 -0.3674  1.2717 -2.2498
17471TIP3    H273905   5.930   3.686  11.362 -1.6228  1.0848  1.1548
17472TIP3   OH273906   1.581   0.241   1.065  0.0397 -0.8699 -0.7854
17472TIP3    H173907   1.655   0.252   1.004  0.2889 -1.3791 -0.5849
17472TIP3    H273908   1.591   0.312   1.128  0.7148 -1.2842 -0.4112
17473TIP3   OH273909   2.629   1.952   2.938 -0.7908 -0.0428  0.3098
17473TIP3    H173910   2.705   1.995   2.978  1.6737 -1.2864 -2.6193
17473TIP3    H273911   2.641   1.860   2.958 -0.5226 -0.4538 -1.5465
17474TIP3   OH273912   0.458   4.194  15.565  0.3193  0.0296  0.1541
17474TIP3    H173913   0.437   4.286  15.579 -1.5519 -0.2778 -0.3603
17474TIP3    H273914   0.491   4.164  15.650  0.1501  0.9664  0.5666
17475TIP3   OH273915   1.898   5.713   4.028 -0.1055  0.0320 -0.0050
17475TIP3    H173916   1.926   5.693   4.117  1.0647 -1.6711 -0.6959
17475TIP3    H273917   1.961   5.777   3.997 -0.5962  0.7327  0.4080
17476TIP3   OH273918   2.439   4.633   2.725 -0.8849  0.1882 -0.0171
17476TIP3    H173919   2.521   4.612   2.679 -0.8398  1.5489 -0.6242
17476TIP3    H273920   2.467   4.664   2.811 -0.7765  0.2801 -0.0845
17477TIP3   OH273921   3.960   5.893  12.355 -0.3797  0.1848 -0.3733
17477TIP3    H173922   3.915   5.976  12.370 -1.1326 -0.4211  0.8985
17477TIP3    H273923   3.891   5.827  12.361  0.0898 -0.4998 -2.0366
17478TIP3   OH273924   4.847   5.609  16.777  0.5672  0.1520 -0.0486
17478TIP3    H173925   4.913   5.677  16.787  0.9787  0.0140 -1.6663
17478TIP3    H273926   4.887   5.530  16.814  1.0273  0.2413 -0.3557
17479TIP3   OH273927   2.707   5.969   2.545 -0.2817 -0.0710  0.3196
17479TIP3    H173928   2.724   6.019   2.625  0.2840 -0.5491  0.5007
17479TIP3    H273929   2.687   5.881   2.576  0.8313 -0.4866 -0.0997
17480TIP3   OH273930   5.912   4.434   0.667  0.0886 -0.7562  0.6935
17480TIP3    H173931   5.855   4.359   0.655 -2.0874  0.8070  0.6968
17480TIP3    H273932   5.918   4.474   0.580 -0.9470  0.4990  1.1626
17481TIP3   OH273933   3.567   5.157   5.835  0.1487  0.1870 -0.1093
17481TIP3    H173934   3.579   5.110   5.917 -0.6995  0.7985  0.3845
17481TIP3    H273935   3.505   5.103   5.785 -0.5933  0.6156  0.3336
17482TIP3   OH273936   6.047   6.606   1.449 -0.1542  0.2572 -0.3208
17482TIP3    H173937   6.023   6.553   1.373 -0.2518 -1.6220  0.9599
17482TIP3    H273938   5.972   6.663   1.464 -0.7236 -0.3661 -0.7871
17483TIP3   OH273939   2.934   0.883   0.467  0.3103  0.3882 -0.0400
17483TIP3    H173940   2.960   0.965   0.425  0.4116 -0.0029 -0.7580
17483TIP3    H273941   2.847   0.900   0.503  0.6425  1.0384  0.4792
17484TIP3   OH273942   4.698   5.094  12.569  0.2018  0.2495 -0.0306
17484TIP3    H173943   4.698   5.014  12.516  0.3339  0.0053  0.3307
17484TIP3    H273944   4.788   5.103  12.598  0.0545  0.1683  0.4647
17485TIP3   OH273945   1.052   2.113  16.397  0.7671  0.4882  0.3982
17485TIP3    H173946   0.982   2.084  16.339  0.6014  0.2719  0.7072
17485TIP3    H273947   1.133   2.088  16.352  0.6448 -1.8606  1.3520
17486TIP3   OH273948   3.877   0.894  16.924 -0.3117 -0.1550  0.6583
17486TIP3    H173949   3.793   0.853  16.904 -1.1461  1.5186  0.5056
17486TIP3    H273950   3.869   0.921  17.016 -1.1800  2.5992 -0.1186
17487TIP3   OH273951   4.022   2.173  14.298  0.0517  0.3288 -0.1690
17487TIP3    H173952   3.984   2.088  14.276 -0.4157  0.6055 -0.4519
17487TIP3    H273953   4.053   2.163  14.388 -0.7646  0.1198  0.0948
17488TIP3   OH273954   3.475   6.841   2.670 -0.2874  0.1859 -0.2719
17488TIP3    H173955   3.459   6.818   2.761  1.9728  2.1948  0.7348
17488TIP3    H273956   3.492   6.758   2.627 -0.6641 -0.7486  1.3090
17489TIP3   OH273957   6.012   2.319   1.107  0.2650  0.2796  0.2265
17489TIP3    H173958   5.947   2.343   1.173  1.1292  0.6137  0.9630
17489TIP3    H273959   6.096   2.340   1.147  0.8907 -1.0928 -0.3280
17490TIP3   OH273960   3.270   0.487  15.475  0.4404 -0.2983 -0.1611
17490TIP3    H173961   3.208   0.433  15.427  1.1210 -0.4057 -0.9297
17490TIP3    H273962   3.219   0.564  15.501  0.2356  0.1306 -1.7270
17491TIP3   OH273963   5.271   0.686   2.928  0.1887  0.5655  0.2898
17491TIP3    H173964   5.303   0.694   2.838 -0.9809  1.6222 -0.0679
17491TIP3    H273965   5.349   0.671   2.980  1.0499  1.2323 -0.7586
17492TIP3   OH273966   6.487   0.752   4.382  0.3231 -0.0863  0.2697
17492TIP3    H173967   6.456   0.661   4.375 -1.9906  0.6521 -0.0764
17492TIP3    H273968   6.502   0.779   4.291  1.2179 -0.1846  0.3870
17493TIP3   OH273969   3.484   2.822   1.561  0.0589  0.2463 -0.5253
17493TIP3    H173970   3.505   2.915   1.569 -0.7999  0.4744 -0.7424
17493TIP3    H273971   3.541   2.790   1.492  1.0738  0.3716  0.2370
17494TIP3   OH273972   2.631   0.617  12.626  0.1188  0.2340 -0.2747
17494TIP3    H173973   2.659   0.547  12.567 -2.0282 -1.6951  0.8321
17494TIP3    H273974   2.702   0.682  12.622  3.0555 -2.7010 -0.1073
17495TIP3   OH273975   3.955   0.768   3.116 -0.1895  0.1405 -0.5212
17495TIP3    H173976   3.880   0.732   3.163  0.1975  0.1914  0.1446
17495TIP3    H273977   4.027   0.708   3.135  0.6088  1.5008  1.0509
17496TIP3   OH273978   1.733   2.508  14.915 -0.6696  0.0819 -0.0979
17496TIP3    H173979   1.826   2.494  14.897 -0.6549 -1.4020  0.9077
17496TIP3    H273980   1.709   2.584  14.862  0.7163 -0.4942 -1.6432
17497TIP3   OH273981   2.100   2.615   0.713 -0.1184  0.4104 -0.0574
17497TIP3    H173982   2.096   2.666   0.633 -1.2240  0.1264 -0.2043
17497TIP3    H273983   2.157   2.665   0.771 -1.6841  2.1702  0.0459
17498TIP3   OH273984   4.098   2.344  11.428  0.3233 -0.3910  0.0483
17498TIP3    H173985   4.134   2.430  11.449 -0.5571  0.0714 -0.2623
17498TIP3    H273986   4.053   2.357  11.344  1.8542 -1.6403 -1.0062
17499TIP3   OH273987   4.704   5.083  16.604 -0.1030 -0.6805  0.1260
17499TIP3    H173988   4.706   5.111  16.512 -2.0129 -1.6562 -0.2548
17499TIP3    H273989   4.659   5.154  16.649 -2.1157 -1.5944 -0.3088
17500TIP3   OH273990   4.657   1.724  16.306 -0.0178 -0.4106 -0.5244
17500TIP3    H173991   4.666   1.731  16.401 -3.6083  0.9460 -0.1241
17500TIP3    H273992   4.611   1.641  16.292  1.3472 -1.0951 -1.2633
17501TIP3   OH273993   4.363   3.518   5.016 -0.0712  0.0132 -0.1653
17501TIP3    H173994   4.316   3.438   4.996 -1.3011  0.7201 -0.1909
17501TIP3    H273995   4.392   3.552   4.931  0.1534 -0.2096 -0.1810
17502TIP3   OH273996   0.462   3.120  12.203 -0.0137  0.0113  0.2193
17502TIP3    H173997   0.550   3.085  12.184  0.2978  0.2710  1.1474
17502TIP3    H273998   0.406   3.080  12.136  0.0251 -3.4995  2.0114
17503TIP3   OH273999   4.281   0.736  14.830 -0.0912 -0.1922  0.2501
17503TIP3    H174000   4.236   0.697  14.755 -0.7620 -0.7709  0.9245
17503TIP3    H274001   4.313   0.820  14.798  0.6637 -0.9318 -1.0073
17504TIP3   OH274002   6.451   0.516   1.593  0.0119 -0.0731  0.1618
17504TIP3    H174003   6.474   0.606   1.618  0.1614  0.0728 -0.4880
17504TIP3    H274004   6.436   0.471   1.676  1.2387  0.2044  0.5610
17505TIP3   OH274005   1.493   2.307  12.741  0.3153  0.2763 -0.1605
17505TIP3    H174006   1.483   2.282  12.833 -0.0374  1.2381  0.0718
17505TIP3    H274007   1.536   2.392  12.743  0.5050  0.2076 -0.8978
17506TIP3   OH274008   2.096   5.706  10.945 -0.4873 -0.1825  0.6178
17506TIP3    H174009   2.072   5.741  11.030 -0.2704 -0.4866  0.8070
17506TIP3    H274010   2.091   5.781  10.886 -0.4523  0.0722  0.9350
17507TIP3   OH274011   6.120   0.667   3.391 -0.2882 -0.3844 -0.1293
17507TIP3    H174012   6.041   0.683   3.339 -0.8169  0.0825  0.7975
17507TIP3    H274013   6.101   0.704   3.477 -0.0233 -2.4751  0.9104
17508TIP3   OH274014   6.819   6.577  15.939  0.3670  0.1356 -0.1284
17508TIP3    H174015   6.787   6.594  16.027  1.0885  1.1943 -0.0525
17508TIP3    H274016   6.759   6.512  15.903  0.0182 -0.2450  1.1098
17509TIP3   OH274017   0.012   2.299   3.170 -0.1547  0.1160 -0.4866
17509TIP3    H174018   0.076   2.370   3.158 -0.3285  0.5410  1.0016
17509TIP3    H274019  -0.030   2.292   3.084  2.2248 -0.5385 -1.7021
17510TIP3   OH274020   6.256   5.327   0.865 -0.0443  0.1307  0.0413
17510TIP3    H174021   6.337   5.356   0.822 -0.2602  1.8922  0.7542
17510TIP3    H274022   6.237   5.395   0.930 -0.7430 -1.4954  1.6461
17511TIP3   OH274023   1.819   6.598  15.667 -0.1091 -0.0003 -0.6429
17511TIP3    H174024   1.905   6.638  15.651  0.6686 -1.5989 -0.6852
17511TIP3    H274025   1.759   6.672  15.671  1.0742  1.0996 -1.8468
17512TIP3   OH274026   5.246   6.874   3.543 -0.4476  0.0533  0.2893
17512TIP3    H174027   5.157   6.867   3.578 -0.1687 -2.3857  0.6950
17512TIP3    H274028   5.300   6.893   3.619 -0.6910  2.8187 -0.1416
17513TIP3   OH274029   6.767   6.072   3.359 -0.5926  0.1771 -0.3250
17513TIP3    H174030   6.801   6.154   3.394  1.4253 -0.4132 -0.7482
17513TIP3    H274031   6.714   6.036   3.430  0.0624  0.9471  0.5856
17514TIP3   OH274032   6.384   3.769  11.621 -0.8439  0.1248 -0.1458
17514TIP3    H174033   6.342   3.848  11.585  0.2499  0.1680 -1.3860
17514TIP3    H274034   6.418   3.797  11.706 -0.5280  0.9956 -0.5412
17515TIP3   OH274035   2.301   6.316   5.499  0.0467  0.1684 -0.0758
17515TIP3    H174036   2.284   6.249   5.432 -1.1862  1.9988 -1.6975
17515TIP3    H274037   2.340   6.388   5.450  0.0693  1.1666  1.3863
17516TIP3   OH274038   4.393   5.098   4.201  0.5512 -0.2299  0.5065
17516TIP3    H174039   4.460   5.088   4.134  1.4762 -4.0042  1.7329
17516TIP3    H274040   4.347   5.014   4.202 -1.3984  0.7365  2.6245
17517TIP3   OH274041   2.674   6.031   1.484  0.3351  0.4244 -0.0974
17517TIP3    H174042   2.669   6.059   1.393  1.0403  1.6168  0.2045
17517TIP3    H274043   2.583   6.029   1.514  0.1993  1.4711 -0.4117
17518TIP3   OH274044   1.277   1.796  12.536  0.6813  0.2775  0.0444
17518TIP3    H174045   1.294   1.887  12.559 -1.4546  0.4720  1.1656
17518TIP3    H274046   1.206   1.770  12.595  0.0905 -1.5929 -1.4020
17519TIP3   OH274047   2.652   4.956   4.477 -0.1906 -0.2913  0.2306
17519TIP3    H174048   2.719   5.024   4.472  0.2132 -0.4880  2.1330
17519TIP3    H274049   2.633   4.948   4.571  0.0646 -3.0594  0.1342
17520TIP3   OH274050   1.872   2.938  17.034 -0.5183 -0.3012  0.2653
17520TIP3    H174051   1.908   2.920  17.121  2.2743 -1.2285 -0.9679
17520TIP3    H274052   1.916   3.018  17.006  0.1437 -1.0844 -1.0368
17521TIP3   OH274053   0.319   4.074  12.606 -0.8097  0.7501  0.3807
17521TIP3    H174054   0.355   4.000  12.656 -1.8290  0.3311  0.5238
17521TIP3    H274055   0.388   4.139  12.606  1.7667 -1.6226 -3.0522
17522TIP3   OH274056   1.744   1.957   6.670 -0.2560  0.8088 -0.3947
17522TIP3    H174057   1.764   2.036   6.619 -0.9046  1.1271 -0.1706
17522TIP3    H274058   1.730   1.889   6.604 -0.8001  1.1490 -0.6417
17523TIP3   OH274059   2.351   5.335   1.736 -0.5547 -0.1860 -0.2253
17523TIP3    H174060   2.411   5.410   1.736  0.9953 -1.3812 -0.2798
17523TIP3    H274061   2.276   5.365   1.684  0.0680  1.2832 -0.3384
17524TIP3   OH274062   6.677   2.296  11.741 -0.0595  0.1297 -0.1121
17524TIP3    H174063   6.602   2.257  11.697  0.9179  0.7373 -2.4479
17524TIP3    H274064   6.722   2.222  11.782 -0.1919 -0.6925 -1.4009
17525TIP3   OH274065   5.861   0.235  15.584 -0.1638 -0.3692 -0.4280
17525TIP3    H174066   5.907   0.304  15.631 -1.6381  0.2743  0.1244
17525TIP3    H274067   5.849   0.166  15.648  0.3401 -0.6984 -0.6788
17526TIP3   OH274068   3.170   6.464   3.436  0.8786 -0.2347 -0.0568
17526TIP3    H174069   3.095   6.508   3.476 -0.0637 -0.9764 -0.9740
17526TIP3    H274070   3.245   6.493   3.489 -0.2686 -0.9864  2.1210
17527TIP3   OH274071   0.035   4.948   6.294  0.6742  0.3991 -0.2247
17527TIP3    H174072   0.108   5.004   6.268  0.4341  1.3206  0.9900
17527TIP3    H274073  -0.043   4.993   6.260  0.4759  0.8505  0.8004
17528TIP3   OH274074   1.767   4.404  11.705 -0.3974 -0.1744 -0.2229
17528TIP3    H174075   1.701   4.399  11.636 -1.0635  1.5090  0.2350
17528TIP3    H274076   1.811   4.488  11.690  0.1170 -0.2516  0.7877
17529TIP3   OH274077   4.143   5.616   2.706  0.3957  0.1469 -0.6120
17529TIP3    H174078   4.098   5.532   2.710  0.1505  0.3194  1.5454
17529TIP3    H274079   4.144   5.639   2.613 -0.2501 -1.8387 -1.1505
17530TIP3   OH274080   2.645   3.524   3.105 -0.4570  0.1983 -0.5904
17530TIP3    H174081   2.713   3.468   3.068 -0.3207  0.4067 -0.6607
17530TIP3    H274082   2.629   3.591   3.038  0.7478  1.3801  0.2341
17531TIP3   OH274083   2.992   4.259  15.226 -0.4455 -0.7323 -0.1157
17531TIP3    H174084   3.059   4.216  15.172  2.1300  0.8356  1.6351
17531TIP3    H274085   2.973   4.196  15.295  2.4846  0.2858  1.7956
17532TIP3   OH274086   4.640   3.342  11.447 -0.0887  0.2728  0.2792
17532TIP3    H174087   4.547   3.328  11.429 -0.0195 -0.3141  0.3749
17532TIP3    H274088   4.664   3.271  11.506  0.4803  0.2959  0.0799
17533TIP3   OH274089   3.336   5.234   5.486  0.6805 -0.4017  0.6978
17533TIP3    H174090   3.346   5.141   5.469 -0.7366 -0.5782  0.6473
17533TIP3    H274091   3.241   5.249   5.481  0.9733  1.4152 -1.3072
17534TIP3   OH274092   3.144   1.613  11.389 -0.2948  0.5053  0.6754
17534TIP3    H174093   3.113   1.680  11.328 -0.0671 -0.3420 -0.3965
17534TIP3    H274094   3.112   1.642  11.475 -0.9772  1.5007  0.1012
17535TIP3   OH274095   3.315   3.670   5.504 -0.4078 -0.2779  0.6490
17535TIP3    H174096   3.351   3.673   5.415 -2.0656 -1.9820 -0.1490
17535TIP3    H274097   3.250   3.740   5.506 -3.0166 -2.4143 -0.8573
17536TIP3   OH274098   3.196   6.733   2.496  0.7871 -0.1019 -0.2808
17536TIP3    H174099   3.186   6.670   2.567 -0.5435  1.3495  0.8936
17536TIP3    H274100   3.205   6.817   2.540  1.8383  0.6375 -1.8275
17537TIP3   OH274101   1.925   6.850   0.336 -0.1914  0.1871  0.5382
17537TIP3    H174102   2.011   6.890   0.319  0.1408 -0.3573  0.8885
17537TIP3    H274103   1.887   6.835   0.250  0.8109 -1.1522  0.3069
17538TIP3   OH274104   6.038   3.043  15.119 -0.3419 -0.2117 -0.2121
17538TIP3    H174105   6.025   3.108  15.188 -2.5231  0.9176 -1.5702
17538TIP3    H274106   6.026   3.092  15.037 -1.7880 -2.2331 -1.2969
17539TIP3   OH274107   0.674   0.391   0.277 -0.2706 -0.2695  0.5083
17539TIP3    H174108   0.744   0.409   0.213 -0.4031  0.9742  0.6881
17539TIP3    H274109   0.713   0.412   0.361 -0.2138 -1.5691  0.8227
17540TIP3   OH274110   1.659   1.543   3.841  0.1795  0.0453 -0.3412
17540TIP3    H174111   1.569   1.511   3.845  0.0722  0.3731 -0.1580
17540TIP3    H274112   1.703   1.482   3.782  0.3208 -1.2807  1.0745
17541TIP3   OH274113   2.220   3.258   0.184  0.0072 -0.3076 -0.2301
17541TIP3    H174114   2.253   3.295   0.266 -2.1601  0.9157  0.1590
17541TIP3    H274115   2.252   3.318   0.117 -1.3075  0.8333  0.1343
17542TIP3   OH274116   2.548   4.038   3.483  0.1165 -0.5351  0.1494
17542TIP3    H174117   2.631   4.046   3.435 -1.1151  0.7585 -1.9221
17542TIP3    H274118   2.536   4.124   3.524 -0.0111 -0.8619  0.8084
17543TIP3   OH274119   1.468   2.679  14.853  0.1095 -0.0154 -0.4226
17543TIP3    H174120   1.452   2.718  14.767 -0.7865  1.3148  0.3100
17543TIP3    H274121   1.451   2.585  14.840 -1.6789  0.3846 -1.3333
17544TIP3   OH274122   4.726   4.015  11.665 -0.1777 -0.6899  0.4274
17544TIP3    H174123   4.692   3.970  11.587  1.7303 -0.0914 -0.8184
17544TIP3    H274124   4.803   3.965  11.691  0.8673  0.7121  0.1686
17545TIP3   OH274125   6.879   6.238   2.260 -0.6257  0.9049  0.8647
17545TIP3    H174126   6.972   6.219   2.244 -1.0736  0.1788 -1.2392
17545TIP3    H274127   6.860   6.198   2.344 -0.0715 -3.0510 -0.6912
17546TIP3   OH274128   4.390   2.259   6.750 -0.2032  0.2991  1.0484
17546TIP3    H174129   4.365   2.237   6.839 -2.6252  0.0127  0.3577
17546TIP3    H274130   4.329   2.211   6.695  1.5023  0.1191 -0.8192
17547TIP3   OH274131   6.073   6.801   3.064  0.4980  0.1985 -0.2146
17547TIP3    H174132   6.109   6.816   2.976 -2.0383  1.8672 -1.1019
17547TIP3    H274133   6.015   6.725   3.053 -1.0737  1.3908 -0.4504
17548TIP3   OH274134   0.739   2.212   2.083  0.4433  0.5799  0.5178
17548TIP3    H174135   0.776   2.299   2.069  2.5704 -0.2214  0.7233
17548TIP3    H274136   0.793   2.154   2.029 -0.2246 -0.7487  1.2167
17549TIP3   OH274137   2.385   5.245   4.880 -0.2760  0.2717  0.1829
17549TIP3    H174138   2.399   5.185   4.954 -1.1963 -1.3698 -0.8986
17549TIP3    H274139   2.472   5.281   4.862  0.2427 -0.4749  1.0987
17550TIP3   OH274140   2.640   2.643  10.504 -0.0267 -0.0961 -0.1332
17550TIP3    H174141   2.557   2.674  10.467 -0.8282 -1.1127  0.7443
17550TIP3    H274142   2.619   2.558  10.542  0.7737  0.7105  2.3664
17551TIP3   OH274143   5.010   5.405  16.928  0.1838 -0.0044 -0.3460
17551TIP3    H174144   5.015   5.439  17.017 -1.0120 -3.1220  1.0739
17551TIP3    H274145   5.085   5.347  16.921  0.3883  0.3834 -1.4891
17552TIP3   OH274146   6.227   6.084  14.658 -0.2000 -0.6942 -0.4904
17552TIP3    H174147   6.287   6.157  14.666 -0.1764 -0.8615  1.2354
17552TIP3    H274148   6.281   6.011  14.629  0.1729 -0.5399 -0.1827
17553TIP3   OH274149   0.960   6.341  15.680 -0.0446 -0.4866 -0.2431
17553TIP3    H174150   0.999   6.255  15.668 -1.3955 -1.2024  0.2759
17553TIP3    H274151   1.003   6.377  15.758  0.4463 -0.7228 -0.4016
17554TIP3   OH274152   4.517   4.178   5.436 -0.0244  0.0010  0.0852
17554TIP3    H174153   4.567   4.260   5.437  0.5830 -0.3282 -1.0613
17554TIP3    H274154   4.534   4.141   5.349 -1.4257 -0.6530  0.0584
17555TIP3   OH274155   4.853   5.990   2.637  0.4089 -0.3222  0.2858
17555TIP3    H174156   4.871   5.903   2.672  0.1418 -0.1613  0.8261
17555TIP3    H274157   4.817   6.039   2.711 -1.8767 -0.5055 -0.6288
17556TIP3   OH274158   1.589   1.271  12.645  0.1177 -0.7272 -0.2353
17556TIP3    H174159   1.631   1.205  12.700  0.3116 -1.7154 -1.5359
17556TIP3    H274160   1.656   1.296  12.582 -0.2191  0.1317 -0.2680
17557TIP3   OH274161   2.323   3.981   2.216  0.2459  0.8515 -0.2674
17557TIP3    H174162   2.312   3.899   2.265  2.0581  1.4921  1.3286
17557TIP3    H274163   2.237   3.997   2.179 -0.2460 -1.6289 -0.4123
17558TIP3   OH274164   2.574   5.796  12.902 -0.0351 -0.0752  0.4175
17558TIP3    H174165   2.623   5.822  12.980  0.0235 -0.8588  0.6463
17558TIP3    H274166   2.622   5.835  12.829  0.4451 -0.1299  0.7036
17559TIP3   OH274167   2.814   6.640   2.211 -0.6156  0.0407  0.3537
17559TIP3    H174168   2.858   6.724   2.223  0.3727 -0.3437 -0.4465
17559TIP3    H274169   2.879   6.575   2.237 -0.6271 -0.5472 -1.0185
17560TIP3   OH274170   6.240   5.321  14.692  0.3191 -0.0312  0.4090
17560TIP3    H174171   6.293   5.241  14.694  1.8135  0.9170  0.4602
17560TIP3    H274172   6.284   5.380  14.753  1.8208  2.3007 -2.6427
17561TIP3   OH274173   0.462   1.578  16.940  0.5087  0.1852 -0.4394
17561TIP3    H174174   0.542   1.557  16.988 -0.3076 -0.0641  0.8543
17561TIP3    H274175   0.400   1.607  17.007 -0.6469 -0.0858 -1.3549
17562TIP3   OH274176   5.727   2.680  14.614  0.3320 -0.4046 -0.2275
17562TIP3    H174177   5.770   2.652  14.533  1.0579 -2.6297  0.8430
17562TIP3    H274178   5.658   2.615  14.628 -0.2812  0.3847  0.5624
17563TIP3   OH274179   6.647   5.376  11.294 -0.0188  1.3820 -0.3445
17563TIP3    H174180   6.657   5.281  11.290 -1.2288  1.2114  0.1478
17563TIP3    H274181   6.685   5.400  11.379 -0.7630  1.1617  0.0676
17564TIP3   OH274182   1.066   6.415   3.053 -0.1733 -0.4074  0.2792
17564TIP3    H174183   1.002   6.381   3.115 -1.2132  0.3344 -0.3462
17564TIP3    H274184   1.115   6.338   3.024 -2.4184 -1.4227 -1.0622
17565TIP3   OH274185   6.713   6.361  12.512  0.2039 -0.0377 -0.9515
17565TIP3    H174186   6.619   6.374  12.499  0.3720  0.4749 -1.7671
17565TIP3    H274187   6.720   6.279  12.560 -0.6684  0.0092 -0.7346
17566TIP3   OH274188   6.285   5.666  12.926  0.1811 -0.2721 -0.2175
17566TIP3    H174189   6.337   5.616  12.864  1.4614 -1.1146  1.4662
17566TIP3    H274190   6.223   5.603  12.962  0.5126 -0.1945  0.5027
17567TIP3   OH274191   0.526   4.073  13.797  0.3414 -0.0792 -0.5357
17567TIP3    H174192   0.455   4.086  13.735 -0.5037 -0.7002  0.2637
17567TIP3    H274193   0.600   4.045  13.744 -0.3625 -0.5873 -1.2684
17568TIP3   OH274194   3.709   3.931  16.185  0.0268  0.4015 -0.3073
17568TIP3    H174195   3.714   3.844  16.146 -1.9850  0.6245 -1.1619
17568TIP3    H274196   3.631   3.929  16.240  1.1656  1.0311  1.4147
17569TIP3   OH274197   1.858   3.320   3.348  0.9262  0.2442 -0.0542
17569TIP3    H174198   1.819   3.405   3.328  0.5664 -0.2325 -1.4795
17569TIP3    H274199   1.953   3.335   3.344  0.8780  0.7644  0.6006
17570TIP3   OH274200   0.788   4.752  16.311 -0.0397  0.3406  0.1743
17570TIP3    H174201   0.719   4.818  16.321 -0.6884 -0.2823 -0.0397
17570TIP3    H274202   0.794   4.710  16.396  0.6389  0.9277  0.4162
17571TIP3   OH274203   1.304   1.543   2.094 -0.2203 -0.1008 -0.4458
17571TIP3    H174204   1.265   1.459   2.070 -0.5805  0.3470 -1.4876
17571TIP3    H274205   1.342   1.528   2.180 -0.9113 -1.1274 -0.3022
17572TIP3   OH274206   4.992   2.095  13.791  0.0644  0.5908  0.4625
17572TIP3    H174207   5.075   2.140  13.806 -0.1656  0.8545  1.0001
17572TIP3    H274208   4.948   2.147  13.724  0.5250  0.1856 -0.1655
17573TIP3   OH274209   4.472   4.980   1.582  0.0956  0.4543  0.4659
17573TIP3    H174210   4.422   4.959   1.503  0.7420 -2.9261  0.7888
17573TIP3    H274211   4.405   4.995   1.650 -0.4924 -0.4827  0.1099
17574TIP3   OH274212   4.926   1.694   1.231  0.4111 -0.2327  0.0712
17574TIP3    H174213   4.949   1.730   1.146 -1.7072 -0.6972 -0.7743
17574TIP3    H274214   4.910   1.771   1.286  1.5985  0.0693  0.0189
17575TIP3   OH274215   3.872   1.998   4.655 -0.4073 -0.2506  0.3677
17575TIP3    H174216   3.868   1.973   4.747 -0.2232 -0.1518  0.4044
17575TIP3    H274217   3.853   2.092   4.655  0.4956 -0.0539  0.4073
17576TIP3   OH274218   4.566   3.609  11.000 -0.9620 -0.8379 -0.4773
17576TIP3    H174219   4.480   3.579  10.970 -1.6253 -1.3139  1.7297
17576TIP3    H274220   4.623   3.533  10.988 -0.6868 -0.3971 -2.3287
17577TIP3   OH274221   3.311   4.809  11.526  0.5737  0.1251  0.5315
17577TIP3    H174222   3.394   4.853  11.546  0.9431 -1.0720  1.7726
17577TIP3    H274223   3.298   4.825  11.432  1.7978  1.0010  0.4774
17578TIP3   OH274224   5.307   3.163   3.253  0.0599  0.0511 -0.3368
17578TIP3    H174225   5.302   3.068   3.250 -0.7682  0.0783  0.0009
17578TIP3    H274226   5.380   3.181   3.313 -0.0944 -0.3656 -0.0216
17579TIP3   OH274227   3.319   0.757   5.796  0.1140 -0.4086 -1.0507
17579TIP3    H174228   3.351   0.720   5.714 -0.2280 -0.4582 -1.1638
17579TIP3    H274229   3.314   0.851   5.780  0.6035 -0.3531 -0.8936
17580TIP3   OH274230   1.341   0.334   2.747 -0.1101 -0.3383  0.0681
17580TIP3    H174231   1.411   0.399   2.751  0.6788 -1.2133  1.6636
17580TIP3    H274232   1.382   0.253   2.780 -1.7179 -0.9906  0.5485
17581TIP3   OH274233   4.589   0.226  14.404  0.3771 -0.4333  0.1154
17581TIP3    H174234   4.575   0.321  14.399  1.6359 -0.1957  0.6707
17581TIP3    H274235   4.684   0.216  14.407  0.2955 -1.7917 -1.0312
17582TIP3   OH274236   1.626   1.898  12.377  0.5425  0.0274 -0.3794
17582TIP3    H174237   1.670   1.857  12.451  0.0069  1.2821  0.6672
17582TIP3    H274238   1.584   1.825  12.331  1.5233 -0.8602  0.0895
17583TIP3   OH274239   6.705   2.816  13.133 -0.2157 -0.0802  0.0150
17583TIP3    H174240   6.643   2.873  13.179  1.4417  0.4602  1.7253
17583TIP3    H274241   6.670   2.728  13.147 -0.8340  0.2380  0.5566
17584TIP3   OH274242   0.812   2.223  14.565 -0.7482  0.8979 -0.7749
17584TIP3    H174243   0.818   2.155  14.498  0.9726  0.4859 -0.2586
17584TIP3    H274244   0.769   2.297  14.521 -0.9412  0.1479 -1.8919
17585TIP3   OH274245   4.807   4.810   6.025  0.4969  0.1514  0.3081
17585TIP3    H174246   4.879   4.770   6.074  0.8149  1.0297  0.5806
17585TIP3    H274247   4.766   4.737   5.979  1.7053 -0.3524 -0.0368
17586TIP3   OH274248   5.867   6.763  10.245  0.1149 -0.2073 -0.4554
17586TIP3    H174249   5.864   6.815  10.165  1.5645  0.6656  0.0142
17586TIP3    H274250   5.940   6.703  10.231  0.7372  0.3272  0.4073
17587TIP3   OH274251   0.796   0.436  15.209 -0.2858  0.3927 -0.3287
17587TIP3    H174252   0.767   0.391  15.288 -0.1141  0.1660 -0.3910
17587TIP3    H274253   0.754   0.522  15.213 -1.1900 -0.0260 -0.5614
17588TIP3   OH274254   5.332   1.727  16.825  0.1319  0.5320  0.7558
17588TIP3    H174255   5.273   1.667  16.869  0.6757 -0.7125 -0.1616
17588TIP3    H274256   5.420   1.702  16.856  0.3546  0.9323  0.4603
17589TIP3   OH274257   3.625   3.595  13.935  0.3596 -0.3133  0.4480
17589TIP3    H174258   3.720   3.584  13.937  0.2221 -1.7493  2.6893
17589TIP3    H274259   3.609   3.674  13.988  0.2850 -0.2624  0.3497
17590TIP3   OH274260   2.845   5.183  12.911  0.1767  0.2523 -0.0193
17590TIP3    H174261   2.830   5.256  12.851 -3.7376 -1.7028 -1.7581
17590TIP3    H274262   2.889   5.117  12.858  0.4175  0.0124  0.4748
17591TIP3   OH274263   4.913   2.867  12.561 -0.0767 -0.1634  0.1725
17591TIP3    H174264   4.957   2.951  12.550  0.4745 -0.3089  1.1170
17591TIP3    H274265   4.973   2.803  12.521 -0.4237 -0.1356 -0.4086
17592TIP3   OH274266   4.693   1.566  16.680  0.1802 -0.4242  0.5563
17592TIP3    H174267   4.783   1.559  16.711  0.6106  0.4967 -0.4109
17592TIP3    H274268   4.675   1.482  16.638  0.8828 -0.3188  0.0368
17593TIP3   OH274269   4.070   1.941  10.638 -0.2814 -0.0105 -0.0474
17593TIP3    H174270   4.020   1.887  10.699  0.7196 -0.4112  0.4354
17593TIP3    H274271   4.032   1.922  10.552 -0.1225 -1.2694  0.1478
17594TIP3   OH274272   5.557   1.138   5.893 -0.0593  0.7010  0.1841
17594TIP3    H174273   5.530   1.186   5.815  0.3084  0.1479 -0.2915
17594TIP3    H274274   5.616   1.070   5.861  1.1775  1.3000  1.0974
17595TIP3   OH274275   1.965   4.665  13.248  0.1574 -0.2202 -0.1507
17595TIP3    H174276   1.935   4.752  13.221 -0.7682  0.3058  2.3741
17595TIP3    H274277   2.059   4.666  13.230  0.1727  1.3158 -0.1267
17596TIP3   OH274278   6.254   2.644   3.259  0.1627  0.3892 -0.4703
17596TIP3    H174279   6.334   2.596   3.281  0.7553  2.4125  2.3207
17596TIP3    H274280   6.274   2.688   3.177  0.3414 -2.2746 -1.9860
17597TIP3   OH274281   3.100   0.915   0.693 -0.4434 -0.5884 -0.1995
17597TIP3    H174282   3.153   0.994   0.676 -0.5414  0.0769  2.2240
17597TIP3    H274283   3.060   0.895   0.609  1.2958  0.6704 -1.4014
17598TIP3   OH274284   3.121   3.297   3.893  0.5117 -0.2537  0.6523
17598TIP3    H174285   3.035   3.283   3.854  0.7490  1.4501 -0.5651
17598TIP3    H274286   3.120   3.388   3.923  2.0370 -0.0711  0.2304
17599TIP3   OH274287   1.480   2.210   0.314  0.3775  0.1030  0.0312
17599TIP3    H174288   1.450   2.120   0.322 -1.5281  0.6978  0.0945
17599TIP3    H274289   1.407   2.256   0.272  0.9809  1.7802  0.7355
17600TIP3   OH274290   4.012   6.392  12.051 -0.3717 -0.0851 -0.0172
17600TIP3    H174291   3.966   6.414  11.970 -1.7383 -2.0116  0.1670
17600TIP3    H274292   4.021   6.297  12.048  2.2535  0.0609  0.7223
17601TIP3   OH274293   2.746   5.781   5.794  0.6390 -0.0671  0.0005
17601TIP3    H174294   2.818   5.828   5.753 -0.9816  1.0268 -1.8043
17601TIP3    H274295   2.785   5.700   5.826  3.1788  1.6385  1.5830
17602TIP3   OH274296   0.954   2.345  12.132 -0.0821 -0.6220 -0.3689
17602TIP3    H174297   0.902   2.312  12.059 -1.5398 -0.8420  0.7181
17602TIP3    H274298   0.916   2.430  12.152 -1.6209 -1.7363  1.8884
17603TIP3   OH274299   2.784   1.885   4.532  0.4849 -0.5168  0.2619
17603TIP3    H174300   2.819   1.916   4.615  1.3400  1.0595 -0.6272
17603TIP3    H274301   2.858   1.889   4.472 -0.4893 -0.0242 -0.9525
17604TIP3   OH274302   6.241   1.842  12.697 -0.0008 -0.1479  0.0471
17604TIP3    H174303   6.187   1.765  12.713  0.1968 -0.5360 -1.0568
17604TIP3    H274304   6.329   1.807  12.678 -0.3342  0.1489 -2.4725
17605TIP3   OH274305   3.624   4.026   0.681 -0.4046  0.0973 -0.2129
17605TIP3    H174306   3.710   3.985   0.672  0.7375  2.2668  0.1628
17605TIP3    H274307   3.623   4.061   0.770 -1.3198  0.8304 -0.4918
17606TIP3   OH274308   5.341   6.445  16.349 -0.4781  0.0449  0.7320
17606TIP3    H174309   5.373   6.533  16.368  1.1356 -0.5067  0.6884
17606TIP3    H274310   5.252   6.459  16.316 -0.4100  1.6163  1.1184
17607TIP3   OH274311   1.746   6.087   0.799 -0.2917  0.0245  0.2148
17607TIP3    H174312   1.739   6.172   0.842 -1.1966 -0.1376  0.4014
17607TIP3    H274313   1.666   6.041   0.823  0.9049 -1.5256  1.5010
17608TIP3   OH274314   6.257   4.538  12.499  0.5581  0.4338 -0.1644
17608TIP3    H174315   6.255   4.449  12.536  0.1713  0.3125 -0.4739
17608TIP3    H274316   6.166   4.556  12.477  0.7362  0.6535 -0.7185
17609TIP3   OH274317   2.952   2.629   3.802 -0.1030 -0.0076 -0.4580
17609TIP3    H174318   2.928   2.596   3.889 -1.0483 -0.9704 -1.0599
17609TIP3    H274319   2.961   2.550   3.749  1.4929  0.5093 -1.0062
17610TIP3   OH274320   5.204   0.901   0.162 -0.1673  0.2621 -0.2309
17610TIP3    H174321   5.205   0.946   0.246 -0.1546 -0.8186  0.3525
17610TIP3    H274322   5.190   0.809   0.183 -0.4097  0.0029 -1.4226
17611TIP3   OH274323   5.158   1.774  13.601  0.2727 -0.0581  0.4963
17611TIP3    H174324   5.102   1.781  13.678 -1.0593 -1.3370 -0.2952
17611TIP3    H274325   5.218   1.848  13.608  0.5551 -0.4256  3.0282
17612TIP3   OH274326   3.197   4.187  11.441 -0.0027 -0.7184 -0.0013
17612TIP3    H174327   3.130   4.201  11.373  0.5954 -0.4710 -0.5527
17612TIP3    H274328   3.280   4.194  11.394  0.5999  3.1032  1.2824
17613TIP3   OH274329   0.848   5.021  11.685 -0.6661 -0.0789 -0.5199
17613TIP3    H174330   0.764   5.059  11.707  0.0139  0.7810  0.7270
17613TIP3    H274331   0.884   4.992  11.769  0.7327  0.5497 -0.8672
17614TIP3   OH274332   5.272   5.528  15.460  0.0661 -0.1466 -0.4314
17614TIP3    H174333   5.193   5.526  15.406  0.8285 -2.3415 -1.5948
17614TIP3    H274334   5.274   5.616  15.497 -2.9303 -0.0274 -0.3016
17615TIP3   OH274335   5.309   2.761   2.686  0.6550 -0.2933  0.6107
17615TIP3    H174336   5.349   2.848   2.693  0.7817 -0.2031 -0.9106
17615TIP3    H274337   5.279   2.755   2.595 -1.3682 -0.9948  1.2626
17616TIP3   OH274338   4.242   0.816   0.896  0.0662 -0.1710  0.2951
17616TIP3    H174339   4.229   0.759   0.820 -1.5779 -0.2644  0.6129
17616TIP3    H274340   4.330   0.795   0.927  0.0071 -1.5521 -0.4042
17617TIP3   OH274341   2.763   0.609   0.061 -0.3690  0.4706  0.3104
17617TIP3    H174342   2.717   0.530   0.089 -3.1558  1.7013 -0.4140
17617TIP3    H274343   2.844   0.577   0.020 -2.4516 -2.2271 -2.0927
17618TIP3   OH274344   2.251   5.386   4.638 -0.2906  0.5610  0.2375
17618TIP3    H174345   2.179   5.430   4.593  1.2659  2.6038 -0.4651
17618TIP3    H274346   2.258   5.431   4.722  0.5702  0.8510  0.0185
17619TIP3   OH274347   2.876   2.604  17.017  0.2640 -0.1680  0.2015
17619TIP3    H174348   2.951   2.611  17.077 -1.7682 -0.4985  3.0266
17619TIP3    H274349   2.844   2.694  17.009 -0.1001 -0.2582  0.5652
17620TIP3   OH274350   6.159   1.306  10.578  0.6838 -0.2398 -0.4817
17620TIP3    H174351   6.113   1.248  10.517  0.0265  0.9522 -1.1351
17620TIP3    H274352   6.246   1.317  10.539  0.9755 -1.1175 -0.1219
17621TIP3   OH274353   1.473   2.018   5.105  0.1568 -0.6456  0.0901
17621TIP3    H174354   1.377   2.015   5.102  0.1300  0.0250 -0.0146
17621TIP3    H274355   1.498   1.939   5.152 -0.4065 -1.2467 -0.5833
17622TIP3   OH274356   1.663   6.139   2.896  0.1346 -0.4956  0.0346
17622TIP3    H174357   1.728   6.078   2.932  0.7131 -0.1187 -0.3425
17622TIP3    H274358   1.668   6.125   2.801  1.7185  1.4971 -0.2485
17623TIP3   OH274359   3.945   3.392  15.526  0.5069  0.1355 -0.6986
17623TIP3    H174360   3.921   3.315  15.474 -2.5518  0.4994 -0.0364
17623TIP3    H274361   3.870   3.451  15.516  1.2977  1.6107  1.4605
17624TIP3   OH274362   6.240   0.450  12.492 -0.2118  0.2303  0.5038
17624TIP3    H174363   6.237   0.545  12.481  0.0903  0.2588  0.6304
17624TIP3    H274364   6.301   0.437  12.565  0.9106 -0.1219 -0.4577
17625TIP3   OH274365   2.311   5.787  14.618  0.2247  0.5943 -0.5496
17625TIP3    H174366   2.356   5.703  14.627  1.0115  0.6579 -3.0996
17625TIP3    H274367   2.237   5.769  14.561 -0.5367  1.3591  0.1553
17626TIP3   OH274368   0.000   0.905  11.187  0.3309  0.3349 -0.4481
17626TIP3    H174369  -0.003   0.823  11.137  0.2712  0.3240 -0.4269
17626TIP3    H274370  -0.090   0.920  11.214  0.3598  0.3509 -0.3603
17627TIP3   OH274371   4.228   2.347  16.744  0.2313 -0.1306  0.0923
17627TIP3    H174372   4.268   2.418  16.794  0.9047 -1.0120  0.8330
17627TIP3    H274373   4.240   2.373  16.653  2.1890 -0.1720  0.2915
17628TIP3   OH274374   2.610   0.846  13.420  0.2509  0.4668 -0.0059
17628TIP3    H174375   2.699   0.873  13.440  0.0741 -0.2500  1.8786
17628TIP3    H274376   2.615   0.751  13.409 -0.3000  0.4110  0.1937
17629TIP3   OH274377   1.800   3.738   2.579 -0.4048 -0.3206 -0.3386
17629TIP3    H174378   1.797   3.700   2.667 -1.9502 -1.0596 -0.6811
17629TIP3    H274379   1.892   3.757   2.564  0.0267 -1.2612  0.9863
17630TIP3   OH274380   4.639   4.965  11.055  0.5189 -0.4290  0.3740
17630TIP3    H174381   4.572   4.901  11.032  0.8619 -0.2322 -1.2880
17630TIP3    H274382   4.712   4.913  11.088  0.5208 -0.8480 -0.2806
17631TIP3   OH274383   5.695   3.450  12.570  0.4629  0.6784 -0.1977
17631TIP3    H174384   5.645   3.428  12.491 -0.0038 -1.0937  0.5349
17631TIP3    H274385   5.786   3.444  12.542  0.4550 -3.1537  0.0065
17632TIP3   OH274386   5.606   1.941   0.353  0.4606 -0.4116  0.0189
17632TIP3    H174387   5.512   1.948   0.336 -0.1651 -0.5764  2.9129
17632TIP3    H274388   5.632   1.861   0.308 -1.1215 -1.1768  0.3700
17633TIP3   OH274389   5.216   5.132   0.759 -0.4615  0.2300 -0.3884
17633TIP3    H174390   5.285   5.192   0.730 -1.4740  1.5743 -0.1084
17633TIP3    H274391   5.258   5.077   0.825  0.2664  1.2591  0.0313
17634TIP3   OH274392   6.507   6.833  15.837  0.0119 -0.0599 -0.2473
17634TIP3    H174393   6.456   6.907  15.804 -0.6703 -0.3793  0.0548
17634TIP3    H274394   6.589   6.871  15.868  0.5359  0.2947 -1.9701
17635TIP3   OH274395   0.857   1.326  15.943  0.9037  0.0625  0.4685
17635TIP3    H174396   0.826   1.269  16.014  0.2860 -0.6643 -0.3583
17635TIP3    H274397   0.814   1.292  15.865  1.2753  1.0875 -0.2031
17636TIP3   OH274398   5.939   1.924  11.273 -0.2980 -0.1964  0.5645
17636TIP3    H174399   5.845   1.916  11.294 -0.2129 -1.8737  0.4568
17636TIP3    H274400   5.959   1.844  11.224  1.1632  0.2245  0.4467
17637TIP3   OH274401   6.057   1.677   5.524  0.1130 -0.4728  0.4596
17637TIP3    H174402   6.101   1.740   5.581 -1.0385  0.8682 -0.0636
17637TIP3    H274403   6.069   1.712   5.436 -0.6250 -0.9327  0.1693
17638TIP3   OH274404   1.267   2.293  11.124 -0.0544  0.5723 -0.4540
17638TIP3    H174405   1.287   2.217  11.070  0.3809  0.7282 -0.5149
17638TIP3    H274406   1.187   2.329  11.087 -0.3067  0.0993 -0.3745
17639TIP3   OH274407   4.373   5.853   4.364 -0.7208  0.3831  0.0148
17639TIP3    H174408   4.394   5.832   4.273  2.0360 -1.3625  0.9669
17639TIP3    H274409   4.454   5.890   4.399 -0.7984 -1.6159  2.4913
17640TIP3   OH274410   0.883   0.694   2.751 -0.1489 -0.4797 -0.0799
17640TIP3    H174411   0.976   0.700   2.727 -0.0343 -1.2207  0.1693
17640TIP3    H274412   0.877   0.615   2.803 -0.8414 -0.1721  0.3141
17641TIP3   OH274413   4.474   2.124  14.944  0.3468 -0.3036  0.3575
17641TIP3    H174414   4.505   2.212  14.964 -0.8633  0.1655  0.2776
17641TIP3    H274415   4.378   2.133  14.940  0.3149 -0.8422 -3.1940
17642TIP3   OH274416   1.284   6.798  13.224  0.2190  0.3616 -0.0304
17642TIP3    H174417   1.195   6.765  13.236  0.1422 -0.5098 -2.5132
17642TIP3    H274418   1.318   6.749  13.149  2.0232  2.2588 -0.5339
17643TIP3   OH274419   2.398   2.259  16.410  0.0744 -0.0499 -0.0627
17643TIP3    H174420   2.330   2.199  16.440 -1.2028  1.2181 -0.2909
17643TIP3    H274421   2.378   2.342  16.454  1.0484  0.5449 -0.6999
17644TIP3   OH274422   6.673   5.362   4.973 -0.0151 -0.4519 -0.2170
17644TIP3    H174423   6.738   5.293   4.979  1.3204  0.7217 -0.5119
17644TIP3    H274424   6.589   5.316   4.963  0.6390 -2.0098  1.0633
17645TIP3   OH274425   3.124   6.126  16.914 -0.0944  0.1374  0.0421
17645TIP3    H174426   3.053   6.179  16.949 -0.3191 -0.1704  0.0518
17645TIP3    H274427   3.086   6.080  16.840  0.2698  0.4684 -0.3549
17646TIP3   OH274428   6.291   5.392  16.127  0.1527  0.0825 -0.9097
17646TIP3    H174429   6.319   5.376  16.037 -2.3758  0.1360 -1.7810
17646TIP3    H274430   6.275   5.486  16.132 -2.7996 -0.2886 -1.4780
17647TIP3   OH274431   3.513   1.227  10.437 -0.3469 -0.0973  0.1334
17647TIP3    H174432   3.588   1.217  10.379 -0.8049 -2.2307 -0.1892
17647TIP3    H274433   3.439   1.195  10.385 -1.0436 -0.4719  1.3224
17648TIP3   OH274434   2.002   6.365  15.723 -0.1588  0.4055 -0.2300
17648TIP3    H174435   1.960   6.420  15.656  2.1901  0.7155 -1.5864
17648TIP3    H274436   2.011   6.423  15.799  0.1573  1.1677 -0.8324
17649TIP3   OH274437   3.232   0.349  11.035 -0.4588  0.0969 -0.3070
17649TIP3    H174438   3.149   0.380  10.999 -0.9910 -0.9525 -0.0091
17649TIP3    H274439   3.254   0.272  10.982  0.3209  0.3462 -0.3652
17650TIP3   OH274440   2.627   4.341  12.715  0.2621 -0.2047 -0.2853
17650TIP3    H174441   2.689   4.365  12.646 -0.0389 -0.1182 -0.5301
17650TIP3    H274442   2.637   4.246  12.724  1.7980  0.0456  1.0184
17651TIP3   OH274443   3.600   3.175   0.662 -0.5435  0.4707 -0.1126
17651TIP3    H174444   3.685   3.184   0.619  0.1540 -0.8888  0.9029
17651TIP3    H274445   3.617   3.118   0.737 -1.9083  1.9848  1.4177
17652TIP3   OH274446   6.260   2.995  16.589  0.1944 -0.0256 -0.1286
17652TIP3    H174447   6.225   2.999  16.500  0.1596 -0.3182 -0.1304
17652TIP3    H274448   6.182   3.002  16.645  0.2598  0.6009 -0.1142
17653TIP3   OH274449   4.903   1.845   0.568 -0.1382 -0.1767  0.8702
17653TIP3    H174450   4.816   1.861   0.604  0.7379  1.6830  2.3368
17653TIP3    H274451   4.891   1.771   0.508 -2.3300 -1.2655  2.4990
17654TIP3   OH274452   0.172   0.291  16.463  0.2266 -0.3475  0.8385
17654TIP3    H174453   0.225   0.215  16.440  2.4240  0.6508  2.2310
17654TIP3    H274454   0.170   0.344  16.383  1.6679 -0.2541  0.8389
17655TIP3   OH274455   6.548   6.382   3.157 -0.0467 -0.6249 -0.9736
17655TIP3    H174456   6.488   6.449   3.125 -0.5743 -0.8127 -0.3971
17655TIP3    H274457   6.585   6.343   3.078 -0.7161 -0.5368 -1.3372
17656TIP3   OH274458   3.812   4.952  15.367  0.4286  0.4199 -0.2141
17656TIP3    H174459   3.742   4.982  15.425  1.4301 -0.3099  1.4307
17656TIP3    H274460   3.766   4.916  15.291 -0.9512  0.5126  0.5439
17657TIP3   OH274461   1.571   4.631  14.966 -0.2641 -0.1103 -0.3619
17657TIP3    H174462   1.476   4.638  14.978 -0.2458  1.0514 -0.7784
17657TIP3    H274463   1.604   4.718  14.987  0.8791 -0.8603  1.1223
17658TIP3   OH274464   4.572   4.639  13.570  0.4035 -0.1056  0.2390
17658TIP3    H174465   4.553   4.720  13.618  0.0662 -1.2375  2.1119
17658TIP3    H274466   4.536   4.654  13.482 -0.9588  1.2358  0.9857
17659TIP3   OH274467   4.793   2.864  14.378 -0.0828 -0.6929  0.7551
17659TIP3    H174468   4.703   2.880  14.349  0.6686  0.0680 -1.3407
17659TIP3    H274469   4.822   2.949  14.412  1.3312  0.6488 -3.1339
17660TIP3   OH274470   5.826   1.647  16.731 -0.4669  0.1246 -0.0513
17660TIP3    H174471   5.871   1.563  16.735 -1.1191 -0.1982  0.7722
17660TIP3    H274472   5.882   1.708  16.780 -0.0306  0.1657 -0.5873
17661TIP3   OH274473   2.763   3.081   2.323 -0.0184 -0.2549 -0.2117
17661TIP3    H174474   2.851   3.101   2.355 -0.3262 -0.6040  0.9001
17661TIP3    H274475   2.748   3.145   2.253  0.3318  1.1228  0.9323
17662TIP3   OH274476   2.409   3.813   4.131 -0.4278  0.0266  0.0578
17662TIP3    H174477   2.424   3.718   4.125 -0.1155  0.0679  0.1315
17662TIP3    H274478   2.341   3.831   4.066 -0.4921 -0.2497  0.0464
17663TIP3   OH274479   4.342   5.444  10.513  0.5603 -0.2601  0.2930
17663TIP3    H174480   4.308   5.423  10.425  4.7026 -0.2783 -1.5354
17663TIP3    H274481   4.371   5.535  10.506  1.1688 -0.3433  1.5951
17664TIP3   OH274482   5.574   3.806   4.777 -0.0434 -0.3225 -0.0392
17664TIP3    H174483   5.564   3.858   4.698 -0.5172 -1.1793 -0.5614
17664TIP3    H274484   5.514   3.732   4.764 -0.3536 -0.3216  1.2457
17665TIP3   OH274485   0.364   4.890   3.770 -0.1231 -0.4050  0.1617
17665TIP3    H174486   0.457   4.869   3.773 -0.0377  0.0040  0.3429
17665TIP3    H274487   0.357   4.964   3.710 -0.1845  0.3337  1.0620
17666TIP3   OH274488   6.228   2.107   5.851  0.5598  0.1891  0.0360
17666TIP3    H174489   6.283   2.030   5.857 -0.3188 -0.4066  0.7232
17666TIP3    H274490   6.142   2.073   5.825  0.0374  0.8675  0.8361
17667TIP3   OH274491   0.451   6.513  14.082  0.1419 -0.0833  0.4832
17667TIP3    H174492   0.508   6.486  14.010  0.4372 -2.0373  1.3950
17667TIP3    H274493   0.465   6.608  14.089  2.0138 -0.2497 -0.3917
17668TIP3   OH274494   0.572   3.492  14.805  0.3178 -0.2072 -0.0264
17668TIP3    H174495   0.491   3.442  14.814 -0.9295  1.9837  2.0680
17668TIP3    H274496   0.641   3.432  14.833 -0.5035 -2.0935 -1.7800
17669TIP3   OH274497   1.406   3.473   2.404  0.1857  0.0508  0.2933
17669TIP3    H174498   1.355   3.463   2.485  0.3733  2.0464  0.6957
17669TIP3    H274499   1.488   3.512   2.432  0.2421  0.8130 -0.8545
17670TIP3   OH274500   6.684   0.080   0.303 -0.3370  0.0702  0.2546
17670TIP3    H174501   6.711   0.018   0.370  2.2361 -3.0532 -3.2934
17670TIP3    H274502   6.675   0.163   0.350  2.5900 -1.5200  4.1753
17671TIP3   OH274503   5.950   3.023   2.893  0.3859 -0.3893  0.4167
17671TIP3    H174504   6.046   3.028   2.892  0.3363  0.5272 -0.1844
17671TIP3    H274505   5.927   2.988   2.807  0.1875 -0.9492  0.6901
17672TIP3   OH274506   5.204   6.579   0.310  0.3988  0.7648  0.1394
17672TIP3    H174507   5.284   6.627   0.332  0.8344  0.2912 -0.3630
17672TIP3    H274508   5.156   6.572   0.392  2.5028 -1.9798  1.3102
17673TIP3   OH274509   0.426   5.118  11.896 -0.1541 -0.5153 -0.1518
17673TIP3    H174510   0.383   5.203  11.896 -1.9594 -1.3771 -0.6087
17673TIP3    H274511   0.446   5.100  11.988  0.4878  0.5062 -0.0872
17674TIP3   OH274512   2.631   1.930  16.552 -0.5559  0.3003  0.2054
17674TIP3    H174513   2.558   1.932  16.613 -1.8792 -0.3025 -1.3026
17674TIP3    H274514   2.694   1.869  16.591 -0.6240  1.1601  1.7293
17675TIP3   OH274515   2.083   4.790  17.030  0.3376 -0.4556 -0.4250
17675TIP3    H174516   1.998   4.786  17.074  0.1290 -0.5798 -0.8313
17675TIP3    H274517   2.131   4.858  17.077 -1.0913  1.8360 -2.0741
17676TIP3   OH274518   3.695   1.462  16.515 -0.4308 -0.5856  1.1097
17676TIP3    H174519   3.634   1.529  16.484  1.2944  0.2071 -0.7934
17676TIP3    H274520   3.676   1.386  16.460  2.0388  0.5471 -1.5788
17677TIP3   OH274521   3.141   6.208   2.353  0.1460  0.0863  0.1995
17677TIP3    H174522   3.103   6.296   2.347 -1.5949 -0.4682  1.8913
17677TIP3    H274523   3.072   6.150   2.323  0.7994 -0.7842  0.3506
17678TIP3   OH274524   2.302   5.263  11.859  0.5125 -0.1419 -0.0756
17678TIP3    H174525   2.248   5.321  11.913 -3.1386 -1.5234 -1.8668
17678TIP3    H274526   2.285   5.291  11.769  2.6671 -0.8385 -0.7546
17679TIP3   OH274527   2.379   2.414   2.109 -0.1860  0.8367  0.1831
17679TIP3    H174528   2.378   2.328   2.066  0.0435  0.8236  0.2047
17679TIP3    H274529   2.467   2.448   2.093  0.0737  0.6131  1.0779
17680TIP3   OH274530   0.252   0.977  15.667 -0.0834 -0.6850 -0.1068
17680TIP3    H174531   0.299   0.914  15.613  0.8083 -1.6995  1.7387
17680TIP3    H274532   0.216   0.925  15.739  1.3271  0.9470  1.9149
17681TIP3   OH274533   0.139   4.655   2.869  0.0911 -0.3894 -0.1340
17681TIP3    H174534   0.078   4.724   2.895  1.1892  0.3683  0.5258
17681TIP3    H274535   0.160   4.610   2.951  0.4235 -0.6460 -0.3564
17682TIP3   OH274536   1.062   4.350  12.767  0.0008  0.6170  0.1737
17682TIP3    H174537   1.023   4.394  12.691 -1.9025 -0.4366  0.4871
17682TIP3    H274538   1.092   4.266  12.733  0.7827  0.8509  0.2507
17683TIP3   OH274539   6.225   3.080   2.568  0.2521 -0.4525  0.0665
17683TIP3    H174540   6.246   3.174   2.567 -1.5557  0.0451 -2.6997
17683TIP3    H274541   6.242   3.051   2.478 -2.2636 -1.9543 -0.0201
17684TIP3   OH274542   5.642   2.735   1.098 -0.2182  0.5372  0.0553
17684TIP3    H174543   5.668   2.827   1.093 -0.7216  0.6572 -0.4054
17684TIP3    H274544   5.691   2.692   1.028 -1.8516  0.9166 -1.3747
17685TIP3   OH274545   3.165   1.544  13.035 -0.7066  0.0225  0.0029
17685TIP3    H174546   3.246   1.570  13.079  0.8536  0.3629 -2.8847
17685TIP3    H274547   3.173   1.449  13.025 -1.3817 -0.1543  0.9630
17686TIP3   OH274548   3.573   3.387  16.561  0.0396  0.0508 -0.1197
17686TIP3    H174549   3.637   3.449  16.595 -0.4257  0.6719 -0.3765
17686TIP3    H274550   3.627   3.319  16.520  0.5657 -0.0931  0.7805
17687TIP3   OH274551   3.208   2.161  10.986  0.4711 -0.4552  0.1052
17687TIP3    H174552   3.206   2.204  11.072 -0.2118  0.1099 -0.1850
17687TIP3    H274553   3.118   2.164  10.956  0.8183 -0.0587 -0.9206
17688TIP3   OH274554   0.352   6.314  11.021 -0.2352 -0.5857  0.0877
17688TIP3    H174555   0.391   6.309  10.933 -1.5797  1.4826 -0.6943
17688TIP3    H274556   0.312   6.228  11.035 -0.2776 -0.8423 -1.4655
17689TIP3   OH274557   1.036   4.293  16.783  0.1381  1.5454  0.4643
17689TIP3    H174558   1.107   4.270  16.843  0.3374 -2.3838 -1.0216
17689TIP3    H274559   0.956   4.283  16.835  0.4417  1.3446  0.8910
17690TIP3   OH274560   4.977   2.522   5.721 -0.2966 -0.7744  0.4060
17690TIP3    H174561   5.004   2.603   5.763 -0.0456 -0.3729 -0.5216
17690TIP3    H274562   5.014   2.453   5.776  2.4036 -0.2530 -0.6549
17691TIP3   OH274563   5.454   6.518  11.110 -0.3144 -0.0806 -0.0026
17691TIP3    H174564   5.432   6.431  11.143  0.3464 -0.3995 -0.3691
17691TIP3    H274565   5.393   6.577  11.153  1.2451 -0.2975  2.7576
17692TIP3   OH274566   0.910   2.355   6.044  0.2344 -0.0113 -0.6655
17692TIP3    H174567   0.838   2.398   6.091  1.6588  0.1246  1.5505
17692TIP3    H274568   0.966   2.320   6.113  1.5324 -1.4404 -2.3412
17693TIP3   OH274569   6.674   0.372  13.275 -0.3110 -0.0262  0.3706
17693TIP3    H174570   6.619   0.449  13.261 -1.1315 -0.7874 -0.7755
17693TIP3    H274571   6.707   0.350  13.188 -0.1383 -1.0045  0.6700
17694TIP3   OH274572   2.582   6.669  14.199  0.0760 -0.2120 -0.7269
17694TIP3    H174573   2.595   6.603  14.267 -3.2483 -0.7742 -0.4908
17694TIP3    H274574   2.617   6.750  14.237  0.8873 -1.0773  0.4369
17695TIP3   OH274575   3.205   2.071  16.289 -0.2557 -0.0251 -0.7060
17695TIP3    H174576   3.254   2.010  16.235 -0.0842  0.1074 -0.6998
17695TIP3    H274577   3.139   2.017  16.332 -1.0498  0.0322 -1.8156
17696TIP3   OH274578   1.193   2.423  12.843  0.1072 -0.3365 -0.7204
17696TIP3    H174579   1.195   2.517  12.863  2.6519 -0.4297 -0.2342
17696TIP3    H274580   1.229   2.416  12.755  0.6307 -0.9113 -0.4674
17697TIP3   OH274581   0.797   2.756  16.192  0.0656  0.5642 -0.2337
17697TIP3    H174582   0.765   2.670  16.166 -0.3394  0.6736 -0.0966
17697TIP3    H274583   0.883   2.738  16.231 -0.1262  0.1884  0.0316
17698TIP3   OH274584   1.724   1.082  12.783 -0.1156  0.5099  0.6608
17698TIP3    H174585   1.801   1.050  12.830  0.2561  0.6684  0.1785
17698TIP3    H274586   1.669   1.004  12.770  0.1265  0.3302  0.7101
17699TIP3   OH274587   3.662   0.159   5.361 -0.1027  0.0338 -0.4154
17699TIP3    H174588   3.663   0.066   5.384 -3.3064  0.1652  0.8013
17699TIP3    H274589   3.593   0.167   5.295 -0.3711  1.6196  0.0094
17700TIP3   OH274590   6.360   0.918   0.150  0.4255  0.5146 -0.0452
17700TIP3    H174591   6.441   0.944   0.193 -0.5425  3.2139  0.3769
17700TIP3    H274592   6.297   0.908   0.222  0.6200 -3.2046 -0.1854
17701TIP3   OH274593   4.049   6.823   1.691  0.0480  0.1626  0.4897
17701TIP3    H174594   4.144   6.821   1.678  0.0583 -0.2892  0.6443
17701TIP3    H274595   4.038   6.833   1.785 -0.0563  0.7838  0.4169
17702TIP3   OH274596   1.050   6.297  15.953  0.0574  0.0106  0.5800
17702TIP3    H174597   0.984   6.301  16.022 -0.7175 -1.4401 -0.0432
17702TIP3    H274598   1.129   6.334  15.994 -1.2820  2.5642  1.0881
17703TIP3   OH274599   4.346   1.659   4.772 -0.0685 -0.0882  0.3968
17703TIP3    H174600   4.437   1.680   4.792  0.0404  1.2653 -1.2897
17703TIP3    H274601   4.311   1.739   4.733 -2.0123 -0.5618  1.0600
17704TIP3   OH274602   6.775   1.542   0.106  0.3670  0.1805 -0.3172
17704TIP3    H174603   6.727   1.585   0.034  1.5567  1.6688 -0.2652
17704TIP3    H274604   6.862   1.525   0.070 -0.0496 -2.2837 -0.3254
17705TIP3   OH274605   4.671   4.154   1.348 -0.4485 -0.1328  0.0016
17705TIP3    H174606   4.582   4.187   1.332 -0.8403 -0.1121  1.9364
17705TIP3    H274607   4.725   4.195   1.281 -2.2450 -2.0714 -2.8605
17706TIP3   OH274608   1.738   2.372  13.112  0.4388  0.0008  0.0596
17706TIP3    H174609   1.718   2.442  13.174  0.3705  0.6438 -0.6623
17706TIP3    H274610   1.653   2.333  13.092  0.3931  0.1291 -0.0029
17707TIP3   OH274611   5.145   2.107  12.392 -0.1175 -0.1243 -0.2031
17707TIP3    H174612   5.170   2.167  12.322  0.9562 -1.0349 -0.6283
17707TIP3    H274613   5.057   2.077  12.368 -0.0569  0.1398 -0.7700
17708TIP3   OH274614   4.931   0.165  11.622 -0.0378 -0.0613  0.1537
17708TIP3    H174615   5.005   0.185  11.565  0.9203  0.6346  1.5857
17708TIP3    H274616   4.929   0.069  11.627 -0.0971 -0.1300 -0.9588
17709TIP3   OH274617   4.662   5.425  16.175 -0.0999  0.5962  0.0031
17709TIP3    H174618   4.627   5.452  16.091 -0.5943  2.4420  0.7609
17709TIP3    H274619   4.585   5.409  16.230  0.1923 -1.5024 -0.1148
17710TIP3   OH274620   2.920   2.765   5.385 -0.0125  0.1379 -0.2179
17710TIP3    H174621   3.012   2.758   5.357 -0.3031  0.5933 -1.3420
17710TIP3    H274622   2.925   2.808   5.470  0.7051  3.5325 -1.7872
17711TIP3   OH274623   2.442   4.779  12.850  0.2689  0.0367  0.1890
17711TIP3    H174624   2.434   4.845  12.918  0.8740 -0.4035  0.6986
17711TIP3    H274625   2.536   4.772  12.833  0.1907 -0.4690 -0.0791
17712TIP3   OH274626   5.289   4.879   5.513  0.1892 -0.0884  0.3003
17712TIP3    H174627   5.274   4.890   5.419 -0.3758  0.1286  0.4112
17712TIP3    H274628   5.207   4.908   5.554  0.6711  0.4822  0.8987
17713TIP3   OH274629   6.191   4.074   6.143 -0.1870 -0.0012  0.5912
17713TIP3    H174630   6.175   4.148   6.201  1.8202  1.5212 -0.6641
17713TIP3    H274631   6.283   4.051   6.158 -0.2866 -1.0813 -0.3102
17714TIP3   OH274632   5.379   5.984   3.387  0.2047  0.5935 -0.1525
17714TIP3    H174633   5.427   5.974   3.469  1.6648 -0.4636 -1.0889
17714TIP3    H274634   5.355   6.077   3.384  0.3119  0.6944  1.3372
17715TIP3   OH274635   6.289   3.096   1.944  0.4596 -0.5580 -0.1326
17715TIP3    H174636   6.223   3.116   2.010  1.0139 -1.0220  0.5819
17715TIP3    H274637   6.240   3.073   1.866 -0.2317 -1.2507  0.4895
17716TIP3   OH274638   6.284   3.527   0.450 -0.4091  0.3872  0.1060
17716TIP3    H174639   6.241   3.613   0.454 -2.2183 -0.4431 -0.5301
17716TIP3    H274640   6.291   3.508   0.357 -1.4824 -0.8470  0.2630
17717TIP3   OH274641   2.420   2.510   1.342  0.0682  0.2781  0.1021
17717TIP3    H174642   2.439   2.603   1.336 -0.3684  0.4967  1.6002
17717TIP3    H274643   2.331   2.501   1.306 -1.2097  1.0102  2.8234
17718TIP3   OH274644   3.333   3.341  14.325 -0.2717  0.0800  0.1673
17718TIP3    H174645   3.362   3.432  14.328 -0.1954  0.0834 -0.4126
17718TIP3    H274646   3.241   3.343  14.352 -0.5798  0.4813 -0.8626
17719TIP3   OH274647   2.606   3.549   5.107  0.2075  0.2310  0.7061
17719TIP3    H174648   2.624   3.639   5.135 -2.7830  0.6548  1.6772
17719TIP3    H274649   2.553   3.512   5.178  1.7085 -2.5203  0.5417
17720TIP3   OH274650   3.065   6.834   5.559  0.1040  0.2515 -0.4633
17720TIP3    H174651   3.137   6.811   5.618 -0.3645 -0.2297 -0.0799
17720TIP3    H274652   3.001   6.877   5.615  0.6927  1.9865 -1.0543
17721TIP3   OH274653   5.605   1.756  10.141  0.0235 -0.5388 -0.3144
17721TIP3    H174654   5.664   1.828  10.163 -0.9346  0.5678 -1.2155
17721TIP3    H274655   5.528   1.799  10.102 -0.2260 -2.1040 -1.6639
17722TIP3   OH274656   0.479   0.894  12.144  0.5034  0.4317 -0.0176
17722TIP3    H174657   0.408   0.945  12.105  0.4730  0.3546 -0.0650
17722TIP3    H274658   0.434   0.822  12.188  0.5253  0.6247  0.3234
17723TIP3   OH274659   0.272   6.148   2.684 -0.0781 -0.1025  0.1401
17723TIP3    H174660   0.249   6.121   2.596 -0.6262  1.9122 -0.4000
17723TIP3    H274661   0.368   6.147   2.685 -0.0751 -0.5291 -0.3569
17724TIP3   OH274662   0.048   4.637  13.313 -0.2415 -0.1343  0.3034
17724TIP3    H174663   0.122   4.579  13.331 -0.6745 -0.3220  1.6227
17724TIP3    H274664  -0.028   4.579  13.312 -0.7612  0.4202  2.2553
17725TIP3   OH274665   0.266   1.274  12.856 -0.0816 -0.3204 -0.3212
17725TIP3    H174666   0.237   1.352  12.809  0.0528 -0.2738 -0.3272
17725TIP3    H274667   0.283   1.210  12.788 -2.7503 -1.2578 -0.2232
17726TIP3   OH274668   2.217   0.795  12.619 -0.0061 -0.0746 -0.2916
17726TIP3    H174669   2.248   0.857  12.684  0.4885 -0.5901 -0.0252
17726TIP3    H274670   2.123   0.810  12.614  0.0109  0.2338  0.2615
17727TIP3   OH274671   3.446   1.972   3.588  0.5191  0.4837 -0.2408
17727TIP3    H174672   3.470   1.898   3.643 -0.4034  1.7856  2.0415
17727TIP3    H274673   3.475   1.947   3.500  0.5387 -2.4111  0.4922
17728TIP3   OH274674   1.091   6.824   1.128 -0.3433  0.5025  0.3117
17728TIP3    H174675   1.037   6.745   1.134 -1.0556  0.8581 -1.1393
17728TIP3    H274676   1.110   6.846   1.220 -1.3108 -0.5538  0.7962
17729TIP3   OH274677   4.415   2.667   1.711  0.2641  0.0234 -0.0260
17729TIP3    H174678   4.385   2.607   1.779 -1.5012  1.6899  0.7795
17729TIP3    H274679   4.470   2.730   1.758  0.7074  0.0023 -0.5216
17730TIP3   OH274680   5.438   2.498  12.074  0.0657  0.0532  0.0719
17730TIP3    H174681   5.433   2.416  12.124  2.8637 -1.1400 -1.3573
17730TIP3    H274682   5.427   2.471  11.983  0.4656  1.3331 -0.3819
17731TIP3   OH274683   2.507   0.134   2.034 -0.2102 -0.2858 -0.0295
17731TIP3    H174684   2.538   0.059   2.085 -1.8379 -0.7765  0.2832
17731TIP3    H274685   2.414   0.117   2.021 -0.1380  0.5485 -1.9309
17732TIP3   OH274686   0.910   6.624   3.563  1.2266 -0.0244  0.1482
17732TIP3    H174687   0.931   6.533   3.581 -0.1641 -0.2981  0.4678
17732TIP3    H274688   0.896   6.627   3.468 -1.1538 -0.7166  0.4110
17733TIP3   OH274689   6.331   5.598  10.940  0.2360  0.2055 -0.1376
17733TIP3    H174690   6.364   5.516  10.976  1.2150  0.6557  0.0265
17733TIP3    H274691   6.272   5.571  10.869  0.5273 -0.6301 -0.0689
17734TIP3   OH274692   6.702   5.510  14.068  0.3326  0.0863  0.3537
17734TIP3    H174693   6.712   5.520  14.163  0.5169  0.2972  0.3144
17734TIP3    H274694   6.646   5.583  14.043  1.2153  0.7055  0.1400
17735TIP3   OH274695   2.194   4.668  14.337 -0.0269  0.1466  0.2733
17735TIP3    H174696   2.200   4.666  14.433  0.0583 -0.8021  0.2569
17735TIP3    H274697   2.163   4.580  14.313 -1.6411  0.8683 -0.4646
17736TIP3   OH274698   4.402   0.330   2.330 -0.3555 -0.0074 -0.6132
17736TIP3    H174699   4.423   0.319   2.423  0.8476 -2.3507 -1.0868
17736TIP3    H274700   4.471   0.386   2.296 -0.0617 -0.1919 -0.3311
17737TIP3   OH274701   5.443   4.616   3.649 -0.0603  0.2714  0.8738
17737TIP3    H174702   5.378   4.683   3.629 -1.8946 -1.7546 -0.2778
17737TIP3    H274703   5.423   4.589   3.739 -0.9405 -0.4233  0.4859
17738TIP3   OH274704   4.267   6.475   4.713  0.4763  0.2158 -0.0705
17738TIP3    H174705   4.255   6.569   4.707  0.8411  0.1999 -1.3616
17738TIP3    H274706   4.332   6.463   4.782  0.1108  0.8669  0.4002
17739TIP3   OH274707   6.603   5.799  12.772 -0.3619 -0.2151  0.5565
17739TIP3    H174708   6.567   5.860  12.707 -0.9180 -0.8346  0.2652
17739TIP3    H274709   6.592   5.712  12.731  1.8809 -0.4114  0.2610
17740TIP3   OH274710   5.391   0.851   0.599  0.6165 -0.0676 -0.1345
17740TIP3    H174711   5.378   0.771   0.649 -2.6517 -0.1826 -0.9933
17740TIP3    H274712   5.358   0.921   0.656  0.8527  0.3292 -0.4792
17741TIP3   OH274713   3.376   6.213   2.782 -0.8037  0.4164 -0.6456
17741TIP3    H174714   3.303   6.241   2.838 -0.0997  1.2307 -0.1031
17741TIP3    H274715   3.372   6.118   2.782 -0.5701  0.3797  1.1664
17742TIP3   OH274716   0.242   0.542   4.882 -0.3350 -0.7475  0.0597
17742TIP3    H174717   0.279   0.490   4.953  0.6243 -0.8673 -0.5010
17742TIP3    H274718   0.188   0.480   4.832  0.1981 -1.0324 -0.1715
17743TIP3   OH274719   0.945   3.752  15.891  0.2383  1.0455 -0.6052
17743TIP3    H174720   0.976   3.736  15.802 -0.0796  0.6542 -0.6502
17743TIP3    H274721   0.929   3.665  15.927 -0.9117  1.2260 -0.6336
17744TIP3   OH274722   1.286   6.234   2.861  0.2895 -0.1833 -0.1240
17744TIP3    H174723   1.346   6.174   2.815 -0.6644  0.2224 -2.0204
17744TIP3    H274724   1.252   6.291   2.792 -2.2915 -0.4085  0.8593
17745TIP3   OH274725   4.617   5.739  11.607 -0.2278 -0.3904  0.1053
17745TIP3    H174726   4.566   5.702  11.679 -2.6866  1.7580 -0.3675
17745TIP3    H274727   4.617   5.834  11.624  1.0836 -0.0497 -1.5270
17746TIP3   OH274728   1.000   3.409  13.169 -0.2734 -0.0966  0.0413
17746TIP3    H174729   1.051   3.358  13.231  1.3893  2.0461  0.5929
17746TIP3    H274730   0.942   3.463  13.223 -1.2776 -0.6430 -0.4649
17747TIP3   OH274731   2.247   6.578  13.085 -0.1663 -0.0978  0.1866
17747TIP3    H174732   2.257   6.543  12.996  3.4951  1.1055 -0.0200
17747TIP3    H274733   2.229   6.671  13.072  0.3219  0.0710  0.6914
17748TIP3   OH274734   1.466   1.474  13.016  0.0228 -0.3642 -0.0815
17748TIP3    H174735   1.464   1.378  13.017 -0.2448 -0.3672 -0.6744
17748TIP3    H274736   1.428   1.499  13.101  1.4973 -0.7809  0.7439
17749TIP3   OH274737   3.281   1.335   4.145 -0.3003 -0.0614  0.2830
17749TIP3    H174738   3.265   1.405   4.082  0.3695  0.4242  0.6359
17749TIP3    H274739   3.281   1.255   4.093  0.1151  0.3206 -0.3235
17750TIP3   OH274740   4.155   2.486  15.652 -0.0956  0.3538  0.1180
17750TIP3    H174741   4.209   2.561  15.626  1.7690 -1.1567 -0.5411
17750TIP3    H274742   4.106   2.464  15.572 -0.2041  0.4979  0.1435
17751TIP3   OH274743   1.374   0.987  14.853 -0.1314 -0.4615 -0.3123
17751TIP3    H174744   1.398   1.020  14.767  1.0029 -0.5013 -0.0180
17751TIP3    H274745   1.440   0.921  14.874  2.9199  3.0402  2.7765
17752TIP3   OH274746   1.242   5.183   4.884  0.0752  0.1281  0.0835
17752TIP3    H174747   1.174   5.124   4.852  0.6563 -0.2260 -0.5189
17752TIP3    H274748   1.196   5.265   4.903 -0.7044 -0.4481  0.7437
17753TIP3   OH274749   3.055   5.266   1.782  0.0342  0.0617  0.2468
17753TIP3    H174750   3.135   5.255   1.730 -1.0782  1.8277 -2.0355
17753TIP3    H274751   3.084   5.306   1.863  1.6895 -1.3874  0.4235
17754TIP3   OH274752   1.321   4.009   5.487 -0.6432 -0.4234 -0.5588
17754TIP3    H174753   1.334   3.963   5.569 -1.8827  0.8903  0.4182
17754TIP3    H274754   1.266   4.084   5.509 -1.5575 -0.3725 -2.6791
17755TIP3   OH274755   2.223   4.909  16.575 -0.4776 -0.4361  0.4817
17755TIP3    H174756   2.154   4.847  16.550  1.1653 -2.0737 -0.2178
17755TIP3    H274757   2.224   4.907  16.670 -0.3033 -1.6735  0.4664
17756TIP3   OH274758   3.000   4.471  15.480  0.2266  0.4163  0.1476
17756TIP3    H174759   3.030   4.418  15.406  1.8031  1.8223 -0.2719
17756TIP3    H274760   2.906   4.454  15.484  0.1715 -0.0342 -1.9182
17757TIP3   OH274761   5.602   5.537  13.484 -0.1614  0.1610 -0.5449
17757TIP3    H174762   5.629   5.550  13.575  0.5068 -1.1382 -0.5283
17757TIP3    H274763   5.519   5.583  13.476 -0.3358  0.1000  0.7843
17758TIP3   OH274764   6.116   6.559  15.301  1.0079  0.0021 -0.3484
17758TIP3    H174765   6.050   6.628  15.308  0.7232 -0.2586 -0.4433
17758TIP3    H274766   6.124   6.524  15.389 -1.2270 -2.0279 -0.8349
17759TIP3   OH274767   0.399   5.516  16.835  0.5945  0.3438  0.1512
17759TIP3    H174768   0.364   5.477  16.915  0.7869  0.3879  0.2583
17759TIP3    H274769   0.323   5.529  16.779  0.3710  0.8544  0.5574
17760TIP3   OH274770   1.795   0.178  14.221 -0.3676  0.0626  1.0139
17760TIP3    H174771   1.738   0.103  14.233 -0.1531 -0.2239  0.3060
17760TIP3    H274772   1.789   0.198  14.127 -2.7533  2.8003  1.6237
17761TIP3   OH274773   4.163   0.265  16.770  0.5504 -0.3134  0.2732
17761TIP3    H174774   4.129   0.179  16.745 -1.4254  0.6763 -0.6453
17761TIP3    H274775   4.100   0.298  16.834  0.1205  1.2512 -0.8865
17762TIP3   OH274776   1.216   1.722   5.726 -0.0580 -0.0228 -0.0349
17762TIP3    H174777   1.142   1.678   5.767  0.2072  1.4172  2.1859
17762TIP3    H274778   1.178   1.777   5.658 -0.5685 -2.1731 -1.5764
17763TIP3   OH274779   1.559   5.481  11.832 -0.7307  0.0024 -0.7205
17763TIP3    H174780   1.542   5.573  11.813 -3.0051 -0.6593 -2.3546
17763TIP3    H274781   1.546   5.436  11.748  1.3720 -1.7337 -0.2263
17764TIP3   OH274782   0.747   5.396   0.246 -0.0624  0.3301  0.1950
17764TIP3    H174783   0.807   5.336   0.203  0.8002  0.1279  1.5979
17764TIP3    H274784   0.663   5.349   0.248  0.5921 -0.8716  1.2425
17765TIP3   OH274785   1.003   0.385   2.527 -0.1324  0.2106 -0.2634
17765TIP3    H174786   0.955   0.448   2.475 -0.6613 -0.1723 -0.2436
17765TIP3    H274787   0.937   0.325   2.560  0.5466 -1.5266 -1.8679
17766TIP3   OH274788   4.829   3.143   0.328 -0.0875  0.0777  0.3780
17766TIP3    H174789   4.762   3.202   0.361  0.4359  0.8218  0.1175
17766TIP3    H274790   4.910   3.171   0.371 -0.1010 -1.4960  1.5357
17767TIP3   OH274791   2.972   2.813   2.509 -0.4875  0.5154 -0.3416
17767TIP3    H174792   3.026   2.835   2.433 -0.4320 -1.8777 -1.0681
17767TIP3    H274793   3.028   2.756   2.562 -2.3449 -2.5124 -1.3892
17768TIP3   OH274794   2.877   1.700   5.909  0.3759 -0.2099  0.5797
17768TIP3    H174795   2.884   1.744   5.994  0.7475  0.1132  0.3927
17768TIP3    H274796   2.916   1.614   5.923 -0.0043 -0.3356  0.8576
17769TIP3   OH274797   6.346   2.703  12.342  0.3800  0.6460 -0.0880
17769TIP3    H174798   6.422   2.690  12.398  1.1165  1.8220 -0.7503
17769TIP3    H274799   6.383   2.712  12.254 -0.3725  2.3837 -0.2860
17770TIP3   OH274800   3.231   5.994   5.459  0.6252  0.0789 -0.1426
17770TIP3    H174801   3.256   6.037   5.541 -0.7992 -0.8099  0.8084
17770TIP3    H274802   3.241   6.062   5.393  0.3650  1.2824  1.0108
17771TIP3   OH274803   3.619   2.573  13.853 -0.6211  0.2001 -0.2762
17771TIP3    H174804   3.609   2.527  13.770 -2.6187  0.9492 -0.4901
17771TIP3    H274805   3.565   2.651  13.844  0.0749  0.9160  1.3073
17772TIP3   OH274806   3.395   3.660   5.203 -0.0296  0.2005  0.1470
17772TIP3    H174807   3.456   3.722   5.162  1.0535 -1.1170 -0.2933
17772TIP3    H274808   3.445   3.579   5.210 -1.4244 -0.6345  0.7166
17773TIP3   OH274809   5.915   5.151   3.564  0.1513 -0.2835  0.5428
17773TIP3    H174810   5.975   5.226   3.563  0.2373 -0.3535  0.4877
17773TIP3    H274811   5.972   5.075   3.573  0.2412 -0.5255 -1.5459
17774TIP3   OH274812   1.089   3.085   3.449  0.1963  0.3797 -0.4618
17774TIP3    H174813   1.079   3.037   3.532  0.8404  0.8251 -0.1204
17774TIP3    H274814   1.125   3.021   3.388  0.8372  0.3633 -0.0710
17775TIP3   OH274815   5.259   3.615   1.701 -0.0492 -0.3377  0.3090
17775TIP3    H174816   5.188   3.678   1.701 -0.3914 -0.6763 -1.2133
17775TIP3    H274817   5.223   3.538   1.745 -0.8251 -0.6850 -0.8880
17776TIP3   OH274818   3.241   2.576   0.152 -0.4296  0.1862  0.3554
17776TIP3    H174819   3.178   2.644   0.175 -0.3548  0.9884 -1.6397
17776TIP3    H274820   3.188   2.505   0.117 -0.3051  0.4368 -0.3465
17777TIP3   OH274821   0.242   5.959  16.525 -0.0692  0.1313 -0.1968
17777TIP3    H174822   0.226   5.958  16.620  1.0500  1.9705  0.0603
17777TIP3    H274823   0.209   6.044  16.496  0.7159  0.0953 -1.2346
17778TIP3   OH274824   3.981   4.053   5.911 -0.0410 -0.8350  0.4039
17778TIP3    H174825   3.922   3.984   5.940  0.5639 -1.3416  0.4600
17778TIP3    H274826   4.002   4.102   5.990 -2.5496  1.1122 -0.0103
17779TIP3   OH274827   0.501   2.618   3.891  0.0115  0.6023  0.1305
17779TIP3    H174828   0.511   2.713   3.903 -0.0813  0.6248  0.0256
17779TIP3    H274829   0.587   2.589   3.860 -0.2776  0.8179 -0.8958
17780TIP3   OH274830   5.062   1.532  13.828  0.5248  0.2784 -0.3357
17780TIP3    H174831   5.006   1.461  13.798 -0.9127  0.8298  0.8845
17780TIP3    H274832   5.150   1.495  13.828 -0.1195 -1.3391 -0.1916
17781TIP3   OH274833   4.740   5.630   6.144 -0.0747 -0.4569  0.1126
17781TIP3    H174834   4.792   5.666   6.072 -1.6931  2.1668  0.1259
17781TIP3    H274835   4.792   5.557   6.177  2.2049  0.2385 -1.6856
17782TIP3   OH274836   5.422   3.296  11.612  0.2394 -0.3493  0.0536
17782TIP3    H174837   5.341   3.295  11.560  0.2934 -0.3945 -0.0296
17782TIP3    H274838   5.450   3.204  11.614 -1.2860 -0.8593  2.5380
17783TIP3   OH274839   1.493   4.621  11.988 -0.0833 -0.0844  0.1820
17783TIP3    H174840   1.406   4.613  12.027 -1.8210  0.5467 -3.1994
17783TIP3    H274841   1.535   4.537  12.006 -0.6948  0.1397  3.1826
17784TIP3   OH274842   1.752   5.182  15.342  0.5549  0.5865  0.7502
17784TIP3    H174843   1.742   5.172  15.437 -0.0711 -2.0500  0.4840
17784TIP3    H274844   1.833   5.134  15.321 -0.2337 -0.3894 -0.2111
17785TIP3   OH274845   0.487   1.951   4.694  0.0651 -0.1661 -0.2333
17785TIP3    H174846   0.474   2.024   4.634 -0.6294 -1.7277 -2.0782
17785TIP3    H274847   0.441   1.878   4.653 -0.8005 -1.2207  2.4296
17786TIP3   OH274848   5.417   2.463   0.349 -0.5024  0.6049 -0.1861
17786TIP3    H174849   5.375   2.385   0.313 -1.2494  1.2093 -0.6292
17786TIP3    H274850   5.511   2.442   0.349 -0.6829 -0.2158 -0.4694
17787TIP3   OH274851   4.992   3.102   4.097 -0.2776  0.2854  0.4565
17787TIP3    H174852   4.993   3.198   4.100 -1.0722  0.3110  0.1765
17787TIP3    H274853   5.077   3.078   4.060  0.2415  0.8437  1.2507
17788TIP3   OH274854   1.451   4.083  11.563 -0.3315  0.1273 -0.2961
17788TIP3    H174855   1.387   4.137  11.608 -1.6944 -2.3390  0.8988
17788TIP3    H274856   1.433   4.097  11.470 -0.6086  1.6937 -0.0350
17789TIP3   OH274857   6.634   0.567   0.118  0.2389 -0.1435  0.3572
17789TIP3    H174858   6.681   0.484   0.129  0.4619  0.0278  0.7323
17789TIP3    H274859   6.676   0.608   0.043  0.2462 -0.2914  0.2800
17790TIP3   OH274860   0.309   2.360  16.203 -0.4428 -0.4784  0.2995
17790TIP3    H174861   0.265   2.442  16.229 -0.0111  0.4831 -1.8422
17790TIP3    H274862   0.267   2.293  16.258 -0.9370  1.1178  1.9927
17791TIP3   OH274863   2.690   0.396  13.510  0.2613  0.1535 -0.0784
17791TIP3    H174864   2.773   0.351  13.525  0.5670  0.1243 -1.7583
17791TIP3    H274865   2.647   0.346  13.441 -0.4560  1.0794 -0.3291
17792TIP3   OH274866   2.449   2.538  15.118  0.6142 -0.0019 -0.0346
17792TIP3    H174867   2.388   2.591  15.066  0.8766  0.0190 -0.3276
17792TIP3    H274868   2.466   2.591  15.196  2.0969  1.0980 -1.0379
17793TIP3   OH274869   5.107   5.026   5.672 -0.1759  0.4035 -0.1931
17793TIP3    H174870   5.083   5.066   5.756  1.2391 -0.4494  0.6589
17793TIP3    H274871   5.060   5.078   5.607 -3.3451 -0.4254  1.2270
17794TIP3   OH274872   5.557   4.034  13.583  0.4893 -0.5578 -0.4663
17794TIP3    H174873   5.605   4.117  13.583  0.9107 -0.6382  3.2838
17794TIP3    H274874   5.604   3.979  13.520  2.6109  0.7996 -0.1644
17795TIP3   OH274875   3.861   2.996   2.795 -0.3269 -0.2287 -0.1429
17795TIP3    H174876   3.893   3.068   2.742  0.2349 -0.7157 -0.4692
17795TIP3    H274877   3.859   2.920   2.736  0.3913 -0.7948  0.5397
17796TIP3   OH274878   5.675   4.179  11.779 -0.1372  0.4836  0.2322
17796TIP3    H174879   5.641   4.107  11.832  2.0932 -1.7326 -1.1097
17796TIP3    H274880   5.766   4.188  11.807  0.2686  1.2021 -1.2208
17797TIP3   OH274881   2.806   2.641  14.702 -0.1702  0.3631 -0.4528
17797TIP3    H174882   2.882   2.625  14.646  1.1386 -0.6235  1.4832
17797TIP3    H274883   2.735   2.591  14.662  0.8281 -0.6748 -0.9898
17798TIP3   OH274884   6.288   2.066   1.031  0.4455  0.5068  0.3663
17798TIP3    H174885   6.281   2.029   1.119  0.6691  2.0115  1.0406
17798TIP3    H274886   6.356   2.014   0.988  0.1181 -0.4388  0.9674
17799TIP3   OH274887   1.319   2.787  11.872  0.8136  0.5161  0.3201
17799TIP3    H174888   1.281   2.699  11.863  0.7299  0.6652 -0.9239
17799TIP3    H274889   1.288   2.817  11.957 -1.2640  0.3213 -0.3078
17800TIP3   OH274890   4.425   1.997   2.666 -0.5146 -0.6305 -0.6627
17800TIP3    H174891   4.439   2.080   2.621 -0.3803 -0.1293  0.2889
17800TIP3    H274892   4.411   1.934   2.596 -0.7750  0.2226 -1.3854
17801TIP3   OH274893   2.489   4.809   2.952  0.4299 -0.4076 -0.2407
17801TIP3    H174894   2.492   4.874   2.882  2.3341  0.1739  0.3107
17801TIP3    H274895   2.435   4.850   3.020 -0.4279 -0.4692 -0.8720
17802TIP3   OH274896   5.811   0.156  12.135 -0.0971  0.2694  0.7015
17802TIP3    H174897   5.887   0.110  12.169 -0.4958 -0.4962  0.5816
17802TIP3    H274898   5.796   0.117  12.049 -0.9830 -0.0217  0.9740
17803TIP3   OH274899   0.121   6.251  12.690 -0.0138 -0.5896 -0.5179
17803TIP3    H174900   0.077   6.213  12.765  1.9978  0.6978  1.4464
17803TIP3    H274901   0.173   6.179  12.654  2.8632 -0.2423  2.4584
17804TIP3   OH274902   4.958   4.641  11.973  0.1396  0.2024 -0.3085
17804TIP3    H174903   4.883   4.693  11.944  1.0687  2.1604  0.6626
17804TIP3    H274904   5.034   4.693  11.949  1.0955 -0.4204  1.2634
17805TIP3   OH274905   2.547   3.088   3.127 -0.1885 -0.1850  0.2935
17805TIP3    H174906   2.559   2.994   3.136  6.4162  0.1415 -0.1684
17805TIP3    H274907   2.564   3.124   3.214  0.8372  0.5950 -0.1919
17806TIP3   OH274908   3.951   3.866  15.382  0.0544  0.3312 -0.0539
17806TIP3    H174909   3.908   3.869  15.468  1.1174  0.7366  0.4933
17806TIP3    H274910   3.886   3.829  15.323 -0.9485  0.7260  0.7800
17807TIP3   OH274911   0.406   0.171  12.134 -0.7271 -0.4206 -0.2893
17807TIP3    H174912   0.483   0.157  12.079 -0.3496  0.1022  0.1000
17807TIP3    H274913   0.365   0.085  12.139  0.2186 -0.8712  0.0619
17808TIP3   OH274914   4.426   5.542   2.467 -0.6387 -0.1005 -0.1756
17808TIP3    H174915   4.354   5.570   2.410 -1.2483 -0.8501  0.1934
17808TIP3    H274916   4.425   5.605   2.539 -1.3152 -0.4341  0.1211
17809TIP3   OH274917   3.633   6.012  14.263 -0.6679 -0.8446  0.2780
17809TIP3    H174918   3.698   5.949  14.295 -0.0748 -0.1339  0.5320
17809TIP3    H274919   3.629   5.997  14.169  1.1142  0.1646 -0.0191
17810TIP3   OH274920   2.348   1.018   1.425  0.4270  0.3149  0.4255
17810TIP3    H174921   2.319   1.072   1.352  0.3884  0.4776  0.5593
17810TIP3    H274922   2.337   0.928   1.395 -1.6750  0.3118  0.9916
17811TIP3   OH274923   5.612   1.730   5.627 -0.1118  0.2195  0.2171
17811TIP3    H174924   5.614   1.826   5.633  0.9575  0.2440 -0.3415
17811TIP3    H274925   5.703   1.705   5.612 -0.6276 -0.7197 -1.7453
17812TIP3   OH274926   3.396   1.907  15.476  0.0925 -0.1479  0.0161
17812TIP3    H174927   3.471   1.878  15.528 -0.2244 -0.7712  0.1220
17812TIP3    H274928   3.435   1.964  15.409  0.6059 -0.0891  0.3574
17813TIP3   OH274929   4.638   1.421   3.535  0.0063  0.6354 -0.5348
17813TIP3    H174930   4.545   1.398   3.539 -0.3659  1.9259 -1.3155
17813TIP3    H274931   4.665   1.427   3.627 -0.8826  1.0301 -0.2913
17814TIP3   OH274932   0.335   6.505   1.755 -0.4105 -0.2560  0.0735
17814TIP3    H174933   0.343   6.582   1.812 -2.4969 -0.4753  0.7282
17814TIP3    H274934   0.425   6.482   1.734  0.4115  0.3068  2.6446
17815TIP3   OH274935   6.563   0.629  15.785 -0.0879 -0.1390 -0.4680
17815TIP3    H174936   6.557   0.723  15.804 -0.7923  0.5268 -3.4798
17815TIP3    H274937   6.525   0.620  15.698 -0.9275 -3.4044  0.1198
17816TIP3   OH274938   1.033   1.689  14.759 -0.5471  0.0716 -0.5265
17816TIP3    H174939   1.012   1.641  14.839 -1.4799 -0.0762 -0.8534
17816TIP3    H274940   1.030   1.781  14.784  0.3191  0.0020 -0.1215
17817TIP3   OH274941   5.697   0.682  15.237  0.0439  0.7015  0.0983
17817TIP3    H174942   5.723   0.627  15.163  0.4532  0.7912  0.1716
17817TIP3    H274943   5.699   0.623  15.312  1.8055  1.0865  0.4146
17818TIP3   OH274944   1.334   6.802  16.702  0.2958 -0.1312  0.3251
17818TIP3    H174945   1.381   6.736  16.650  1.5503  0.3862  0.7734
17818TIP3    H274946   1.398   6.871  16.716 -1.0995  1.4009 -0.4729
17819TIP3   OH274947   1.018   0.226  14.377 -0.2405  0.0755  0.2637
17819TIP3    H174948   1.102   0.194  14.409  1.4212  2.0013 -1.7843
17819TIP3    H274949   0.996   0.299  14.435 -1.4211 -1.4026  1.7867
17820TIP3   OH274950   4.724   0.298   2.133  0.2667 -0.0044  0.5669
17820TIP3    H174951   4.643   0.256   2.103  0.0453 -1.3509  2.8397
17820TIP3    H274952   4.696   0.384   2.163 -0.7626 -1.0759  2.9732
17821TIP3   OH274953   5.330   1.374  13.898 -0.3336  0.0034 -0.7466
17821TIP3    H174954   5.305   1.389  13.807 -2.3658  0.5555 -0.1451
17821TIP3    H274955   5.393   1.443  13.918  0.7330 -0.5869 -1.9208
17822TIP3   OH274956   1.970   3.733  16.005 -0.1449 -0.2063 -0.2350
17822TIP3    H174957   1.986   3.648  16.044  0.1002  0.0500  0.2348
17822TIP3    H274958   2.040   3.744  15.940  0.3978  0.0448  0.3822
17823TIP3   OH274959   2.039   4.047   0.676  0.0900  0.3652 -0.1034
17823TIP3    H174960   1.970   3.983   0.693  1.2569 -0.7904  0.5812
17823TIP3    H274961   2.093   4.006   0.608  0.7196  0.7218  0.1682
17824TIP3   OH274962   2.134   2.398   0.940 -0.2479 -0.2756  0.1960
17824TIP3    H174963   2.170   2.464   0.881 -0.7240 -0.2450 -0.0617
17824TIP3    H274964   2.051   2.372   0.899 -0.9730  0.3070  1.2409
17825TIP3   OH274965   2.524   1.574   3.229 -0.4580 -0.1413 -0.1393
17825TIP3    H174966   2.490   1.497   3.182 -1.0175 -0.4979  0.8177
17825TIP3    H274967   2.447   1.629   3.244 -0.3026 -0.0648  0.4105
17826TIP3   OH274968   2.080   0.632  12.086 -0.2902 -1.0493 -0.0129
17826TIP3    H174969   2.121   0.672  12.009 -0.4417  0.2453  0.5488
17826TIP3    H274970   2.150   0.627  12.151 -0.4672 -0.9743  0.1839
17827TIP3   OH274971   3.766   4.804   0.227  0.4912 -0.0506  0.0761
17827TIP3    H174972   3.684   4.836   0.264  0.1380 -0.2924 -0.4958
17827TIP3    H274973   3.822   4.882   0.220  0.2123  0.1606  0.1933
17828TIP3   OH274974   6.536   4.192   2.581  0.3860 -0.1964 -0.7217
17828TIP3    H174975   6.536   4.141   2.662 -2.8503  1.3731  0.4625
17828TIP3    H274976   6.473   4.147   2.525 -0.4916  0.9618 -0.6970
17829TIP3   OH274977   3.116   6.877   4.085  0.0882  0.0959  0.1447
17829TIP3    H174978   3.201   6.882   4.129 -0.0130  0.1414  0.3346
17829TIP3    H274979   3.132   6.916   3.999  0.5162 -0.8548 -0.2202
17830TIP3   OH274980   3.792   6.335   3.349 -0.0009 -0.3624  0.0103
17830TIP3    H174981   3.869   6.281   3.366  0.7089  1.0647  1.5894
17830TIP3    H274982   3.821   6.400   3.285 -0.2173 -0.4767 -0.2075
17831TIP3   OH274983   5.596   4.368  15.726  0.2652  0.6632  0.8170
17831TIP3    H174984   5.652   4.430  15.772 -1.4461  1.5092  1.8794
17831TIP3    H274985   5.576   4.301  15.791 -0.3320  0.6401  0.6198
17832TIP3   OH274986   1.854   1.470   5.048  0.1368  0.0661 -0.0786
17832TIP3    H174987   1.837   1.378   5.065 -2.9731  0.6646  0.6227
17832TIP3    H274988   1.932   1.470   4.992  0.5559 -2.9141  0.3559
17833TIP3   OH274989   0.239   5.076   6.182 -0.2112 -0.0348  0.2925
17833TIP3    H174990   0.182   5.150   6.163  1.0581  1.1779  1.0186
17833TIP3    H274991   0.323   5.099   6.142 -0.1110 -1.6412 -0.4939
17834TIP3   OH274992   0.615   4.917  16.937  0.5765 -0.4233  0.3409
17834TIP3    H174993   0.581   5.001  16.906 -0.7262 -1.4550 -1.1601
17834TIP3    H274994   0.707   4.918  16.912  1.2453  1.4932  2.4753
17835TIP3   OH274995   0.655   1.827  13.178 -0.0276  0.6154 -0.2218
17835TIP3    H174996   0.639   1.828  13.084  0.2547 -0.2504 -0.2847
17835TIP3    H274997   0.583   1.775  13.214 -0.5562  1.5753  0.1300
17836TIP3   OH274998   5.056   3.219  14.211  0.4765  0.0136 -0.1009
17836TIP3    H174999   4.966   3.217  14.178  0.8124 -2.0202 -1.0185
17836TIP3    H275000   5.103   3.273  14.148  0.3920 -0.9958 -1.0551
17837TIP3   OH275001   1.008   2.834  11.767 -0.0688  0.0631 -0.4488
17837TIP3    H175002   0.982   2.910  11.819  0.3502 -0.5935  0.7410
17837TIP3    H275003   1.088   2.862  11.721 -1.5701  1.3548 -2.4522
17838TIP3   OH275004   6.447   4.402   4.945  0.0592  0.3399 -0.3304
17838TIP3    H175005   6.432   4.325   4.891  1.8404  0.3147 -0.8441
17838TIP3    H275006   6.497   4.370   5.020 -1.1950  0.6197  0.6687
17839TIP3   OH275007   5.404   5.556   3.997 -0.5299 -0.2659 -0.0753
17839TIP3    H175008   5.490   5.532   4.033 -0.1672 -0.8603 -1.2952
17839TIP3    H275009   5.412   5.540   3.903 -1.6914  0.5577 -0.3285
17840TIP3   OH275010   3.182   2.183  14.876  0.0718  0.3233 -0.3446
17840TIP3    H175011   3.091   2.205  14.857 -0.0911  0.9298  0.9900
17840TIP3    H275012   3.195   2.214  14.966  1.3861 -0.4086 -0.2669
17841TIP3   OH275013   2.543   5.109  12.885  0.6104 -0.2172 -0.0436
17841TIP3    H175014   2.455   5.091  12.919  0.2844 -0.5310 -1.0390
17841TIP3    H275015   2.578   5.175  12.945 -1.0069  1.3201 -0.7190
17842TIP3   OH275016   2.311   4.077   5.536  0.1793 -0.0789  0.2869
17842TIP3    H175017   2.394   4.051   5.496  0.1281 -0.5049  0.4542
17842TIP3    H275018   2.251   4.005   5.516 -0.2638  0.4140 -0.1843
17843TIP3   OH275019   4.663   6.713   2.115  0.1930 -0.1037  0.7105
17843TIP3    H175020   4.642   6.645   2.052  0.1734  0.8031 -0.2750
17843TIP3    H275021   4.693   6.787   2.063  1.3644  0.2541  1.8198
17844TIP3   OH275022   0.539   4.868  12.659 -0.0713  0.1793  0.2506
17844TIP3    H175023   0.485   4.947  12.660 -0.3626  0.0165 -1.0010
17844TIP3    H275024   0.600   4.880  12.732 -2.5814 -0.2097  2.5947
17845TIP3   OH275025   0.609   1.722  13.957  0.0454 -0.3340 -0.0694
17845TIP3    H175026   0.668   1.659  13.915  0.2281 -0.6933  0.7044
17845TIP3    H275027   0.659   1.803  13.961  0.5392 -0.6567  0.6525
17846TIP3   OH275028   6.185   4.179   4.682 -0.0691  0.4627 -0.3696
17846TIP3    H175029   6.104   4.160   4.729 -0.1689 -1.4186 -1.1871
17846TIP3    H275030   6.198   4.102   4.626  2.0514  0.9085 -0.5732
17847TIP3   OH275031   0.823   0.589   3.489 -0.0071  0.3655  0.3863
17847TIP3    H175032   0.733   0.586   3.456  0.5923 -1.7517 -1.3267
17847TIP3    H275033   0.814   0.591   3.584 -1.9232 -1.1601  0.3138
17848TIP3   OH275034   0.762   1.029   1.015 -0.2775 -0.0051  0.5790
17848TIP3    H175035   0.727   0.946   0.984 -1.3836  0.7267 -0.2006
17848TIP3    H275036   0.856   1.022   1.001 -0.5885 -0.1757 -1.9498
17849TIP3   OH275037   0.744   3.411   3.649  0.2268  0.2632  0.0640
17849TIP3    H175038   0.714   3.323   3.670  2.4821 -0.5111  0.2887
17849TIP3    H275039   0.825   3.398   3.600  1.6334  2.1875  1.7050
17850TIP3   OH275040   5.570   6.073  14.228 -0.9375 -0.0225  0.1937
17850TIP3    H175041   5.616   6.139  14.280 -2.0378  1.1555 -0.2859
17850TIP3    H275042   5.502   6.039  14.287 -1.7400  0.8190 -0.2232
17851TIP3   OH275043   5.020   6.685  13.372 -0.1046 -0.4836  0.2553
17851TIP3    H175044   5.077   6.713  13.444 -1.1139  1.5357  0.3358
17851TIP3    H275045   4.953   6.631  13.415  0.7312 -1.4508  0.4022
17852TIP3   OH275046   4.618   4.827   4.231 -0.6419 -0.1459  0.1639
17852TIP3    H175047   4.633   4.860   4.143 -2.6970 -0.4037 -0.3439
17852TIP3    H275048   4.695   4.774   4.251  0.2936  0.7060 -1.0750
17853TIP3   OH275049   0.068   5.683   0.643  0.2741  0.1831  0.1468
17853TIP3    H175050   0.008   5.718   0.709  0.0570  1.1952 -0.5539
17853TIP3    H275051   0.024   5.700   0.559  0.6751 -0.8010 -0.2797
17854TIP3   OH275052   1.538   0.877  14.136 -0.3607 -0.0291  0.0140
17854TIP3    H175053   1.545   0.940  14.064 -1.3398  1.8900  1.5021
17854TIP3    H275054   1.615   0.821  14.127  1.8937  2.8942 -0.0259
17855TIP3   OH275055   0.613   5.005  13.746  0.6263 -0.5880 -0.2754
17855TIP3    H175056   0.663   5.065  13.691 -0.2926 -1.0123 -1.6258
17855TIP3    H275057   0.644   5.023  13.835 -1.2898  3.6644 -0.2072
17856TIP3   OH275058   5.235   2.026  14.558  0.0031  0.0137 -0.7626
17856TIP3    H175059   5.220   2.118  14.583  1.8003  0.7235 -2.0533
17856TIP3    H275060   5.217   1.977  14.638  0.1254  1.6137  0.3143
17857TIP3   OH275061   5.380   4.156   4.453 -0.4647 -0.0646  0.3069
17857TIP3    H175062   5.435   4.189   4.383 -0.9180 -0.9439 -0.4852
17857TIP3    H275063   5.316   4.226   4.468  0.0803  0.4294  0.3637
17858TIP3   OH275064   0.393   5.998  15.364  0.6104  0.5122 -0.5645
17858TIP3    H175065   0.310   5.972  15.325 -0.6111  1.7055  1.0644
17858TIP3    H275066   0.397   5.948  15.446  1.6339  0.2651 -0.7578
17859TIP3   OH275067   0.384   6.380   3.463 -0.0561  0.0470 -0.1277
17859TIP3    H175068   0.339   6.396   3.546 -0.1406 -0.3325 -0.0963
17859TIP3    H275069   0.414   6.466   3.435 -0.9714  0.3471 -0.2426
17860TIP3   OH275070   3.130   2.418   3.926  0.3117 -0.1848 -0.4223
17860TIP3    H175071   3.165   2.438   3.839  1.6949  0.2630  0.2154
17860TIP3    H275072   3.093   2.330   3.917 -0.9923  0.4623 -1.8586
17861TIP3   OH275073   1.592   2.275  16.620  0.3800  0.5291 -0.4267
17861TIP3    H175074   1.521   2.270  16.556 -0.3825  0.3430  0.4135
17861TIP3    H275075   1.577   2.201  16.680  1.1041  0.6628 -0.0607
17862TIP3   OH275076   2.621   3.106   1.886 -0.3605  0.1251  0.1026
17862TIP3    H175077   2.692   3.057   1.929 -0.7790 -0.0072  0.6528
17862TIP3    H275078   2.655   3.125   1.799  0.2755 -0.1171  0.2887
17863TIP3   OH275079   5.095   1.299  13.553  0.6342 -0.7130 -0.2325
17863TIP3    H175080   5.010   1.294  13.597  0.0941 -2.5257 -1.3936
17863TIP3    H275081   5.093   1.384  13.508 -0.3216 -0.4937  0.1920
17864TIP3   OH275082   5.557   5.566  14.305 -0.1943 -0.5451 -0.2281
17864TIP3    H175083   5.572   5.472  14.293  1.2669 -0.4158  0.4199
17864TIP3    H275084   5.545   5.599  14.216 -0.7356 -1.3499 -0.4598
17865TIP3   OH275085   4.586   3.489  13.154  0.4516 -0.5636  0.6655
17865TIP3    H175086   4.595   3.477  13.249  0.2848 -1.4659  0.5719
17865TIP3    H275087   4.636   3.418  13.115  1.7930  0.6658  0.0291
17866TIP3   OH275088   4.894   0.707   2.514 -0.1570 -0.1606 -0.1939
17866TIP3    H175089   4.919   0.780   2.456  0.1158 -0.4749 -0.4782
17866TIP3    H275090   4.966   0.702   2.577 -1.0119  0.9365  0.9112
17867TIP3   OH275091   4.723   5.888   2.413 -0.1785 -0.4852  0.4294
17867TIP3    H175092   4.653   5.868   2.476 -1.9747  2.4267 -0.4816
17867TIP3    H275093   4.791   5.929   2.466 -1.1385  0.8011  0.6940
17868TIP3   OH275094   6.691   0.724  13.900 -0.4322  0.0348  0.4592
17868TIP3    H175095   6.715   0.734  13.992  1.3908  0.7040 -0.0417
17868TIP3    H275096   6.756   0.662  13.865  0.4620  1.6797 -0.9141
17869TIP3   OH275097   5.611   1.640  11.649 -0.5724  0.5109 -0.3372
17869TIP3    H175098   5.519   1.663  11.660 -0.2565  1.3238  0.8243
17869TIP3    H275099   5.639   1.613  11.736  0.4174  0.7845 -0.5587
17870TIP3   OH275100   6.486   2.996  14.257  0.6107 -0.1186  0.3480
17870TIP3    H175101   6.501   2.987  14.163  0.3958 -1.1184  0.3968
17870TIP3    H275102   6.466   3.088  14.269 -0.3066 -0.1485 -0.7403
17871TIP3   OH275103   0.198   6.131   3.149 -0.2763  0.3505 -0.0643
17871TIP3    H175104   0.125   6.075   3.176 -1.8114  1.5111 -1.6047
17871TIP3    H275105   0.178   6.156   3.059  2.3840  0.2157 -0.7917
17872TIP3   OH275106   0.274   1.257  15.152  0.7692  0.3585 -0.1867
17872TIP3    H175107   0.202   1.195  15.149  0.9805  0.1102 -0.1286
17872TIP3    H275108   0.242   1.330  15.205  0.2854  0.5967 -0.7983
17873TIP3   OH275109   2.498   0.118   0.284 -0.7632 -0.6481 -0.2444
17873TIP3    H175110   2.480   0.086   0.196 -0.8698 -0.4561 -0.2936
17873TIP3    H275111   2.592   0.103   0.297 -0.6545 -0.2656 -0.5626
17874TIP3   OH275112   2.388   3.990  14.271  0.0037 -0.0111 -0.6825
17874TIP3    H175113   2.417   3.928  14.205 -0.2800 -0.0084 -0.8135
17874TIP3    H275114   2.455   4.058  14.272  1.1814 -1.1336  0.6275
17875TIP3   OH275115   4.471   3.596   1.032  0.3848 -0.0226 -0.6861
17875TIP3    H175116   4.423   3.646   1.098 -1.1659 -1.5170 -0.6138
17875TIP3    H275117   4.453   3.642   0.949 -1.4853 -0.7094 -0.7087
17876TIP3   OH275118   4.922   3.137   1.170  0.3115 -0.0103 -0.4626
17876TIP3    H175119   5.009   3.097   1.172  0.9060  1.2441  0.4989
17876TIP3    H275120   4.919   3.193   1.248 -1.7138 -0.7237  0.0429
17877TIP3   OH275121   4.343   2.546   6.284 -0.2442 -0.0671 -0.2498
17877TIP3    H175122   4.360   2.460   6.325  0.6529 -0.3278 -1.1343
17877TIP3    H275123   4.276   2.585   6.340  2.1224  0.3459  2.5925
17878TIP3   OH275124   0.584   0.318  11.344  0.2196 -0.2197  0.2756
17878TIP3    H175125   0.575   0.346  11.253  0.8554  1.7192  0.7627
17878TIP3    H275126   0.591   0.223  11.339  0.6326 -0.1318 -1.7322
17879TIP3   OH275127   3.961   5.938   6.257 -0.2213  0.0759 -0.1847
17879TIP3    H175128   3.899   6.002   6.291  1.6374  2.5244 -1.0743
17879TIP3    H275129   4.011   5.911   6.334  0.7396  1.8524 -0.1097
17880TIP3   OH275130   0.819   0.363  14.940 -0.1335 -0.0104  0.2260
17880TIP3    H175131   0.810   0.384  15.033 -1.4000  0.3420  0.0505
17880TIP3    H275132   0.839   0.447  14.899  1.7978 -0.3932  0.3161
17881TIP3   OH275133   5.782   3.597  10.736  0.3892  0.2952  0.2800
17881TIP3    H175134   5.700   3.640  10.761  0.8572  1.6543 -0.4375
17881TIP3    H275135   5.843   3.669  10.720  1.6172 -0.6838  0.4020
17882TIP3   OH275136   2.021   3.173   6.528 -0.3975  0.1514 -0.2570
17882TIP3    H175137   2.115   3.161   6.543 -0.6189 -1.4433 -0.0034
17882TIP3    H275138   2.002   3.259   6.567  1.1911  1.1423 -1.5595
17883TIP3   OH275139   0.412   3.118  12.990 -0.3781 -0.2464 -0.7526
17883TIP3    H175140   0.479   3.151  12.930  1.1671  0.3805  1.1897
17883TIP3    H275141   0.354   3.065  12.936  1.1369 -0.0001 -2.7046
17884TIP3   OH275142   4.215   3.535  11.273 -0.2293 -0.0884 -0.1342
17884TIP3    H175143   4.306   3.564  11.265 -0.6113  0.9191 -1.1132
17884TIP3    H275144   4.174   3.602  11.328 -0.1877 -1.0431  1.1020
17885TIP3   OH275145   6.250   1.616   2.241 -0.4250  0.4718 -0.3195
17885TIP3    H175146   6.189   1.681   2.206 -0.8796  0.6960  0.8551
17885TIP3    H275147   6.241   1.623   2.336  1.0372  0.1304 -0.1342
17886TIP3   OH275148   0.297   2.031   5.253 -0.4062  0.2796  0.6241
17886TIP3    H175149   0.358   2.012   5.182 -0.3804 -1.5656  1.0804
17886TIP3    H275150   0.321   2.118   5.283 -1.6315  2.0199 -2.8239
17887TIP3   OH275151   4.896   6.823   4.746 -0.0033  0.0071 -0.3712
17887TIP3    H175152   4.922   6.913   4.767  2.3413 -0.6304 -0.3397
17887TIP3    H275153   4.949   6.768   4.802 -0.0740 -1.4704 -1.6707
17888TIP3   OH275154   4.598   3.046  14.692 -0.6168  0.1004  0.7333
17888TIP3    H175155   4.583   3.114  14.626 -0.2876 -1.1847 -0.7405
17888TIP3    H275156   4.691   3.053  14.712 -0.4806 -0.1902  0.2340
17889TIP3   OH275157   6.594   2.284  11.405 -0.5554 -0.2235  0.3030
17889TIP3    H175158   6.634   2.240  11.330  1.0592 -1.8489  1.9937
17889TIP3    H275159   6.527   2.341  11.367  2.4643  1.6902 -2.6575
17890TIP3   OH275160   4.782   4.885  13.729 -0.3297 -0.0565  0.1472
17890TIP3    H175161   4.874   4.898  13.752 -1.0485  1.1083  2.7790
17890TIP3    H275162   4.757   4.966  13.685 -0.2443 -0.1409 -0.0581
17891TIP3   OH275163   3.930   0.305   3.522  0.1354  0.2576  0.4840
17891TIP3    H175164   3.953   0.306   3.429  0.2393 -1.6093  0.4359
17891TIP3    H275165   3.996   0.247   3.561 -0.3199  0.4686  1.5902
17892TIP3   OH275166   3.896   0.850  11.251  0.3723  0.2972  0.0301
17892TIP3    H175167   3.877   0.812  11.337  0.2796  0.3088  0.0153
17892TIP3    H275168   3.810   0.875  11.217  0.5130  1.4454  0.4677
17893TIP3   OH275169   6.632   4.341   0.462  0.2640 -0.0975  0.1800
17893TIP3    H175170   6.681   4.356   0.543 -0.2756 -0.4195  0.5727
17893TIP3    H275171   6.543   4.368   0.482 -0.0149 -0.7884 -0.1020
17894TIP3   OH275172   4.504   5.397   3.232 -0.0201  0.3678  0.3606
17894TIP3    H175173   4.418   5.424   3.199  0.9185  3.2756 -0.0497
17894TIP3    H275174   4.564   5.417   3.161  1.2217  0.2712  1.3434
17895TIP3   OH275175   4.904   0.197  16.484 -0.3695  0.2140  0.0004
17895TIP3    H175176   4.867   0.146  16.556 -1.4529 -0.1368 -0.7802
17895TIP3    H275177   4.836   0.260  16.461  0.7145  1.6376  0.5393
17896TIP3   OH275178   3.779   2.183  10.945  0.1505 -0.0721  0.1575
17896TIP3    H175179   3.798   2.090  10.954 -1.2265 -0.3248  0.6748
17896TIP3    H275180   3.691   2.193  10.980 -0.4698  1.1163 -1.6067
17897TIP3   OH275181   2.111   2.684  16.020  0.1493 -0.0215 -0.6674
17897TIP3    H175182   2.042   2.692  15.954 -0.2479 -3.7293 -0.8834
17897TIP3    H275183   2.192   2.682  15.969  0.0907  0.2111 -0.7721
17898TIP3   OH275184   6.275   2.435  11.789  0.8078  0.3252 -0.0179
17898TIP3    H175185   6.320   2.358  11.754  0.6571 -0.3910  1.2723
17898TIP3    H275186   6.198   2.444  11.734  2.0302  1.0127 -1.6739
17899TIP3   OH275187   4.630   5.505   4.470  0.5270 -0.0789 -0.2483
17899TIP3    H175188   4.590   5.546   4.393  0.0813 -0.2484 -0.1119
17899TIP3    H275189   4.600   5.414   4.467 -0.2322  0.1253  0.6096
17900TIP3   OH275190   1.875   2.289   2.220 -0.5064  0.5661  0.2912
17900TIP3    H175191   1.792   2.294   2.172  0.6652  0.1984 -1.9121
17900TIP3    H275192   1.866   2.356   2.288 -2.0860  1.4958 -0.7465
17901TIP3   OH275193   5.901   1.672   3.990 -0.6771 -0.3961  0.0387
17901TIP3    H175194   5.893   1.676   3.895  0.8629 -3.1820 -0.3114
17901TIP3    H275195   5.972   1.610   4.006  1.4743  2.4548  3.0085
17902TIP3   OH275196   0.616   5.669   2.846 -0.1656 -0.3747 -0.2879
17902TIP3    H175197   0.632   5.623   2.928 -0.7452  0.8716  0.5721
17902TIP3    H275198   0.622   5.762   2.869 -3.0990  0.0995 -0.9965
17903TIP3   OH275199   1.084   3.815  12.901 -0.0275 -0.3436 -0.1089
17903TIP3    H175200   1.139   3.750  12.945  0.0654 -0.4387 -0.3579
17903TIP3    H275201   1.072   3.884  12.965  3.2470  1.3499 -1.0616
17904TIP3   OH275202   0.845   0.379  11.947  0.0770  0.7549  0.4841
17904TIP3    H175203   0.918   0.431  11.915  0.3000 -1.0133 -2.2391
17904TIP3    H275204   0.881   0.329  12.020  1.1036  1.1509  0.2665
17905TIP3   OH275205   6.593   0.743  16.202  0.4619 -0.0464 -0.6711
17905TIP3    H175206   6.584   0.805  16.275 -1.8538 -1.5839  0.4658
17905TIP3    H275207   6.503   0.721  16.178  1.1899 -2.5977 -1.3411
17906TIP3   OH275208   3.439   4.480   1.505  0.4149  0.9644 -0.1289
17906TIP3    H175209   3.476   4.422   1.571  0.7802  1.4363  0.0927
17906TIP3    H275210   3.458   4.437   1.421  1.7930  1.3566 -0.0420
17907TIP3   OH275211   3.074   4.505  14.604 -0.1222  0.1737 -0.4521
17907TIP3    H175212   3.120   4.449  14.542 -0.0777 -1.7738  1.2509
17907TIP3    H275213   3.140   4.567  14.634  0.1340  0.4256 -1.4879
17908TIP3   OH275214   2.383   4.959  15.082 -0.4162  0.1215  0.3826
17908TIP3    H175215   2.294   4.923  15.088 -0.4851  0.1851 -0.2212
17908TIP3    H275216   2.427   4.925  15.160 -0.7253 -0.6054  0.2506
17909TIP3   OH275217   5.820   3.180  12.627  0.0524 -0.1296 -0.0981
17909TIP3    H175218   5.764   3.258  12.636  1.4425  0.7646  1.6253
17909TIP3    H275219   5.803   3.148  12.538 -2.2665  0.7697 -0.0581
17910TIP3   OH275220   1.115   4.705  16.794 -0.1940  0.6030 -0.6563
17910TIP3    H175221   1.205   4.738  16.793  0.4553 -1.0495 -1.1457
17910TIP3    H275222   1.101   4.675  16.883  1.0634 -2.3059 -1.3021
17911TIP3   OH275223   5.173   3.727   3.931 -0.5699  0.5283 -0.1347
17911TIP3    H175224   5.163   3.750   3.839 -0.4239  1.3352  0.0428
17911TIP3    H275225   5.160   3.809   3.978 -0.3293  0.1876  0.5478
17912TIP3   OH275226   1.341   2.590  15.188  0.0613  0.5311  0.3622
17912TIP3    H175227   1.376   2.543  15.112 -3.8233  0.3630 -1.6222
17912TIP3    H275228   1.361   2.682  15.170 -1.0754  0.5277 -1.1308
17913TIP3   OH275229   3.921   1.720   3.321 -0.2703 -0.3759  0.6363
17913TIP3    H175230   3.943   1.729   3.228  1.1140 -2.7243  0.6378
17913TIP3    H275231   3.969   1.790   3.365 -0.8137  0.6594 -0.3724
17914TIP3   OH275232   2.940   5.900   3.723  0.1297  0.4724  0.6723
17914TIP3    H175233   2.902   5.904   3.811  0.7322 -0.8020  1.0107
17914TIP3    H275234   2.980   5.814   3.718 -2.0398 -0.5225 -1.7586
17915TIP3   OH275235   6.785   6.425   3.844  0.1496  0.2573  0.1054
17915TIP3    H175236   6.837   6.362   3.895 -0.6220  0.3034  0.9718
17915TIP3    H275237   6.696   6.389   3.845  0.3497 -0.4945 -2.4641
17916TIP3   OH275238   5.292   5.100  11.394  0.3361  0.0103  0.0155
17916TIP3    H175239   5.241   5.117  11.316  0.9618  1.3896 -0.1145
17916TIP3    H275240   5.263   5.166  11.457 -0.1188 -1.0450  0.9404
17917TIP3   OH275241   6.677   1.497   4.540 -0.0338 -0.2245  0.1488
17917TIP3    H175242   6.660   1.527   4.450 -0.3901  0.7232  0.5207
17917TIP3    H275243   6.644   1.407   4.542 -2.0630  0.4769 -0.0665
17918TIP3   OH275244   1.353   1.008   3.114  0.4484  0.0929 -0.1392
17918TIP3    H175245   1.340   0.915   3.135 -0.0811  0.2220  0.1448
17918TIP3    H275246   1.404   1.042   3.187 -1.0288  0.4464  0.7811
17919TIP3   OH275247   6.859   4.850   2.988  0.2371 -0.3755  0.0630
17919TIP3    H175248   6.948   4.851   3.024 -0.3078  1.4966  1.5511
17919TIP3    H275249   6.825   4.937   3.008 -2.6746 -1.7019  1.5424
17920TIP3   OH275250   5.490   3.690  10.459 -0.3210 -0.2220  0.3567
17920TIP3    H175251   5.508   3.778  10.492  0.6361 -1.5228  3.6503
17920TIP3    H275252   5.395   3.683  10.460 -0.3950 -0.2656  3.5017
17921TIP3   OH275253   2.974   6.005   2.026 -0.1646  0.2178 -0.0628
17921TIP3    H175254   3.003   5.959   1.947 -1.5470  0.0568 -0.5080
17921TIP3    H275255   2.944   6.090   1.994 -2.2663 -0.4458  0.0103
17922TIP3   OH275256   4.035   5.737   5.363 -0.2236 -0.2690  0.0564
17922TIP3    H175257   4.106   5.789   5.325  0.8669  0.2805  2.6296
17922TIP3    H275258   4.032   5.765   5.455 -2.2628 -1.9449  0.5617
17923TIP3   OH275259   4.393   1.011   5.667  0.7602 -0.4997  0.0093
17923TIP3    H175260   4.377   0.959   5.588  0.5511 -0.6422  0.1464
17923TIP3    H275261   4.412   1.099   5.634 -1.0969 -0.1178 -0.1303
17924TIP3   OH275262   6.204   3.018   1.146  0.1523  0.3717  0.1023
17924TIP3    H175263   6.271   2.991   1.082 -2.0447  1.0142 -2.6995
17924TIP3    H275264   6.211   2.954   1.217  3.4076  0.1909 -0.2508
17925TIP3   OH275265   6.524   6.620   1.514  0.5283 -0.0799  0.1203
17925TIP3    H175266   6.528   6.609   1.420 -1.1512 -0.1075  0.0091
17925TIP3    H275267   6.445   6.672   1.528  0.9422  0.2202  1.4898
17926TIP3   OH275268   1.661   6.497   4.394 -0.1417  0.4119 -0.1358
17926TIP3    H175269   1.700   6.465   4.475  0.0619  2.3117  0.5436
17926TIP3    H275270   1.617   6.578   4.418 -1.2192  0.3274 -1.6766
17927TIP3   OH275271   4.017   0.366  11.657  0.4864 -0.0806  0.7027
17927TIP3    H175272   3.997   0.460  11.656  1.0264  0.2746 -4.5582
17927TIP3    H275273   3.932   0.323  11.665 -0.3195  1.0412 -1.1737
17928TIP3   OH275274   5.475   4.675  13.261  0.1438  0.8188 -0.1578
17928TIP3    H175275   5.487   4.631  13.345 -1.8367  0.3180 -0.0886
17928TIP3    H275276   5.386   4.710  13.265  0.2454  1.3412 -1.7936
17929TIP3   OH275277   4.726   6.110   3.711  0.2264 -0.1667 -0.0448
17929TIP3    H175278   4.677   6.158   3.644  0.2129  0.2627  0.2714
17929TIP3    H275279   4.804   6.162   3.725 -0.3516  0.4115  1.1666
17930TIP3   OH275280   2.100   0.467   2.389 -0.0687  0.1384  0.1347
17930TIP3    H175281   2.194   0.479   2.400 -0.0245 -0.9008  1.1713
17930TIP3    H275282   2.067   0.553   2.362  1.0579  0.7276  0.5803
17931TIP3   OH275283   3.850   2.446   1.353 -0.3308  0.9106  0.0224
17931TIP3    H175284   3.888   2.477   1.271 -0.5871  0.4632 -0.2658
17931TIP3    H275285   3.766   2.408   1.328 -0.7629  1.4517  0.5894
17932TIP3   OH275286   3.103   5.022   4.497 -0.1681  0.0969 -0.2888
17932TIP3    H175287   3.092   4.978   4.413  0.8481 -3.2257  1.1499
17932TIP3    H275288   3.197   5.033   4.506 -0.2563  0.2960  0.4574
17933TIP3   OH275289   2.674   4.672   1.395  0.5795 -0.0615  0.0184
17933TIP3    H175290   2.715   4.725   1.463  1.8829  2.3434 -2.4205
17933TIP3    H275291   2.747   4.639   1.343 -0.3827 -0.9928 -0.7894
17934TIP3   OH275292   1.161   4.535   5.932  0.3572 -0.3190 -0.4384
17934TIP3    H175293   1.130   4.472   5.997  2.0096  1.0492  1.8302
17934TIP3    H275294   1.090   4.600   5.926  0.1371 -0.5214 -0.0691
17935TIP3   OH275295   3.156   3.056  13.444 -0.0010 -0.4721  0.1598
17935TIP3    H175296   3.072   3.059  13.490  0.6061 -0.9869  1.3616
17935TIP3    H275297   3.161   2.967  13.409 -0.8420  0.1741 -1.7060
17936TIP3   OH275298   6.042   1.368   4.119  0.4350  0.7143  0.0091
17936TIP3    H175299   5.949   1.367   4.100  0.2925  4.1564 -0.0229
17936TIP3    H275300   6.083   1.332   4.040 -0.8054 -0.9264  0.0653
17937TIP3   OH275301   0.620   0.687   4.206 -0.0700  0.3968 -0.6176
17937TIP3    H175302   0.606   0.597   4.234  0.5508  0.0301 -1.4307
17937TIP3    H275303   0.572   0.740   4.270 -2.5723 -0.6047 -1.5104
17938TIP3   OH275304   0.038   4.251  15.314 -0.0295 -0.7263  0.0667
17938TIP3    H175305   0.119   4.229  15.359  1.3010  0.8147 -1.4358
17938TIP3    H275306   0.043   4.204  15.231  0.3724  0.9976 -0.9370
17939TIP3   OH275307   2.181   5.248   2.127 -0.1461 -0.3016  0.6779
17939TIP3    H175308   2.112   5.244   2.060 -1.2929 -1.3461  1.8699
17939TIP3    H275309   2.134   5.246   2.210  1.2530  0.9603  1.5475
17940TIP3   OH275310   6.643   3.524  11.296 -0.0165 -0.4894  0.0134
17940TIP3    H175311   6.694   3.446  11.318 -0.4483 -0.3841  1.4761
17940TIP3    H275312   6.592   3.498  11.219  1.0572 -1.0972 -0.5184
17941TIP3   OH275313   2.476   1.199   0.198  0.1544 -0.2536 -0.4604
17941TIP3    H175314   2.531   1.121   0.198  1.0748  0.3573 -1.9286
17941TIP3    H275315   2.537   1.272   0.209 -0.4234  0.4017 -1.5125
17942TIP3   OH275316   5.600   6.438   0.593  0.3090 -0.4010 -0.1752
17942TIP3    H175317   5.672   6.476   0.542 -0.2965  0.5512 -0.3550
17942TIP3    H275318   5.541   6.512   0.609 -0.1582 -0.9710  0.7876
17943TIP3   OH275319   4.936   4.256   0.808  0.0002 -0.4340  0.5803
17943TIP3    H175320   4.947   4.163   0.827 -0.3447 -0.6888 -0.3829
17943TIP3    H275321   4.875   4.258   0.734  0.5595  0.5214  0.1217
17944TIP3   OH275322   1.806   0.136  15.094  0.1183  0.1568  0.6596
17944TIP3    H175323   1.730   0.077  15.091  0.6401 -0.5373  0.7191
17944TIP3    H275324   1.780   0.206  15.153 -0.2493 -0.4048  1.1777
17945TIP3   OH275325   5.679   5.776  15.774  0.7338  0.2380  0.1739
17945TIP3    H175326   5.616   5.753  15.705  2.3111  1.0970 -1.6651
17945TIP3    H275327   5.630   5.765  15.855 -2.1170  1.7480 -1.1480
17946TIP3   OH275328   6.437   0.577  15.561  0.7078  0.5027 -0.3099
17946TIP3    H175329   6.375   0.504  15.561  1.0152  0.1799  1.7667
17946TIP3    H275330   6.495   0.559  15.487 -0.2185 -0.4767 -0.8156
17947TIP3   OH275331   5.030   3.487  16.717 -0.1803  0.2955  0.0984
17947TIP3    H175332   5.022   3.482  16.622  1.0911  1.5888 -0.1343
17947TIP3    H275333   5.006   3.400  16.749 -0.0070 -0.3522 -1.4557
17948TIP3   OH275334   2.903   4.725  13.462 -0.5538 -0.6016 -0.3627
17948TIP3    H175335   2.945   4.756  13.382 -0.9818 -0.1853 -0.4271
17948TIP3    H275336   2.820   4.772  13.466 -1.0339 -1.4317 -0.2491
17949TIP3   OH275337   6.317   6.234   3.694 -0.4349 -0.2490 -0.4772
17949TIP3    H175338   6.365   6.249   3.612 -0.5030 -0.3633 -0.5387
17949TIP3    H275339   6.225   6.227   3.666 -0.6028  0.9226 -0.2534
17950TIP3   OH275340   2.143   5.726   5.314  0.1098 -0.1080 -0.2255
17950TIP3    H175341   2.108   5.815   5.308  0.2024  0.1449  2.0526
17950TIP3    H275342   2.217   5.734   5.374 -0.2760 -1.8162  0.5341
17951TIP3   OH275343   1.142   3.491   3.822 -0.2539 -0.2390  0.9247
17951TIP3    H175344   1.071   3.527   3.875 -0.2327  0.4301  0.5083
17951TIP3    H275345   1.146   3.548   3.746 -0.1272 -1.0507  0.3126
17952TIP3   OH275346   1.640   0.097   5.341 -0.5486  0.2472  0.1666
17952TIP3    H175347   1.665   0.068   5.253 -0.9824 -0.2557  0.2087
17952TIP3    H275348   1.546   0.110   5.336 -0.6505 -0.2747  0.6982
17953TIP3   OH275349   1.792   2.135   4.098 -0.0609  1.2698  0.0021
17953TIP3    H175350   1.752   2.193   4.033 -0.7389  0.3141 -0.4530
17953TIP3    H275351   1.755   2.049   4.080 -0.3873  0.9937  1.7489
17954TIP3   OH275352   6.775   5.721  14.288 -0.4341 -0.3897  0.1812
17954TIP3    H175353   6.825   5.758  14.216 -1.8290  2.2247  0.4536
17954TIP3    H275354   6.842   5.687  14.349  0.9654  1.5578 -0.1782
17955TIP3   OH275355   1.453   4.521  14.422  0.0402 -1.1161  0.4204
17955TIP3    H175356   1.469   4.428  14.404 -1.3440 -1.3061  0.0878
17955TIP3    H275357   1.504   4.567  14.355 -4.1261 -1.7970 -3.7559
17956TIP3   OH275358   4.215   6.631   3.990  0.3875  0.2325  0.2025
17956TIP3    H175359   4.243   6.718   4.017  3.2383  0.2608 -2.2728
17956TIP3    H275360   4.282   6.572   4.025  0.5745 -0.4530 -1.2227
17957TIP3   OH275361   1.734   1.187  12.069 -0.0308 -0.5108  0.2124
17957TIP3    H175362   1.655   1.229  12.034 -0.3960  0.0349  1.6303
17957TIP3    H275363   1.775   1.254  12.124  1.8272 -0.5360 -1.0332
17958TIP3   OH275364   2.791   6.694  13.214  0.7217  0.5839 -0.5800
17958TIP3    H175365   2.790   6.602  13.237 -0.5646  0.0771 -2.3995
17958TIP3    H275366   2.881   6.723  13.229  0.9483 -0.7442  0.7454
17959TIP3   OH275367   3.326   4.487   4.469 -0.0244  0.0991  0.5770
17959TIP3    H175368   3.235   4.509   4.489  0.1421  0.7833  0.6067
17959TIP3    H275369   3.320   4.408   4.415 -0.8790  2.2938 -2.7941
17960TIP3   OH275370   3.326   4.739   2.869  0.1420 -0.2888  0.4439
17960TIP3    H175371   3.408   4.777   2.901  0.3492  0.7700 -1.2167
17960TIP3    H275372   3.353   4.668   2.811 -0.1897 -1.2423  1.4237
17961TIP3   OH275373   1.651   2.059   4.922 -0.1031  0.0620  0.2538
17961TIP3    H175374   1.574   2.057   4.979 -0.3121 -0.0674 -0.0357
17961TIP3    H275375   1.652   2.148   4.886  0.2162  0.2514  0.7102
17962TIP3   OH275376   6.071   0.549  15.496 -0.1494  0.0278 -0.0212
17962TIP3    H175377   6.045   0.627  15.448 -1.8839 -1.2114 -1.2282
17962TIP3    H275378   6.135   0.506  15.439 -0.6863 -0.4152 -0.3019
17963TIP3   OH275379   6.683   1.352   4.249 -0.3331  0.2663  0.4328
17963TIP3    H175380   6.655   1.264   4.273 -1.0284  0.5420  0.6461
17963TIP3    H275381   6.609   1.388   4.201  0.1627  0.5425 -0.1402
17964TIP3   OH275382   3.714   6.703  15.004 -0.0682  0.2061 -0.7222
17964TIP3    H175383   3.798   6.715  14.959  0.5730  1.1740  0.6832
17964TIP3    H275384   3.714   6.612  15.032  0.3369  0.0984 -1.0659
17965TIP3   OH275385   4.873   6.412   5.505 -0.0880 -0.1542 -0.4723
17965TIP3    H175386   4.862   6.374   5.593 -1.7007 -0.9858 -0.9917
17965TIP3    H275387   4.967   6.416   5.492  0.1583 -1.4661  0.7052
17966TIP3   OH275388   1.219   1.375   2.902 -0.3806 -0.4116 -0.1052
17966TIP3    H175389   1.285   1.306   2.896 -0.2692 -0.5802  2.1422
17966TIP3    H275390   1.237   1.432   2.828  1.5478 -1.0951 -0.2242
17967TIP3   OH275391   1.389   2.316  11.510  0.1962  0.0211 -0.1005
17967TIP3    H175392   1.432   2.303  11.426 -0.7917 -0.5565 -0.5336
17967TIP3    H275393   1.347   2.233  11.529  0.9453 -0.0674  1.2985
17968TIP3   OH275394   6.737   2.724  11.121 -0.7878  0.4945 -0.1486
17968TIP3    H175395   6.770   2.710  11.033 -0.5067  0.0867  0.0224
17968TIP3    H275396   6.653   2.768  11.108 -0.2783  1.3763 -0.5875
17969TIP3   OH275397   3.395   3.089  13.674  0.2348  0.1719 -0.2300
17969TIP3    H175398   3.448   3.161  13.641  1.1528  0.0875  0.9939
17969TIP3    H275399   3.374   3.113  13.764 -2.1176  0.3461 -0.7675
17970TIP3   OH275400   4.976   3.074  15.996  0.2698  0.0005  0.3615
17970TIP3    H175401   4.921   3.106  16.067 -0.3101  0.0920 -0.1260
17970TIP3    H275402   5.004   2.987  16.026 -0.5330 -0.2507  0.4035
17971TIP3   OH275403   0.795   2.468   2.105 -0.3516  0.2448 -0.3354
17971TIP3    H175404   0.856   2.457   2.178 -1.0418 -2.1843 -0.0372
17971TIP3    H275405   0.762   2.557   2.114  1.7940  1.0180  0.5334
17972TIP3   OH275406   3.042   4.418   0.207  0.0137  0.5516 -0.2820
17972TIP3    H175407   3.067   4.489   0.266 -0.4285  2.0957 -1.8647
17972TIP3    H275408   3.002   4.352   0.264  1.7098  0.8976  1.4200
17973TIP3   OH275409   1.611   6.660  10.796  0.0636 -0.6571 -0.6477
17973TIP3    H175410   1.664   6.585  10.770 -0.6700 -1.9008  1.2118
17973TIP3    H275411   1.529   6.649  10.748 -1.3770 -3.0681  2.1011
17974TIP3   OH275412   1.772   6.052  10.423 -0.4530 -0.7294  0.1996
17974TIP3    H175413   1.848   6.093  10.464  0.9843 -0.3723 -2.5900
17974TIP3    H275414   1.716   6.126  10.397  0.1015 -0.7351 -1.0765
17975TIP3   OH275415   2.964   6.503   4.379 -0.1600  0.1963 -0.1268
17975TIP3    H175416   2.957   6.586   4.332 -0.1480 -0.2124 -0.8742
17975TIP3    H275417   2.921   6.440   4.321  1.0892 -0.5723 -0.2556
17976TIP3   OH275418   0.359   2.324   0.656  0.5923 -0.3130 -0.1570
17976TIP3    H175419   0.404   2.384   0.597 -0.6750  0.3274 -0.5081
17976TIP3    H275420   0.382   2.237   0.624  0.2947  0.0221 -1.3268
17977TIP3   OH275421   0.942   4.653   5.462 -0.0451  0.7669  0.1148
17977TIP3    H175422   0.918   4.661   5.554  0.0599 -0.2330  0.2368
17977TIP3    H275423   1.025   4.701   5.454 -0.1476  1.0088  0.4935
17978TIP3   OH275424   6.647   2.513   1.460  0.0231  0.2260 -0.2344
17978TIP3    H175425   6.723   2.469   1.496  1.3337  1.0682 -1.8292
17978TIP3    H275426   6.597   2.541   1.537  1.0160 -0.8285  0.8415
17979TIP3   OH275427   1.685   6.297  14.276 -0.4374 -0.3126 -0.1880
17979TIP3    H175428   1.753   6.294  14.344 -0.8431 -1.1286  0.1979
17979TIP3    H275429   1.614   6.243  14.311 -1.2353  0.4039 -0.6472
17980TIP3   OH275430   5.657   2.081  16.380  0.0083 -0.1748 -0.3955
17980TIP3    H175431   5.703   2.145  16.433  1.7195 -0.8895 -0.9348
17980TIP3    H275432   5.614   2.023  16.443  0.1030  0.3179  0.1278
17981TIP3   OH275433   5.919   1.427   5.139 -0.4109  0.0401  0.1855
17981TIP3    H175434   5.858   1.401   5.208 -0.1801  1.7931  1.1073
17981TIP3    H275435   5.922   1.351   5.080 -1.1378 -1.2392  1.7178
17982TIP3   OH275436   2.369   3.931  11.840 -0.3118 -0.9341 -0.3364
17982TIP3    H175437   2.370   4.016  11.796  0.4357 -0.7140  0.0920
17982TIP3    H275438   2.461   3.909  11.853 -0.5029 -1.6590 -0.1442
17983TIP3   OH275439   6.019   5.778  15.056 -0.3040 -0.4509  0.5090
17983TIP3    H175440   5.944   5.725  15.082 -0.7075 -0.2721 -0.2673
17983TIP3    H275441   6.075   5.718  15.006  0.3084 -0.7062  1.4651
17984TIP3   OH275442   4.958   5.087   3.152  0.1628  0.1670  0.6168
17984TIP3    H175443   5.042   5.042   3.157 -1.1708 -2.4387  1.2443
17984TIP3    H275444   4.918   5.073   3.237 -0.9952  1.1860  0.2645
17985TIP3   OH275445   2.736   5.607   1.288  0.8730  0.3889  0.4834
17985TIP3    H175446   2.707   5.531   1.239  1.4692 -0.4264  1.3725
17985TIP3    H275447   2.832   5.600   1.289  1.0820  2.1465 -0.9927
17986TIP3   OH275448   2.178   3.196   5.489 -0.1833  0.4457 -0.1927
17986TIP3    H175449   2.125   3.121   5.516  0.5648  0.2381  0.7547
17986TIP3    H275450   2.122   3.244   5.428 -0.6297 -0.9157 -0.8736
17987TIP3   OH275451   1.124   5.206  13.335  0.3925  0.9922 -0.3413
17987TIP3    H175452   1.186   5.244  13.274 -0.4359  0.7131 -1.3817
17987TIP3    H275453   1.174   5.194  13.416  2.0287 -0.3389 -1.4975
17988TIP3   OH275454   2.223   3.509  10.608  0.2319  0.0870 -0.4336
17988TIP3    H175455   2.241   3.476  10.696  0.8565  1.1241 -0.1501
17988TIP3    H275456   2.174   3.590  10.622  0.7462  0.5098 -1.0200
17989TIP3   OH275457   5.717   2.475   0.595 -0.3153  0.5836 -0.3196
17989TIP3    H175458   5.693   2.392   0.636 -1.4509  0.9847 -0.1217
17989TIP3    H275459   5.810   2.466   0.574 -0.1856 -0.3591  0.5855
17990TIP3   OH275460   2.358   1.127  12.099  0.0592  0.2913 -0.4832
17990TIP3    H175461   2.413   1.122  12.178  0.3594 -0.5296 -0.7302
17990TIP3    H275462   2.418   1.104  12.028 -0.6514 -0.8768 -0.7263
17991TIP3   OH275463   4.454   5.427   4.996 -0.1397 -0.3422 -0.7477
17991TIP3    H175464   4.470   5.333   4.987 -0.6111 -0.4578 -0.4107
17991TIP3    H275465   4.370   5.441   4.952  0.0914 -0.0217 -1.0854
17992TIP3   OH275466   0.000   0.222  11.994 -0.1422  0.1453  0.1777
17992TIP3    H175467   0.006   0.257  12.083 -0.0197 -0.2800  0.3411
17992TIP3    H275468   0.092   0.209  11.968 -0.1904 -1.6371  0.7642
17993TIP3   OH275469   1.742   4.752   4.702  0.4313  0.2510  0.2166
17993TIP3    H175470   1.751   4.837   4.657  2.1256 -0.0997 -0.1794
17993TIP3    H275471   1.776   4.688   4.639 -0.4765 -0.6954  0.6567
17994TIP3   OH275472   0.658   6.642   2.483 -0.0240  0.5951  0.0543
17994TIP3    H175473   0.663   6.635   2.578 -1.1520 -0.3872  0.0667
17994TIP3    H275474   0.568   6.671   2.465 -1.0712 -2.7048 -0.7974
17995TIP3   OH275475   3.734   5.382  14.770 -0.2084  0.2457  0.0864
17995TIP3    H175476   3.699   5.294  14.759 -0.9449  0.3443  1.4106
17995TIP3    H275477   3.824   5.369  14.801  0.2696 -0.0104 -1.3262
17996TIP3   OH275478   2.080   3.642   2.425 -0.6095 -0.1873  0.3036
17996TIP3    H175479   2.124   3.592   2.494  0.1738 -0.5446 -0.4292
17996TIP3    H275480   2.000   3.593   2.407  0.2341 -1.3110 -0.5281
17997TIP3   OH275481   2.246   3.635   3.941 -0.4059  0.1112 -0.3775
17997TIP3    H175482   2.178   3.670   3.999  0.2239  0.6536  0.0528
17997TIP3    H275483   2.219   3.661   3.853 -1.2418 -0.5029 -0.3103
17998TIP3   OH275484   0.637   1.973  15.634 -0.1114 -0.5011  0.8448
17998TIP3    H175485   0.583   1.903  15.670 -0.3022 -2.2230 -2.4083
17998TIP3    H275486   0.576   2.043  15.613 -0.6935 -1.3237 -0.2662
17999TIP3   OH275487   5.621   3.485   4.364 -0.3277  0.3281  0.2841
17999TIP3    H175488   5.644   3.578   4.368 -1.1927  0.5317  0.8970
17999TIP3    H275489   5.636   3.460   4.273  1.3621  0.6730  0.4473
18000TIP3   OH275490   4.381   2.574  13.918  0.5410  0.1797  0.1460
18000TIP3    H175491   4.318   2.505  13.934  0.5315  0.0960 -0.2438
18000TIP3    H275492   4.459   2.529  13.886  1.0095  0.2259  1.1788
18001TIP3   OH275493   3.534   1.868   0.396  0.0271  0.1565 -0.0720
18001TIP3    H175494   3.458   1.867   0.339 -0.3907  0.1633  0.4804
18001TIP3    H275495   3.543   1.777   0.426  1.5711 -0.3635 -1.8591
18002TIP3   OH275496   6.497   5.121   0.931 -0.4192  0.1233  0.4486
18002TIP3    H175497   6.439   5.091   1.001  0.7165  0.1877  1.4550
18002TIP3    H275498   6.522   5.041   0.885 -1.2407  0.0892  0.0470
18003TIP3   OH275499   2.630   3.669   0.952  0.1265  0.4327 -0.0902
18003TIP3    H175500   2.543   3.631   0.937  0.4135  0.4872 -2.1317
18003TIP3    H275501   2.690   3.605   0.914  0.9653  0.6486  0.8403
18004TIP3   OH275502   4.077   4.829  16.069  1.1754 -0.0635  0.2765
18004TIP3    H175503   4.077   4.923  16.051  0.0589  0.5124  2.7778
18004TIP3    H275504   3.986   4.808  16.088  1.4571 -1.6045  0.0598
18005TIP3   OH275505   4.986   3.905   0.626 -0.9124 -0.0323 -0.1064
18005TIP3    H175506   4.961   3.818   0.658 -1.9151  0.3220  0.1266
18005TIP3    H275507   5.001   3.893   0.533  4.1430 -1.5580  0.5909
18006TIP3   OH275508   3.100   3.606   2.078  0.2209 -0.1179  0.1385
18006TIP3    H175509   3.047   3.685   2.067  1.1505  0.2020 -3.4310
18006TIP3    H275510   3.046   3.548   2.132 -2.0426  1.6528 -0.0669
18007TIP3   OH275511   4.452   4.491  11.565  0.3519 -0.2610  0.5071
18007TIP3    H175512   4.490   4.520  11.481  0.4444  0.7620  0.8825
18007TIP3    H275513   4.456   4.396  11.561  1.5847 -0.2105 -0.1028
18008TIP3   OH275514   6.724   0.174   3.655 -0.2375 -0.2278  0.7873
18008TIP3    H175515   6.634   0.174   3.621 -0.0268 -2.1076  0.0529
18008TIP3    H275516   6.739   0.083   3.682  1.8760 -0.3200 -0.4067
18009TIP3   OH275517   5.490   2.804  15.523  0.1772 -0.5547  0.7086
18009TIP3    H175518   5.498   2.885  15.573 -1.4674 -0.7725  1.3949
18009TIP3    H275519   5.493   2.734  15.589  6.1414 -1.5757 -0.1136
18010TIP3   OH275520   3.437   5.247   4.142  0.2394 -0.1211 -0.4417
18010TIP3    H175521   3.373   5.298   4.092 -1.0323 -1.5206 -0.2876
18010TIP3    H275522   3.423   5.157   4.116  0.1364 -0.8000  1.7780
18011TIP3   OH275523   3.629   0.105   2.988 -0.6540 -0.1211  0.3871
18011TIP3    H175524   3.682   0.088   2.909 -0.8533  0.4239  0.1323
18011TIP3    H275525   3.589   0.190   2.972 -0.9386 -0.1459  0.9528
18012TIP3   OH275526   5.420   3.350   2.169 -0.2655  0.4121 -0.3022
18012TIP3    H175527   5.329   3.330   2.146 -1.1897  2.9741  0.8514
18012TIP3    H275528   5.460   3.376   2.086 -0.0106 -2.3377 -1.1534
18013TIP3   OH275529   3.450   3.443   1.780  1.1610  0.3735  0.2684
18013TIP3    H175530   3.397   3.491   1.716 -1.7195 -1.8358  0.7769
18013TIP3    H275531   3.536   3.434   1.739  0.3100  1.6411 -1.9247
18014TIP3   OH275532   0.735   5.147  12.370  0.2715  0.5252  0.3790
18014TIP3    H175533   0.815   5.195  12.393  0.1971 -0.3225  2.6324
18014TIP3    H275534   0.750   5.059  12.402 -0.3968 -0.5060 -1.9457
18015TIP3   OH275535   4.621   6.665   2.630  0.2531 -0.2537 -0.6302
18015TIP3    H175536   4.663   6.706   2.554  1.5060 -0.0449  0.1449
18015TIP3    H275537   4.642   6.723   2.703 -2.2004  0.3487 -0.3354
18016TIP3   OH275538   3.742   4.431   5.579 -0.2016 -0.1373  0.2298
18016TIP3    H175539   3.810   4.411   5.514  0.4563  0.2620  0.7695
18016TIP3    H275540   3.778   4.397   5.662 -0.5926  0.2109  0.5449
18017TIP3   OH275541   0.562   3.603  16.184 -0.2455  0.1495  0.3224
18017TIP3    H175542   0.630   3.648  16.234 -1.2147  1.0455  0.8878
18017TIP3    H275543   0.584   3.511  16.190  2.1042  0.5302 -1.3158
18018TIP3   OH275544   4.080   1.932   4.100 -0.0911  0.0797  0.8685
18018TIP3    H175545   4.117   1.998   4.042 -1.1247  0.5516  0.7297
18018TIP3    H275546   4.141   1.930   4.175  1.6041 -1.0067 -0.4762
18019TIP3   OH275547   3.081   0.402  13.097  0.2374  0.7211 -0.0133
18019TIP3    H175548   3.037   0.386  13.180 -0.5151  0.1252 -0.5101
18019TIP3    H275549   3.104   0.495  13.099  3.1998  0.1058  2.2601
18020TIP3   OH275550   2.058   2.945   1.563 -0.2724  0.5152  0.1682
18020TIP3    H175551   2.032   2.866   1.516  0.1909  1.2941 -1.4684
18020TIP3    H275552   2.050   2.921   1.655  0.8616 -1.7773 -0.2520
18021TIP3   OH275553   3.528   1.365  15.773 -0.1102  0.4727 -0.0307
18021TIP3    H175554   3.585   1.371  15.850  0.2361 -1.5654 -0.0711
18021TIP3    H275555   3.541   1.276  15.741 -3.6534 -0.2668  0.2110
18022TIP3   OH275556   5.224   6.257   3.457 -0.4724  0.2346  0.1119
18022TIP3    H175557   5.160   6.309   3.408 -0.1217 -0.1453 -0.7901
18022TIP3    H275558   5.291   6.320   3.483  1.0832  0.0213 -2.8486
18023TIP3   OH275559   4.114   6.714   6.092  0.0095 -0.4689 -0.3623
18023TIP3    H175560   4.045   6.777   6.072 -1.0039 -0.9798  1.3429
18023TIP3    H275561   4.075   6.628   6.073  0.3821 -0.7320  0.0408
18024TIP3   OH275562   4.545   5.867  14.375 -0.6079  0.0160 -0.3835
18024TIP3    H175563   4.492   5.870  14.455 -0.7599  1.0093 -0.5174
18024TIP3    H275564   4.563   5.773  14.362 -1.3929 -0.2360  0.2775
18025TIP3   OH275565   2.599   2.189   5.799  0.0412  0.4822 -0.1791
18025TIP3    H175566   2.508   2.162   5.792  0.7888 -2.0070 -1.7074
18025TIP3    H275567   2.613   2.247   5.724  0.0247 -0.2413 -0.7538
18026TIP3   OH275568   4.663   1.757  11.799  0.5033  0.2151  0.2113
18026TIP3    H175569   4.661   1.762  11.704  0.9932 -0.5936  0.1524
18026TIP3    H275570   4.630   1.842  11.828  0.9951  0.7243 -0.6780
18027TIP3   OH275571   6.875   3.318   3.969 -0.4551  0.5816 -0.3255
18027TIP3    H175572   6.943   3.325   3.903 -0.6922 -0.1506 -0.6557
18027TIP3    H275573   6.891   3.392   4.028 -0.3631  1.3609 -1.3043
18028TIP3   OH275574   1.362   4.882  16.838  0.5595 -0.0513  0.4740
18028TIP3    H175575   1.388   4.965  16.799  0.2094  0.0199  0.3876
18028TIP3    H275576   1.426   4.819  16.806 -0.5974 -0.3065 -1.4630
18029TIP3   OH275577   5.483   3.210   2.395 -0.1576 -0.6186  0.1131
18029TIP3    H175578   5.476   3.267   2.471  0.6695 -1.6639  1.0059
18029TIP3    H275579   5.470   3.268   2.320 -1.2257  0.3923  1.0460
18030TIP3   OH275580   1.304   5.179   2.654  0.2538 -0.3676  0.0260
18030TIP3    H175581   1.324   5.239   2.726 -0.9155 -0.7151  0.6672
18030TIP3    H275582   1.220   5.138   2.679 -1.4892  1.2682 -2.6265
18031TIP3   OH275583   2.656   2.733   4.196  0.1464 -0.3334  0.0529
18031TIP3    H175584   2.599   2.744   4.272  0.7766  0.2061  0.4611
18031TIP3    H275585   2.738   2.775   4.222  0.3732 -0.1493 -0.9237
18032TIP3   OH275586   6.826   0.640   5.671 -0.0088 -0.7195 -0.7117
18032TIP3    H175587   6.910   0.674   5.640  0.4626 -0.9306  0.2850
18032TIP3    H275588   6.847   0.597   5.754 -1.0318 -1.1682 -0.6731
18033TIP3   OH275589   1.624   5.514   0.107  0.1088 -0.4305 -0.2116
18033TIP3    H175590   1.594   5.562   0.030  0.3265 -2.3104 -1.5381
18033TIP3    H275591   1.676   5.577   0.156 -0.4543  0.9583 -1.3372
18034TIP3   OH275592   4.595   3.276  15.655  0.2354  0.2823  0.0422
18034TIP3    H175593   4.577   3.236  15.740  2.1031  1.7218  1.1603
18034TIP3    H275594   4.690   3.286  15.652  0.2923 -0.2447 -2.4835
18035TIP3   OH275595   1.713   3.231   5.729 -0.0509 -0.1533 -0.4316
18035TIP3    H175596   1.678   3.168   5.666 -0.7448  1.6417 -1.9396
18035TIP3    H275597   1.639   3.253   5.785  0.6973 -2.1768  1.5191
18036TIP3   OH275598   4.739   6.682   3.859 -0.1860 -0.2260  0.0867
18036TIP3    H175599   4.801   6.651   3.794  2.1997  0.0032  2.1045
18036TIP3    H275600   4.749   6.777   3.859 -2.2235  0.0500 -1.0675
18037TIP3   OH275601   2.555   1.709  12.662 -0.6619 -0.4482 -0.1415
18037TIP3    H175602   2.606   1.664  12.595  0.2890  1.0426 -0.4455
18037TIP3    H275603   2.485   1.754  12.615 -0.7017 -0.3641 -0.0049
18038TIP3   OH275604   2.421   4.680  13.997  0.0062 -0.0831 -0.0122
18038TIP3    H175605   2.437   4.754  14.056 -0.6365 -1.3287  1.8286
18038TIP3    H275606   2.485   4.615  14.022  0.7426 -0.1038 -1.8036
18039TIP3   OH275607   5.059   5.765  15.744  0.0497  0.3997 -0.1943
18039TIP3    H175608   5.018   5.678  15.742 -0.0804  0.4748 -1.5491
18039TIP3    H275609   5.114   5.764  15.823 -0.0741 -0.8460 -0.1089
18040TIP3   OH275610   0.120   1.907  10.921 -1.0002 -0.1346  0.3447
18040TIP3    H175611   0.137   1.916  10.828 -0.1098  3.9735  0.7215
18040TIP3    H275612   0.029   1.877  10.926 -0.9429 -0.8448 -1.7806
18041TIP3   OH275613   3.707   1.937   3.258 -0.4099  0.1613 -0.2698
18041TIP3    H175614   3.744   1.962   3.342 -1.2960  1.1146 -0.1444
18041TIP3    H275615   3.614   1.921   3.276 -0.9642  1.9062 -1.3199
18042TIP3   OH275616   1.090   4.330  11.258 -0.0712  0.0119  0.5533
18042TIP3    H175617   1.101   4.272  11.183 -2.6852 -0.0338  0.1044
18042TIP3    H275618   1.079   4.272  11.333 -2.5155 -0.1811  0.1296
18043TIP3   OH275619   4.307   1.260   0.480  0.2390 -0.7531 -0.2140
18043TIP3    H175620   4.399   1.283   0.492 -0.0663  0.0869  0.6130
18043TIP3    H275621   4.261   1.308   0.549 -1.0227  0.2477 -1.6955
18044TIP3   OH275622   3.611   6.182   3.553 -0.2550 -0.0234  0.0489
18044TIP3    H175623   3.676   6.248   3.575 -0.9189  0.3735  0.9112
18044TIP3    H275624   3.555   6.177   3.631  1.1096 -3.2405  0.9916
18045TIP3   OH275625   0.280   0.025   3.355 -0.1346 -0.0710 -0.3934
18045TIP3    H175626   0.287   0.011   3.260  1.4281  0.9754 -0.4687
18045TIP3    H275627   0.260   0.118   3.364 -5.0631 -0.9556  0.2304
18046TIP3   OH275628   0.853   1.997   5.062 -0.2234 -0.0447 -0.2276
18046TIP3    H175629   0.825   1.941   4.990  0.3942  1.3294 -1.5770
18046TIP3    H275630   0.924   1.948   5.104  0.2905 -0.3016 -1.3719
18047TIP3   OH275631   1.706   4.948  14.352 -0.0516 -0.1733 -0.4785
18047TIP3    H175632   1.626   4.972  14.305  0.0234  2.2499  0.5068
18047TIP3    H275633   1.768   5.019  14.333  1.7291 -1.7103 -0.7581
18048TIP3   OH275634   2.207   4.844   0.589  0.0152  0.2676 -0.5475
18048TIP3    H175635   2.202   4.928   0.634  0.1137 -0.8638  1.7171
18048TIP3    H275636   2.119   4.807   0.596  0.4968 -0.7503  0.4530
18049TIP3   OH275637   4.656   1.660  14.288 -0.4797 -0.0479  0.2068
18049TIP3    H175638   4.620   1.732  14.340  0.2184  1.5493 -1.3730
18049TIP3    H275639   4.749   1.657  14.313 -1.1557 -2.9757  2.9811
18050TIP3   OH275640   6.256   4.688   1.595  0.1003  0.7362 -0.4842
18050TIP3    H175641   6.213   4.703   1.511  0.8317  1.2819 -0.7710
18050TIP3    H275642   6.184   4.666   1.655 -0.4476  0.5582 -1.1959
18051TIP3   OH275643   3.696   5.345   4.160 -0.1447  0.3590  0.1285
18051TIP3    H175644   3.604   5.324   4.149 -0.0818 -1.3422  2.2278
18051TIP3    H275645   3.696   5.436   4.191 -1.3835 -0.4073  2.6523
18052TIP3   OH275646   1.232   5.951   3.790 -0.4709  0.2339  0.2072
18052TIP3    H175647   1.222   5.957   3.695 -0.4245  0.2765  0.2041
18052TIP3    H275648   1.143   5.945   3.824 -0.7322  3.2895  0.3475
18053TIP3   OH275649   6.628   2.671  17.003 -0.3545  0.1171  0.1845
18053TIP3    H175650   6.700   2.631  16.953  0.4307  1.8122 -0.1104
18053TIP3    H275651   6.601   2.602  17.064  0.6023 -1.0277 -0.6160
18054TIP3   OH275652   3.775   1.193  12.020  0.2143 -0.1047  0.4316
18054TIP3    H175653   3.775   1.278  11.977  0.4066  0.3408  1.2810
18054TIP3    H275654   3.692   1.153  11.995  0.8601 -0.4032 -1.3563
18055TIP3   OH275655   4.042   0.835   5.045  0.0845  0.7304 -0.1728
18055TIP3    H175656   4.119   0.783   5.021 -1.7192 -2.4799  0.4635
18055TIP3    H275657   4.043   0.836   5.141 -0.8737  0.2367 -0.1457
18056TIP3   OH275658   1.026   0.885  12.483  0.4669 -0.3862 -0.0873
18056TIP3    H175659   0.994   0.949  12.546  2.0358  0.7703 -0.4157
18056TIP3    H275660   0.973   0.901  12.404 -0.2866 -0.6462  0.3561
18057TIP3   OH275661   6.283   0.557  15.287 -0.0869 -0.1334 -0.2278
18057TIP3    H175662   6.369   0.584  15.255 -0.9631  2.5226 -0.6103
18057TIP3    H275663   6.222   0.614  15.240 -1.8774 -0.2832  1.7923
18058TIP3   OH275664   1.635   2.938  14.633 -0.7892 -0.9088 -0.1258
18058TIP3    H175665   1.634   3.004  14.564 -0.9967 -1.1204 -0.3285
18058TIP3    H275666   1.570   2.873  14.605 -2.7931  0.2651  1.4928
18059TIP3   OH275667   1.442   5.166  12.792 -0.2453  0.9151  0.1971
18059TIP3    H175668   1.489   5.219  12.728  0.1570 -0.5263 -0.7521
18059TIP3    H275669   1.413   5.089  12.743  1.1618 -0.8529  1.9833
18060TIP3   OH275670   6.532   0.537  14.501  0.2426 -0.5431  0.1659
18060TIP3    H175671   6.531   0.466  14.565 -1.6381  0.1878  1.0100
18060TIP3    H275672   6.440   0.545  14.473  0.6096  0.8420 -0.7341
18061TIP3   OH275673   4.301   0.634   0.370  0.0294  0.0785 -0.6411
18061TIP3    H175674   4.262   0.626   0.283  0.0744 -0.1503 -0.6404
18061TIP3    H275675   4.257   0.567   0.422  0.9772 -0.7178 -0.8440
18062TIP3   OH275676   5.844   2.216   3.952 -0.5081 -0.3096 -0.6286
18062TIP3    H175677   5.895   2.283   3.998 -0.0703 -1.3097  0.4000
18062TIP3    H275678   5.808   2.262   3.876 -1.3930  1.4543  0.7667
18063TIP3   OH275679   2.788   0.391  11.831 -0.1171  0.4005 -0.1597
18063TIP3    H175680   2.871   0.411  11.789 -0.7495  1.2701 -1.0428
18063TIP3    H275681   2.749   0.477  11.849 -0.1238  0.0607  1.7283
18064TIP3   OH275682   2.879   6.702   3.036 -0.0153 -0.8490  0.1965
18064TIP3    H175683   2.973   6.687   3.034  0.3136  1.0026 -1.2851
18064TIP3    H275684   2.847   6.661   2.955 -0.3358 -0.6084  0.1999
18065TIP3   OH275685   5.488   3.023  11.626 -0.2296  0.2148  0.2664
18065TIP3    H175686   5.551   2.990  11.690 -2.5503 -0.9386  2.1180
18065TIP3    H275687   5.482   2.953  11.560 -0.6455 -0.3501  0.8924
18066TIP3   OH275688   3.527   1.260  11.893  0.0371 -0.6104 -0.0511
18066TIP3    H175689   3.470   1.320  11.845  1.8862  1.8348  0.5671
18066TIP3    H275690   3.468   1.201  11.939 -1.9370  1.0138 -0.3727
18067TIP3   OH275691   5.503   6.046   3.624  1.1634  0.3313  0.1518
18067TIP3    H175692   5.565   6.020   3.691  0.0396 -0.5218  0.8819
18067TIP3    H275693   5.458   6.123   3.660  0.1589 -0.4689  0.6442
18068TIP3   OH275694   2.323   2.536   6.508  0.0204 -0.4901 -0.0159
18068TIP3    H175695   2.342   2.464   6.569 -0.4688  1.3145  2.3939
18068TIP3    H275696   2.356   2.504   6.424  1.4693 -2.8037  1.3012
18069TIP3   OH275697   6.401   5.027  14.412  0.2960 -0.0216 -0.1774
18069TIP3    H175698   6.394   5.091  14.341 -2.3799  0.9120  0.8276
18069TIP3    H275699   6.425   5.079  14.489 -1.5799 -0.1991  0.5789
18070TIP3   OH275700   3.209   0.205  10.698  0.0576  0.0675 -0.4786
18070TIP3    H175701   3.160   0.287  10.709 -0.6375 -0.0875 -2.1552
18070TIP3    H275702   3.166   0.143  10.756 -0.5513  0.4209 -0.5453
18071TIP3   OH275703   1.895   3.754   4.798 -0.0466  0.3325 -0.1108
18071TIP3    H175704   1.869   3.829   4.851  0.6976 -0.4552  1.4419
18071TIP3    H275705   1.985   3.735   4.825 -0.3387 -1.3487 -0.1803
18072TIP3   OH275706   4.834   1.914   5.861 -0.1781 -0.0033  0.4933
18072TIP3    H175707   4.907   1.898   5.920 -0.4961 -0.0368  0.8845
18072TIP3    H275708   4.769   1.960   5.915 -0.7179 -0.5669  0.3388
18073TIP3   OH275709   4.029   4.410   5.671 -0.0519  0.6687  0.6409
18073TIP3    H175710   4.050   4.430   5.762  0.3382  1.1395  0.4557
18073TIP3    H275711   4.056   4.488   5.622  0.9243 -0.0564 -0.0259
18074TIP3   OH275712   0.196   4.984  12.057 -0.1126  0.0557 -0.1243
18074TIP3    H175713   0.147   4.968  12.137 -1.0334  1.6117 -0.3207
18074TIP3    H275714   0.286   4.996  12.086 -0.7477  2.7890  1.0513
18075TIP3   OH275715   5.072   1.172  16.842  0.6320  0.5599 -0.0409
18075TIP3    H175716   5.122   1.167  16.924  1.7425  1.1959 -0.6473
18075TIP3    H275717   5.074   1.082  16.808 -1.9009 -0.2931  1.7414
18076TIP3   OH275718   1.545   0.585   0.472 -0.4225  0.3188  0.0211
18076TIP3    H175719   1.619   0.526   0.459  1.0788  1.8281  1.2441
18076TIP3    H275720   1.489   0.571   0.396 -0.7298 -3.4244  0.7297
18077TIP3   OH275721   3.727   1.866   1.295 -0.3493  0.1926  0.1306
18077TIP3    H175722   3.691   1.846   1.382 -0.8720  0.2062 -0.0847
18077TIP3    H275723   3.652   1.864   1.236 -0.0380  0.4741 -0.2789
18078TIP3   OH275724   3.310   1.628  15.453 -0.3996  0.2663 -0.2811
18078TIP3    H175725   3.308   1.722  15.435  1.4775  0.4634  0.2511
18078TIP3    H275726   3.368   1.592  15.385 -1.3135 -0.5538 -0.6425
18079TIP3   OH275727   1.922   4.849  16.292 -0.1935  0.0703  0.2524
18079TIP3    H175728   1.992   4.912  16.305  0.1760 -0.2524 -0.1349
18079TIP3    H275729   1.841   4.897  16.310  0.1150  0.5074  0.4638
18080TIP3   OH275730   0.876   6.043  15.344 -0.4045 -0.6214 -0.8115
18080TIP3    H175731   0.919   6.101  15.407  4.0869 -2.6583 -1.5870
18080TIP3    H275732   0.844   5.969  15.396 -2.4066  0.5322 -0.3196
18081TIP3   OH275733   6.290   0.299  14.572 -0.3250  0.0854  0.2096
18081TIP3    H175734   6.380   0.328  14.589 -0.4240 -0.1678  1.2822
18081TIP3    H275735   6.240   0.381  14.567  0.3422  0.4302 -3.2808
18082TIP3   OH275736   3.668   3.709  14.545 -0.1648 -0.2740  0.3770
18082TIP3    H175737   3.737   3.659  14.589 -0.8398 -0.0550  1.7213
18082TIP3    H275738   3.587   3.683  14.589 -0.8521  0.0724 -0.6415
18083TIP3   OH275739   4.561   5.980  15.250  0.1385  0.0856 -0.4460
18083TIP3    H175740   4.495   5.911  15.263  1.2300 -1.0965 -0.9355
18083TIP3    H275741   4.523   6.037  15.183 -0.6131 -0.2847 -0.3463
18084TIP3   OH275742   2.956   5.675  13.909  0.1527 -0.5771 -0.0519
18084TIP3    H175743   3.035   5.623  13.896  1.0825  0.1571  2.0827
18084TIP3    H275744   2.981   5.764  13.883  0.9409  0.1825  2.9178
18085TIP3   OH275745   4.062   3.497  13.446 -0.5708 -0.0376 -0.2195
18085TIP3    H175746   4.065   3.480  13.352  1.7765 -0.2145 -0.1558
18085TIP3    H275747   4.148   3.471  13.478 -0.6238  1.8757  1.6660
18086TIP3   OH275748   5.320   5.925  10.695 -0.0663 -0.0876  0.6454
18086TIP3    H175749   5.321   5.841  10.649  0.7941 -0.0164  0.5229
18086TIP3    H275750   5.275   5.985  10.636  2.0036  0.2936 -0.6615
18087TIP3   OH275751   2.018   4.071  13.785 -0.0413  0.1809 -0.0978
18087TIP3    H175752   2.006   4.143  13.847  0.8688 -0.1060  0.4422
18087TIP3    H275753   1.942   4.015  13.798 -0.4196  0.6990 -0.0443
18088TIP3   OH275754   1.658   6.445   1.223  0.0435  0.5785  0.3211
18088TIP3    H175755   1.598   6.409   1.289  0.2277 -1.1955 -0.4114
18088TIP3    H275756   1.715   6.371   1.200  0.5751  1.4041 -1.1518
18089TIP3   OH275757   0.294   5.030  11.143  0.2851 -0.2996 -0.1793
18089TIP3    H175758   0.211   4.986  11.126 -1.4608  2.4731  0.5023
18089TIP3    H275759   0.271   5.105  11.199  2.7583  2.2569 -2.2526
18090TIP3   OH275760   2.700   1.494  14.075  0.3627 -0.3297  0.6974
18090TIP3    H175761   2.648   1.465  14.150 -0.9425  0.1365  0.0194
18090TIP3    H275762   2.637   1.539  14.018  1.0913 -1.5420 -1.1613
18091TIP3   OH275763   4.223   3.122   6.436 -0.1866  0.4431  0.2373
18091TIP3    H175764   4.129   3.104   6.449 -1.1276  1.7993 -3.4301
18091TIP3    H275765   4.234   3.213   6.462 -0.2818  0.7489 -0.7517
18092TIP3   OH275766   5.496   6.694   0.650 -0.3536 -0.1326 -0.1427
18092TIP3    H175767   5.519   6.775   0.606  0.3235  0.8726  1.9390
18092TIP3    H275768   5.407   6.709   0.682 -1.0120 -1.0239 -1.4621
18093TIP3   OH275769   5.117   4.510  10.287 -0.3076  0.6058 -0.1776
18093TIP3    H175770   5.106   4.575  10.217 -2.0478  0.1038 -0.4266
18093TIP3    H275771   5.112   4.560  10.368  1.1487  1.1195 -0.3812
18094TIP3   OH275772   6.430   1.961   3.771 -0.7415 -0.1053 -0.0936
18094TIP3    H175773   6.522   1.978   3.747 -0.8382  2.0549  0.9295
18094TIP3    H275774   6.381   2.029   3.726 -1.7091 -0.4089  0.4943
18095TIP3   OH275775   5.371   0.553  16.159  0.5238  0.0085 -0.1950
18095TIP3    H175776   5.466   0.539  16.163  0.5926  0.5656  0.3040
18095TIP3    H275777   5.362   0.639  16.117  0.3442  0.9920  1.7598
18096TIP3   OH275778   4.454   1.862   4.201  0.2180 -0.1177  0.1095
18096TIP3    H175779   4.389   1.911   4.251  0.9020 -0.0529  0.9738
18096TIP3    H275780   4.440   1.771   4.227 -0.5875 -0.3209 -0.9580
18097TIP3   OH275781   4.765   0.999   2.634  0.2859 -0.1474  0.0283
18097TIP3    H175782   4.756   0.995   2.539 -0.0624  2.5720 -0.1368
18097TIP3    H275783   4.679   0.972   2.667 -0.3569  1.0747 -0.5627
18098TIP3   OH275784   1.941   2.396  12.720  0.3011  0.0780 -0.0582
18098TIP3    H175785   1.954   2.416  12.813  1.2237  0.1654 -0.2001
18098TIP3    H275786   1.887   2.469  12.688 -0.1430 -0.0268  0.4337
18099TIP3   OH275787   4.630   4.868   6.265  0.0348 -0.4540  0.0526
18099TIP3    H175788   4.589   4.800   6.212  1.5385  0.1869 -2.0656
18099TIP3    H275789   4.708   4.826   6.302  0.4907 -0.1528 -0.5464
18100TIP3   OH275790   4.948   6.471   2.331 -0.6201  0.1490  0.1219
18100TIP3    H175791   4.891   6.435   2.400 -2.5471  2.1323 -0.3188
18100TIP3    H275792   4.973   6.557   2.364 -1.2080  0.9482 -1.4157
18101TIP3   OH275793   4.244   5.724   1.194  0.1816 -0.1560  0.0656
18101TIP3    H175794   4.154   5.694   1.209 -0.0054  0.9887  1.4814
18101TIP3    H275795   4.248   5.746   1.101 -1.2886  0.6905  0.1888
18102TIP3   OH275796   2.323   0.536  11.922  0.0150  1.0484 -0.4985
18102TIP3    H175797   2.289   0.619  11.889 -0.8629 -0.1322 -2.7617
18102TIP3    H275798   2.328   0.479  11.844  0.7799 -0.9658  0.9354
18103TIP3   OH275799   5.278   3.325  14.830 -0.4456 -0.4683  0.2902
18103TIP3    H175800   5.255   3.416  14.847  0.8305  0.3318 -1.8768
18103TIP3    H275801   5.300   3.289  14.916  0.4392  1.6939  1.0308
18104TIP3   OH275802   0.281   6.458  15.935 -0.7881  0.3058 -0.3665
18104TIP3    H175803   0.209   6.512  15.966 -1.3169  0.5774 -2.0074
18104TIP3    H275804   0.324   6.510  15.868  0.1787 -0.3670 -0.2971
18105TIP3   OH275805   5.845   3.858   3.479  0.4556  0.2815  0.4254
18105TIP3    H175806   5.871   3.866   3.388  0.9627  0.0628  0.5492
18105TIP3    H275807   5.908   3.797   3.517 -1.1994 -1.6253  0.3326
18106TIP3   OH275808   1.654   6.816  16.646 -0.5080 -0.0532 -0.3300
18106TIP3    H175809   1.597   6.855  16.580  1.5153  0.0347 -2.1289
18106TIP3    H275810   1.742   6.844  16.621  0.3933 -0.3922  2.1759
18107TIP3   OH275811   4.088   1.445   2.204  0.0643  0.9937  0.1022
18107TIP3    H175812   3.999   1.435   2.237  0.3593  1.9271  1.2812
18107TIP3    H275813   4.078   1.476   2.115 -0.7786 -0.1036 -0.2130
18108TIP3   OH275814   5.210   4.096  11.338 -0.9395 -0.1467  0.0146
18108TIP3    H175815   5.194   4.052  11.422 -0.5008  0.3824  0.3816
18108TIP3    H275816   5.250   4.179  11.362 -1.0709  0.1319 -0.7126
18109TIP3   OH275817   2.947   2.227   1.923 -0.7429  0.5606 -0.0032
18109TIP3    H175818   2.937   2.192   1.834 -0.3632  1.4505 -0.4054
18109TIP3    H275819   3.041   2.241   1.933 -0.8425  1.0521  0.3004
18110TIP3   OH275820   2.700   5.087  11.094 -0.1223 -0.7900 -0.3575
18110TIP3    H175821   2.734   5.152  11.156 -1.8169 -0.7511  0.5956
18110TIP3    H275822   2.727   5.120  11.008 -0.3196  0.8133  0.1501
18111TIP3   OH275823   5.827   0.951   1.726  0.2996 -0.3884 -0.3515
18111TIP3    H175824   5.885   0.878   1.704 -1.3330 -1.9676  0.2600
18111TIP3    H275825   5.838   1.014   1.655  2.4953 -0.7497 -0.3959
18112TIP3   OH275826   2.103   5.762  15.103 -0.1257 -0.0886 -0.2577
18112TIP3    H175827   2.122   5.670  15.082  0.3538 -0.0122 -0.1710
18112TIP3    H275828   2.031   5.758  15.166  0.2087 -0.4259  0.1062
18113TIP3   OH275829   0.258   5.412   5.987  0.2339 -0.1851 -0.5536
18113TIP3    H175830   0.200   5.476   5.946  1.6622  1.4360 -0.1213
18113TIP3    H275831   0.198   5.343   6.018 -1.1457 -0.1742 -2.8992
18114TIP3   OH275832   1.688   5.381  16.416  0.6111 -0.3127  0.0516
18114TIP3    H175833   1.741   5.381  16.336 -0.5015 -2.2608 -0.7588
18114TIP3    H275834   1.601   5.354  16.387  0.4173 -2.0546  2.0241
18115TIP3   OH275835   4.187   2.837   4.333  0.5219  1.0408 -0.2407
18115TIP3    H175836   4.197   2.780   4.257 -0.1072  1.0092 -0.3007
18115TIP3    H275837   4.274   2.837   4.374  0.0831 -1.4848  0.8724
18116TIP3   OH275838   4.473   3.573  12.257 -0.1859  0.3023 -0.3185
18116TIP3    H175839   4.464   3.491  12.208  0.8895  1.7295 -3.1328
18116TIP3    H275840   4.559   3.606  12.232  0.0541  1.6274  1.9349
18117TIP3   OH275841   1.357   0.571   2.092  0.2256 -0.4460 -0.2546
18117TIP3    H175842   1.445   0.601   2.067  1.1834 -1.4897  1.7023
18117TIP3    H275843   1.371   0.487   2.134 -1.2955  0.8333  3.1302
18118TIP3   OH275844   2.907   2.848   5.635 -0.1379 -0.1013 -0.8746
18118TIP3    H175845   2.813   2.847   5.653  0.1242  0.1310  0.6860
18118TIP3    H275846   2.936   2.934   5.665  1.0363 -1.2542  1.6263
18119TIP3   OH275847   3.746   4.703   2.832 -0.1080 -0.7734 -0.2221
18119TIP3    H175848   3.789   4.701   2.917  0.0045 -0.5460 -0.2728
18119TIP3    H275849   3.654   4.717   2.852 -0.0511 -0.5057 -0.1477
18120TIP3   OH275850   1.161   1.674  11.098 -0.2999  0.0015  0.3392
18120TIP3    H175851   1.252   1.654  11.117 -0.5251 -1.1959  0.2365
18120TIP3    H275852   1.154   1.672  11.003 -0.5422 -0.4089  0.3645
18121TIP3   OH275853   0.998   1.520   2.056  0.0314  0.1426  0.1389
18121TIP3    H175854   1.052   1.442   2.043  2.4065  1.7221 -0.1308
18121TIP3    H275855   1.020   1.550   2.144 -1.5822  0.0240  0.6149
18122TIP3   OH275856   5.980   0.421  15.723  0.2583 -0.5587  0.2972
18122TIP3    H175857   6.028   0.421  15.805 -0.4264 -2.2988  0.7344
18122TIP3    H275858   6.045   0.448  15.657  0.8606  0.6620  1.3439
18123TIP3   OH275859   6.138   4.755   1.342 -0.0361 -0.4827  0.5066
18123TIP3    H175860   6.048   4.729   1.360  0.2658 -1.0654  1.2277
18123TIP3    H275861   6.172   4.686   1.285 -0.0430 -0.2594  0.2283
18124TIP3   OH275862   2.520   0.753   2.303 -0.1650  0.2179  0.0696
18124TIP3    H175863   2.425   0.749   2.313 -0.3404  0.2960 -1.3884
18124TIP3    H275864   2.554   0.683   2.360 -1.1961 -0.9381 -0.7136
18125TIP3   OH275865   5.467   1.649  10.496  0.1073  0.0606  0.3388
18125TIP3    H175866   5.406   1.683  10.430  0.7773  1.7044  0.5365
18125TIP3    H275867   5.542   1.617  10.444 -0.7941 -1.8401  0.1053
18126TIP3   OH275868   5.784   3.670  14.249  0.4893  0.2442  0.0435
18126TIP3    H175869   5.761   3.587  14.292 -2.0154  0.3428 -0.9586
18126TIP3    H275870   5.745   3.664  14.162 -1.2996  3.1011  0.5168
18127TIP3   OH275871   4.458   2.483   1.075  0.5151 -0.4973 -0.7127
18127TIP3    H175872   4.519   2.446   1.011 -0.3794 -0.2708 -1.7360
18127TIP3    H275873   4.376   2.436   1.059 -0.2316  0.8616 -1.0009
18128TIP3   OH275874   2.062   6.103   4.364  0.1011  0.4554  0.2200
18128TIP3    H175875   2.155   6.103   4.391 -0.0246  3.5495  1.1506
18128TIP3    H275876   2.015   6.082   4.444 -0.0319 -0.9966 -0.2263
18129TIP3   OH275877   4.655   4.759  15.116  0.5818  0.1671 -0.3092
18129TIP3    H175878   4.738   4.763  15.070  0.3872  0.4500 -0.6439
18129TIP3    H275879   4.679   4.756  15.209  0.9573  0.7672 -0.3818
18130TIP3   OH275880   3.391   0.457  13.910 -0.7009 -0.3324  0.2465
18130TIP3    H175881   3.385   0.517  13.985 -1.7210 -0.6748  0.4554
18130TIP3    H275882   3.306   0.413  13.908 -0.3074 -1.0843 -0.4851
18131TIP3   OH275883   3.977   4.153   4.371  0.2777 -0.1367  0.0162
18131TIP3    H175884   3.896   4.131   4.324 -1.0031  2.3416  0.8958
18131TIP3    H275885   3.948   4.180   4.458  2.2840 -1.1473  1.0772
18132TIP3   OH275886   6.379   4.000  11.140 -0.2392 -0.2893  0.3824
18132TIP3    H175887   6.304   4.040  11.184  0.0040 -0.9649  1.4376
18132TIP3    H275888   6.443   4.071  11.132 -0.1001 -0.2653  1.5686
18133TIP3   OH275889   0.002   2.158   1.572  0.2069  0.2058  0.4199
18133TIP3    H175890  -0.026   2.219   1.641  2.1409  0.9708  0.5952
18133TIP3    H275891   0.090   2.131   1.599  0.3792 -0.7051 -0.9783
18134TIP3   OH275892   1.534   1.640  14.529 -0.6617  0.5304 -0.0915
18134TIP3    H175893   1.598   1.670  14.594 -0.2089  0.2785 -0.4101
18134TIP3    H275894   1.536   1.706  14.460  2.1515 -1.2992 -2.0020
18135TIP3   OH275895   5.361   1.244   3.536 -0.2252  0.0293 -0.2790
18135TIP3    H175896   5.351   1.317   3.597  1.1457 -1.1162  1.4341
18135TIP3    H275897   5.433   1.270   3.479 -0.8772  0.7107 -0.8066
18136TIP3   OH275898   0.732   1.453  15.244 -0.4057  0.2801  0.7483
18136TIP3    H175899   0.812   1.401  15.242  0.6765  1.7420 -3.3968
18136TIP3    H275900   0.662   1.391  15.223  0.4374 -0.1148 -1.0457
18137TIP3   OH275901   4.902   5.337  10.798 -0.0061  0.3993 -0.8915
18137TIP3    H175902   4.952   5.255  10.802 -0.1705  0.3160 -0.3558
18137TIP3    H275903   4.952   5.398  10.854 -0.9271  0.0664  0.3328
18138TIP3   OH275904   2.976   1.126  16.890 -0.5623  0.1783  0.4613
18138TIP3    H175905   2.941   1.208  16.856 -2.0009  0.3021  2.0712
18138TIP3    H275906   2.969   1.134  16.985 -0.1227 -1.5518  0.6908
18139TIP3   OH275907   5.545   0.414  16.407 -0.7246  0.5350 -0.1877
18139TIP3    H175908   5.554   0.501  16.447  0.5716  0.0272  0.6819
18139TIP3    H275909   5.571   0.428  16.316  0.5602  0.8736  0.2084
18140TIP3   OH275910   6.448   6.411   4.872  0.4868 -0.5120  0.1022
18140TIP3    H175911   6.504   6.456   4.810 -1.1147  0.0907 -0.9541
18140TIP3    H275912   6.442   6.321   4.839 -1.4289  0.1275 -1.4444
18141TIP3   OH275913   4.711   6.062   3.998  0.0282  0.1005 -0.2651
18141TIP3    H175914   4.622   6.028   3.986  0.3601 -1.1321  0.5443
18141TIP3    H275915   4.717   6.136   3.939 -1.7859  0.6565  0.1848
18142TIP3   OH275916   2.506   0.500  12.833 -0.8541  0.1277 -0.7153
18142TIP3    H175917   2.556   0.528  12.756 -0.1586  0.1741 -0.2584
18142TIP3    H275918   2.566   0.514  12.906 -1.6638  0.5231 -0.1070
18143TIP3   OH275919   6.749   3.202   2.068  0.8193  0.0268  0.2847
18143TIP3    H175920   6.810   3.186   2.140  0.9321 -0.2838  0.1247
18143TIP3    H275921   6.666   3.166   2.100  0.0476  2.6232  1.5047
18144TIP3   OH275922   5.267   6.833   2.522  0.0937 -0.0138  0.0531
18144TIP3    H175923   5.219   6.897   2.576 -1.2944 -0.3509 -0.7383
18144TIP3    H275924   5.266   6.871   2.434  2.5591  0.6484  0.2365
18145TIP3   OH275925   5.891   1.035   3.933 -0.8804 -0.2014 -0.7301
18145TIP3    H175926   5.826   1.063   3.868 -1.6861  1.0114  0.5272
18145TIP3    H275927   5.975   1.050   3.890 -1.4001  0.1303 -1.6711
18146TIP3   OH275928   4.550   0.690   0.449 -0.3965 -0.0774  0.0547
18146TIP3    H175929   4.540   0.784   0.466  0.5812  0.1160 -0.3851
18146TIP3    H275930   4.461   0.660   0.430 -0.8795  0.5461  1.2249
18147TIP3   OH275931   1.551   0.174   0.457 -0.3318 -0.5143  0.6105
18147TIP3    H175932   1.603   0.196   0.379 -1.5579  0.8556  0.1445
18147TIP3    H275933   1.615   0.168   0.527  0.6319 -0.3611 -0.2294
18148TIP3   OH275934   5.949   3.742   1.473 -0.1460  0.4007  0.1893
18148TIP3    H175935   5.878   3.695   1.517 -0.9008 -0.4963 -1.8763
18148TIP3    H275936   5.905   3.815   1.430  0.0429 -0.5013 -1.6030
18149TIP3   OH275937   5.817   5.604   4.838  0.3473 -0.1633  0.0101
18149TIP3    H175938   5.792   5.581   4.748 -0.1203  1.7749 -0.3904
18149TIP3    H275939   5.824   5.519   4.883  0.2653 -1.1543 -1.7508
18150TIP3   OH275940   2.478   3.117  14.549 -0.6136 -0.0420  0.0779
18150TIP3    H175941   2.554   3.093  14.602 -0.8396 -1.4499 -0.1824
18150TIP3    H275942   2.457   3.206  14.576  1.4294  0.5825 -0.2285
18151TIP3   OH275943   0.089   4.601   4.352 -0.1342  0.0066 -0.4406
18151TIP3    H175944   0.155   4.640   4.294 -0.2410  1.1001  0.1555
18151TIP3    H275945   0.078   4.665   4.422 -2.2738  0.1227 -0.8281
18152TIP3   OH275946   0.242   3.365   4.244  0.7514  0.6858 -0.3423
18152TIP3    H175947   0.305   3.315   4.192  0.2799 -2.0971  1.5945
18152TIP3    H275948   0.179   3.301   4.275 -1.6489  2.9783 -0.0750
18153TIP3   OH275949   4.435   1.133  13.740  0.0823  0.2418  0.5428
18153TIP3    H175950   4.458   1.211  13.790  3.4228 -0.1902 -0.1164
18153TIP3    H275951   4.449   1.156  13.649 -0.7480 -0.5857  0.1822
18154TIP3   OH275952   1.429   0.082  16.276  0.0386 -0.2484 -0.1481
18154TIP3    H175953   1.474   0.162  16.302  0.7414 -1.0131  1.0936
18154TIP3    H275954   1.484   0.012  16.311 -1.6520 -1.2258  0.6474
18155TIP3   OH275955   3.277   4.863   3.973  0.1635 -0.3145  0.4143
18155TIP3    H175956   3.220   4.940   3.978  0.5264 -0.0977  1.3223
18155TIP3    H275957   3.314   4.855   4.061 -0.9451 -2.3660  0.7460
18156TIP3   OH275958   4.624   4.297   4.818 -0.4517 -0.2085  0.0053
18156TIP3    H175959   4.706   4.345   4.821 -0.0295 -0.8097 -1.3297
18156TIP3    H275960   4.608   4.280   4.725 -1.2286 -1.5233  0.3389
18157TIP3   OH275961   0.742   6.581  13.494 -0.1496 -0.3555  0.2246
18157TIP3    H175962   0.801   6.603  13.567 -0.8597  0.5838  0.5377
18157TIP3    H275963   0.681   6.518  13.530 -1.4470  1.2316  0.9328
18158TIP3   OH275964   6.033   3.787  15.216  0.1427  0.0867 -0.0991
18158TIP3    H175965   6.020   3.701  15.175 -0.3313 -0.2078  0.6363
18158TIP3    H275966   5.954   3.800  15.269  0.9038  0.2739  1.0290
18159TIP3   OH275967   6.291   0.621  12.937 -0.3812 -0.7679  0.5424
18159TIP3    H175968   6.269   0.556  13.004 -0.7650 -2.3221 -1.0357
18159TIP3    H275969   6.326   0.571  12.864  1.0644  0.9825 -0.0499
18160TIP3   OH275970   3.396   1.189   2.751  0.3417 -0.1973  0.3925
18160TIP3    H175971   3.310   1.173   2.712  0.1784 -0.4112  0.8251
18160TIP3    H275972   3.438   1.252   2.693 -1.3855  2.5343  1.9001
18161TIP3   OH275973   2.260   1.292   2.852 -0.1757 -0.2146  0.0270
18161TIP3    H175974   2.190   1.236   2.884 -2.2485  1.8891 -0.4894
18161TIP3    H275975   2.240   1.305   2.759  1.0139  0.3110 -0.1803
18162TIP3   OH275976   1.593   1.752   3.692 -0.2220  0.0016  0.7580
18162TIP3    H175977   1.603   1.670   3.741  0.0308 -1.1139 -1.0554
18162TIP3    H275978   1.681   1.791   3.694  0.5166 -1.4218 -1.0496
18163TIP3   OH275979   0.119   5.252   4.307  0.2496  0.3686  0.1233
18163TIP3    H175980   0.027   5.234   4.326  0.2795 -0.3368 -0.3373
18163TIP3    H275981   0.120   5.280   4.216  0.2925  2.1441  0.6374
18164TIP3   OH275982   5.087   3.047   2.592  0.1294  0.0122  0.0071
18164TIP3    H175983   5.180   3.024   2.600  0.1291 -0.1707 -0.4722
18164TIP3    H275984   5.062   3.077   2.679  0.8498  0.8281 -0.0495
18165TIP3   OH275985   2.179   2.011  12.457  0.6277  0.0834  0.2826
18165TIP3    H175986   2.196   2.070  12.384 -1.8364 -1.6812 -1.9497
18165TIP3    H275987   2.173   2.067  12.534  2.1019  2.1895 -1.0432
18166TIP3   OH275988   3.431   1.212  13.889  0.0726 -0.0610 -0.9520
18166TIP3    H175989   3.349   1.163  13.898 -0.1575  0.6768  2.4421
18166TIP3    H275990   3.405   1.297  13.856 -0.9966  0.9161  2.0629
18167TIP3   OH275991   2.700   1.979  11.503 -0.0500  0.4209  0.9056
18167TIP3    H175992   2.632   1.927  11.546  0.0903  0.6393  1.4104
18167TIP3    H275993   2.704   1.946  11.414 -0.2832 -0.1140  1.0929
18168TIP3   OH275994   0.473   6.310   1.347  0.2661  0.4561  0.7847
18168TIP3    H175995   0.423   6.387   1.371 -0.0065  0.5597 -0.0759
18168TIP3    H275996   0.549   6.344   1.301  0.0179  0.2136  0.1813
18169TIP3   OH275997   6.172   0.713  12.484 -0.3448 -0.1012  0.4763
18169TIP3    H175998   6.190   0.749  12.570  0.6672 -0.4976  0.4444
18169TIP3    H275999   6.094   0.760  12.453 -0.1431  0.7156  1.1982
18170TIP3   OH276000   0.102   4.495  11.379 -0.1695  0.1419  0.7854
18170TIP3    H176001   0.165   4.565  11.360 -0.6090 -0.0587 -1.6924
18170TIP3    H276002   0.139   4.451  11.456  0.4620  2.6362  2.0196
18171TIP3   OH276003   4.168   0.652  15.995  0.1391  0.4518 -0.0468
18171TIP3    H176004   4.204   0.741  15.992  1.9941 -0.2774 -0.9009
18171TIP3    H276005   4.240   0.598  16.028 -0.0925 -1.1097 -1.9278
18172TIP3   OH276006   3.553   6.348   4.498  0.1054 -0.2796  0.0380
18172TIP3    H176007   3.536   6.282   4.566 -0.7540 -1.1605 -0.9865
18172TIP3    H276008   3.489   6.328   4.430 -0.6820  2.0975 -0.0085
18173TIP3   OH276009   2.196   4.322   4.466 -0.5226  0.3491 -0.0301
18173TIP3    H176010   2.122   4.377   4.440 -0.2314  0.8773  0.2304
18173TIP3    H276011   2.166   4.233   4.451 -1.0062  0.5763 -0.4630
18174TIP3   OH276012   3.807   5.432  16.934  0.1085  0.0520 -0.4849
18174TIP3    H176013   3.873   5.482  16.886  1.8129 -0.4214  1.2966
18174TIP3    H276014   3.749   5.499  16.971  0.5581  0.5445 -0.6593
18175TIP3   OH276015   1.651   6.863  11.481  0.0899  0.3739 -0.3474
18175TIP3    H176016   1.626   6.795  11.543 -0.5606  1.8112  1.0617
18175TIP3    H276017   1.629   6.828  11.395 -3.0779 -0.0602  0.5292
18176TIP3   OH276018   6.300   6.202  11.417 -0.0207  0.5400 -0.1932
18176TIP3    H176019   6.381   6.233  11.457  1.1555 -1.1598 -1.1118
18176TIP3    H276020   6.329   6.136  11.354 -2.0116  1.1655 -1.8390
18177TIP3   OH276021   4.549   4.152  12.249  0.5627 -0.0159 -0.1539
18177TIP3    H176022   4.543   4.234  12.201 -0.0608  0.0080 -0.0438
18177TIP3    H276023   4.532   4.176  12.340 -2.8434 -0.6647 -0.4893
18178TIP3   OH276024   6.825   5.093  12.772 -0.0280 -0.3523 -0.2053
18178TIP3    H176025   6.819   5.125  12.862 -0.5298 -1.1427  0.0499
18178TIP3    H276026   6.879   5.158  12.728  0.9472 -0.4035  0.8644
18179TIP3   OH276027   2.025   1.064  12.186 -0.0057  0.4495 -0.0909
18179TIP3    H176028   2.064   1.099  12.106 -1.8082  2.6507 -0.0779
18179TIP3    H276029   1.934   1.045  12.162  0.1225 -1.5170  0.7459
18180TIP3   OH276030   5.756   1.160  14.120 -0.2619 -0.0318  0.1391
18180TIP3    H176031   5.696   1.086  14.105 -1.7033  1.4209 -1.8739
18180TIP3    H276032   5.798   1.174  14.035 -0.0882  1.5022  0.4453
18181TIP3   OH276033   5.758   0.190   1.481  0.1820 -0.1804  0.2094
18181TIP3    H176034   5.730   0.200   1.390  1.7673  0.4243 -0.2562
18181TIP3    H276035   5.764   0.279   1.515  0.1474 -0.3706  0.7231
18182TIP3   OH276036   4.168   5.437   0.254 -0.0738 -0.2670 -0.4940
18182TIP3    H176037   4.168   5.463   0.161  0.3852  1.6245 -0.0094
18182TIP3    H276038   4.120   5.507   0.298 -1.1680 -1.6654  0.5930
18183TIP3   OH276039   6.652   4.654   0.359 -0.4453 -0.5539 -0.5951
18183TIP3    H176040   6.622   4.566   0.335  0.7963 -0.9052 -0.9302
18183TIP3    H276041   6.630   4.708   0.284 -2.1648 -0.3297  0.0293
18184TIP3   OH276042   6.289   1.457   1.677 -0.1559  0.1099 -0.5825
18184TIP3    H176043   6.320   1.421   1.593  0.3287  1.0548 -0.8325
18184TIP3    H276044   6.327   1.545   1.680  0.5394 -0.2059  1.0261
18185TIP3   OH276045   1.091   2.522  14.333 -0.1053  0.2748 -0.1765
18185TIP3    H176046   1.076   2.599  14.388  0.8074  0.9359 -0.8243
18185TIP3    H276047   1.040   2.539  14.254  2.1750  1.5264 -1.4740
18186TIP3   OH276048   4.815   0.058   2.623 -0.0507 -0.3482 -0.1402
18186TIP3    H176049   4.843   0.004   2.549  2.5713  0.0933  0.4501
18186TIP3    H276050   4.734   0.100   2.592  1.3360  0.4302 -3.1085
18187TIP3   OH276051   0.860   4.274   4.342 -0.1185 -0.0826  0.1107
18187TIP3    H176052   0.840   4.362   4.310  0.8331  0.1862  0.1979
18187TIP3    H276053   0.837   4.216   4.270 -0.9931  0.2049  0.1443
18188TIP3   OH276054   6.799   5.342   3.668 -0.1201 -0.1582 -0.2089
18188TIP3    H176055   6.739   5.364   3.597 -1.0898 -0.3497  0.5323
18188TIP3    H276056   6.805   5.246   3.666 -1.0440 -0.2569  0.6478
18189TIP3   OH276057   0.835   1.305   6.489 -0.1066  0.1966 -0.3931
18189TIP3    H176058   0.835   1.397   6.463  0.5219  0.6000  0.9609
18189TIP3    H276059   0.919   1.291   6.532 -1.3625 -0.1582  2.1641
18190TIP3   OH276060   1.890   4.296  16.393  0.6173  0.4786  0.4135
18190TIP3    H176061   1.983   4.301  16.375  0.3842  1.2758 -0.6537
18190TIP3    H276062   1.858   4.385  16.380 -0.6758 -0.2087 -1.5524
18191TIP3   OH276063   5.623   0.658  11.637  0.7042 -0.1478 -0.2043
18191TIP3    H176064   5.589   0.727  11.580  1.0933  1.8986  1.8699
18191TIP3    H276065   5.717   0.655  11.619  0.6273 -0.3982 -0.5606
18192TIP3   OH276066   1.240   1.738  15.003  0.3513 -0.1831  0.3330
18192TIP3    H176067   1.327   1.711  15.033  1.2551 -1.2134 -2.7869
18192TIP3    H276068   1.210   1.665  14.948 -1.6602  0.9548 -0.1823
18193TIP3   OH276069   0.179   2.827   3.847 -0.2488 -0.0628  0.1400
18193TIP3    H176070   0.264   2.832   3.892  0.9340  0.2137 -1.9695
18193TIP3    H276071   0.119   2.874   3.904  1.2158  0.4718  1.3157
18194TIP3   OH276072   1.446   4.103  15.166  0.9666  0.0510 -0.0745
18194TIP3    H176073   1.504   4.146  15.104  2.0093 -0.0511  0.8118
18194TIP3    H276074   1.504   4.068  15.234  0.1846 -2.6451 -0.6508
18195TIP3   OH276075   5.181   6.810   0.591  0.5135  0.1397  0.4597
18195TIP3    H176076   5.219   6.824   0.677  1.3336 -0.4804  0.2063
18195TIP3    H276077   5.161   6.717   0.587  1.1852  0.0181 -0.2991
18196TIP3   OH276078   6.709   2.104   2.211 -0.1286  0.3315 -0.4897
18196TIP3    H176079   6.729   2.194   2.184  2.1777 -0.3100 -1.1064
18196TIP3    H276080   6.778   2.051   2.171 -2.1718 -1.9289 -1.2850
18197TIP3   OH276081   6.343   5.696   0.278  0.1211 -0.4530  0.0244
18197TIP3    H176082   6.386   5.738   0.204  0.4233  1.2755  1.1266
18197TIP3    H276083   6.252   5.687   0.250  0.2702 -0.0092 -0.6349
18198TIP3   OH276084   4.524   4.458   3.281 -0.0208  0.0768 -0.3156
18198TIP3    H176085   4.515   4.548   3.252 -0.1758  0.7039  1.5160
18198TIP3    H276086   4.449   4.412   3.244 -0.7115  1.0339 -0.1434
18199TIP3   OH276087   6.110   4.066   2.825  0.3621  0.1368  0.7639
18199TIP3    H176088   6.047   4.015   2.876 -0.3730  0.5575  0.2878
18199TIP3    H276089   6.119   4.018   2.743 -0.6389  0.9513  0.1480
18200TIP3   OH276090   2.679   2.858   4.461 -0.0665 -0.2184 -0.4775
18200TIP3    H176091   2.768   2.892   4.470 -0.6885  2.2019 -2.4409
18200TIP3    H276092   2.686   2.765   4.486  2.9318 -0.0640 -0.4054
18201TIP3   OH276093   2.411   5.972  13.715 -0.1438 -0.1303  0.1598
18201TIP3    H176094   2.317   5.962  13.699  0.1333 -2.2038 -0.3997
18201TIP3    H276095   2.431   5.909  13.783  0.8478  0.3630  0.3449
18202TIP3   OH276096   6.015   6.589   3.844  0.1728  0.9630  0.0927
18202TIP3    H176097   5.993   6.676   3.811 -0.1650  1.2379  1.0196
18202TIP3    H276098   5.953   6.574   3.916 -0.3301 -0.3917 -0.5760
18203TIP3   OH276099   0.218   4.553   1.124 -0.0326 -0.1409 -0.1160
18203TIP3    H176100   0.178   4.494   1.188 -0.8334  0.0859 -0.3916
18203TIP3    H276101   0.221   4.638   1.169 -1.3690  0.2183 -0.6328
18204TIP3   OH276102   6.637   6.301   2.150  0.1327  0.7502 -0.5663
18204TIP3    H176103   6.724   6.283   2.184 -0.0795  0.2223 -0.2903
18204TIP3    H276104   6.651   6.334   2.061  0.7669  3.1975  0.3732
18205TIP3   OH276105   6.065   6.470   0.284 -0.1104  0.3568  0.0684
18205TIP3    H176106   6.014   6.546   0.254 -1.6335  0.2550  2.2073
18205TIP3    H276107   6.006   6.423   0.342  1.6567 -1.1389  0.7452
18206TIP3   OH276108   1.638   0.395  11.711 -0.3630 -0.3192 -0.3308
18206TIP3    H176109   1.622   0.351  11.794  0.8506 -0.5882 -0.2147
18206TIP3    H276110   1.638   0.325  11.646  0.4874 -0.3645 -0.2948
18207TIP3   OH276111   2.493   6.806   4.259 -0.2757 -0.4742  0.0869
18207TIP3    H176112   2.428   6.807   4.189 -1.1344  0.4765  0.8881
18207TIP3    H276113   2.541   6.888   4.249  1.7576 -1.6950 -1.3014
18208TIP3   OH276114   1.075   1.908   2.621  0.6356  0.3508 -0.8368
18208TIP3    H176115   1.119   1.843   2.566 -0.7557 -1.1151 -0.3375
18208TIP3    H276116   1.000   1.937   2.568 -0.1529 -0.3419 -0.1445
18209TIP3   OH276117   0.651   0.335   1.431  1.1679  0.2353 -0.4454
18209TIP3    H176118   0.672   0.345   1.524  0.9569  1.3013 -0.5027
18209TIP3    H276119   0.560   0.306   1.431  0.3368  2.6719 -0.3463
18210TIP3   OH276120   5.611   0.165   1.814 -0.0550 -0.1237  0.0211
18210TIP3    H176121   5.636   0.102   1.881 -0.0171 -1.9315 -1.5947
18210TIP3    H276122   5.678   0.233   1.818 -0.3263  0.0716  2.0913
18211TIP3   OH276123   6.570   0.688  13.221  0.6746 -0.2521  0.3490
18211TIP3    H176124   6.562   0.728  13.134  1.5917  0.6690  0.6634
18211TIP3    H276125   6.484   0.701  13.261  0.6553  0.5291  0.0695
18212TIP3   OH276126   3.923   5.720   2.293  0.7691  0.0672  0.0510
18212TIP3    H176127   3.854   5.772   2.335  1.1318  0.6098 -0.0129
18212TIP3    H276128   3.877   5.646   2.253  0.1940  0.5582 -0.2048
18213TIP3   OH276129   3.897   1.329   0.128 -0.7896  0.0433 -0.3084
18213TIP3    H176130   3.920   1.310   0.219  2.6053  1.7263 -0.6696
18213TIP3    H276131   3.942   1.262   0.077  2.4311  2.4889 -0.9570
18214TIP3   OH276132   2.137   4.080   3.571 -0.6791  0.1352 -0.3559
18214TIP3    H176133   2.056   4.122   3.543 -0.1919  1.2881 -0.0849
18214TIP3    H276134   2.122   4.059   3.664 -0.8833 -0.2168 -0.4647
18215TIP3   OH276135   2.747   0.821   4.104  0.3831  0.4953 -0.1286
18215TIP3    H176136   2.764   0.887   4.171  1.0956 -0.9314  1.1433
18215TIP3    H276137   2.815   0.835   4.038 -0.5012  2.0998 -0.7631
18216TIP3   OH276138   0.203   3.057  16.638  0.0643  0.1589  0.3939
18216TIP3    H176139   0.141   3.032  16.569 -0.7455 -1.3794  1.6047
18216TIP3    H276140   0.266   3.115  16.594 -1.3314  0.5331 -1.2420
18217TIP3   OH276141   1.458   4.291   4.590  0.5373  0.3689 -0.1805
18217TIP3    H176142   1.534   4.269   4.536  0.5584 -2.4780  0.8589
18217TIP3    H276143   1.495   4.310   4.676  0.2290  1.4922 -0.2811
18218TIP3   OH276144   2.255   5.676  15.668  0.2379 -0.6201  0.5362
18218TIP3    H176145   2.340   5.715  15.646 -0.3535  0.3891 -0.0248
18218TIP3    H276146   2.200   5.750  15.693 -0.2532 -1.3492  1.6924
18219TIP3   OH276147   1.561   0.310  14.417 -0.0861 -0.2513  0.1213
18219TIP3    H176148   1.568   0.382  14.480 -0.5754 -1.2053  1.2977
18219TIP3    H276149   1.640   0.258  14.430 -0.7122 -1.0644  0.7471
18220TIP3   OH276150   4.962   6.215   0.740 -0.3961  0.5009  0.1840
18220TIP3    H176151   4.972   6.294   0.794 -1.5071  1.1773 -0.5633
18220TIP3    H276152   5.048   6.173   0.743 -0.3443  0.6847  2.2016
18221TIP3   OH276153   6.066   2.997   1.801  0.9470  0.1594  1.2724
18221TIP3    H176154   6.079   2.924   1.862  0.1847  0.2063  1.5067
18221TIP3    H276155   5.976   3.025   1.817  0.8281  0.3590  0.3295
18222TIP3   OH276156   3.986   1.635   4.371  0.0090  0.2360  0.0745
18222TIP3    H176157   3.935   1.576   4.425 -1.3249 -0.6526 -2.0397
18222TIP3    H276158   3.925   1.668   4.305  1.5068  1.3507 -0.8503
18223TIP3   OH276159   1.726   5.201   3.704 -0.4684 -0.4486 -0.0491
18223TIP3    H176160   1.799   5.145   3.678 -0.0882  0.5746 -1.3210
18223TIP3    H276161   1.667   5.199   3.628  0.6196  2.5698 -1.1175
18224TIP3   OH276162   6.714   5.997  13.413 -0.0068 -0.3349  0.2148
18224TIP3    H176163   6.662   5.918  13.428 -0.3306  0.2520  2.6437
18224TIP3    H276164   6.662   6.067  13.452  0.5906  1.0006 -1.2818
18225TIP3   OH276165   3.380   5.777  11.722  0.1071  0.5482 -0.3982
18225TIP3    H176166   3.386   5.708  11.655  0.1546 -0.6155  0.7636
18225TIP3    H276167   3.451   5.756  11.783 -0.7773  0.7724  0.7368
18226TIP3   OH276168   6.537   0.043  10.575 -0.3262 -0.5175 -0.5477
18226TIP3    H176169   6.612   0.101  10.561  0.7375 -1.6829  0.1227
18226TIP3    H276170   6.461   0.095  10.549  0.7959  0.2739 -2.4732
18227TIP3   OH276171   5.892   2.721  14.824 -0.3095  0.5985 -0.0966
18227TIP3    H176172   5.853   2.716  14.737 -2.1930 -0.7566  0.7489
18227TIP3    H276173   5.899   2.630  14.852 -0.9669  1.0370  1.6499
18228TIP3   OH276174   0.657   3.431   5.553  0.1197  0.1828  0.0272
18228TIP3    H176175   0.597   3.488   5.505  0.3653  0.7783  0.4135
18228TIP3    H276176   0.602   3.358   5.581 -0.1763  0.1710 -0.5674
18229TIP3   OH276177   0.007   0.352   0.253  0.2619 -0.3800 -0.4492
18229TIP3    H176178   0.079   0.387   0.306 -1.1202  0.3556  1.0039
18229TIP3    H276179  -0.066   0.343   0.314 -0.8781 -1.1836 -1.8725
18230TIP3   OH276180   6.082   5.584  14.653 -0.2413  0.0636  0.1795
18230TIP3    H176181   6.106   5.493  14.636 -1.1370 -0.2927  0.7182
18230TIP3    H276182   5.987   5.582  14.663 -0.3127  1.1242 -0.1696
18231TIP3   OH276183   1.406   5.904  14.161 -0.2740  0.9002  0.2177
18231TIP3    H176184   1.445   5.933  14.079  0.0894  1.4994  0.5971
18231TIP3    H276185   1.319   5.945  14.162 -0.9237 -0.3710 -0.5905
18232TIP3   OH276186   0.381   4.905  14.040  0.2109 -0.2879  0.2275
18232TIP3    H176187   0.450   4.943  13.986  0.9355 -0.5563  0.9397
18232TIP3    H276188   0.302   4.954  14.016  0.9849  1.2449  0.6258
18233TIP3   OH276189   4.907   4.244  15.424  0.2884  0.4374  0.5085
18233TIP3    H176190   4.978   4.306  15.441 -1.6852  2.7371  1.0083
18233TIP3    H276191   4.911   4.183  15.498  1.2661  0.9887  0.9385
18234TIP3   OH276192   6.829   1.692  15.574 -0.4535 -0.6057 -0.0079
18234TIP3    H176193   6.773   1.767  15.595 -0.2058 -0.4783  0.1964
18234TIP3    H276194   6.809   1.628  15.642  1.1349  0.2122  1.3057
18235TIP3   OH276195   6.527   5.776   4.518 -0.2934 -0.1071 -0.3743
18235TIP3    H176196   6.495   5.790   4.429 -0.9924 -0.2388 -0.1486
18235TIP3    H276197   6.499   5.687   4.540  1.7201 -0.8968 -0.7889
18236TIP3   OH276198   2.069   5.528   5.002  0.1434  0.2894  0.3906
18236TIP3    H176199   2.030   5.461   5.058 -1.8624  0.1130 -1.1142
18236TIP3    H276200   2.045   5.611   5.044 -0.7485  0.1411  0.1965
18237TIP3   OH276201   3.632   3.086   3.477  0.0880 -0.1429  0.5030
18237TIP3    H176202   3.629   3.091   3.573  1.1563 -1.3694  0.6330
18237TIP3    H276203   3.689   3.159   3.451 -0.8387  0.6799  0.7209
18238TIP3   OH276204   3.402   6.164  16.900 -0.0858  0.1126 -0.2268
18238TIP3    H176205   3.309   6.169  16.918 -0.5254  0.1909 -2.2564
18238TIP3    H276206   3.431   6.255  16.892  0.7652  0.2236  2.7642
18239TIP3   OH276207   3.561   3.117  16.003 -0.0108  0.2964 -0.4768
18239TIP3    H176208   3.483   3.170  16.015 -0.2591 -0.0242 -0.6733
18239TIP3    H276209   3.634   3.177  16.021 -0.3139  0.1543  1.5165
18240TIP3   OH276210   0.421   3.425   2.857  0.0765  0.3385 -0.3690
18240TIP3    H176211   0.414   3.353   2.794 -0.8749  0.0575  0.0394
18240TIP3    H276212   0.396   3.503   2.808  1.8621  0.5460 -1.0279
18241TIP3   OH276213   1.067   0.343  14.144 -0.0038 -0.0604 -0.1473
18241TIP3    H176214   1.049   0.289  14.221 -0.8646  0.0140 -0.2806
18241TIP3    H276215   1.128   0.410  14.174  1.9463 -1.7000 -0.2161
18242TIP3   OH276216   3.818   2.010   6.378 -0.2442 -0.3090  0.4093
18242TIP3    H176217   3.853   2.099   6.382  0.2685 -0.5123  0.5491
18242TIP3    H276218   3.889   1.958   6.340 -0.8365 -0.5145 -0.4524
18243TIP3   OH276219   5.518   0.014   1.448  0.3806  0.2690  0.4479
18243TIP3    H176220   5.519  -0.043   1.524 -0.6331  0.6293  0.7584
18243TIP3    H276221   5.573   0.089   1.473  1.3513 -0.3501  0.2044
18244TIP3   OH276222   5.055   1.805   1.715  0.1538 -0.0482 -0.2789
18244TIP3    H176223   5.083   1.729   1.666  1.3321 -0.0342  0.3344
18244TIP3    H276224   4.972   1.831   1.675  0.1852 -1.1114 -1.0580
18245TIP3   OH276225   1.943   0.048   1.365 -0.2115 -1.2406  0.4883
18245TIP3    H176226   1.941   0.089   1.451  0.4746  0.5486 -0.2999
18245TIP3    H276227   2.025  -0.001   1.363  2.1945  2.4246 -0.6467
18246TIP3   OH276228   6.626   0.233  13.940  0.6400 -0.1429 -0.2787
18246TIP3    H176229   6.720   0.239  13.958  0.5201  0.8248  0.0851
18246TIP3    H276230   6.587   0.210  14.024  0.6818 -2.1391 -0.7672
18247TIP3   OH276231   4.590   1.808  11.505 -0.1072  0.4040 -0.3299
18247TIP3    H176232   4.664   1.854  11.465  0.6266 -1.5873 -1.3774
18247TIP3    H276233   4.516   1.830  11.449  0.0696  0.8547 -0.3991
18248TIP3   OH276234   5.144   3.631   0.837 -0.1059  0.6301 -0.3728
18248TIP3    H176235   5.065   3.616   0.890 -0.5159 -0.6039 -1.3081
18248TIP3    H276236   5.113   3.626   0.747  1.0634 -0.0007 -0.7505
18249TIP3   OH276237   1.604   0.173   3.576 -0.2767 -1.0972 -0.0542
18249TIP3    H176238   1.594   0.079   3.589 -0.6346 -1.1393 -0.5919
18249TIP3    H276239   1.612   0.183   3.481  0.6304 -0.6649  0.0518
18250TIP3   OH276240   1.400   4.780   4.646 -0.2607 -0.5899 -0.3702
18250TIP3    H176241   1.445   4.724   4.583  2.9446  1.2960  0.0260
18250TIP3    H276242   1.375   4.857   4.596  1.0246  0.3000  0.3223
18251TIP3   OH276243   0.185   2.384   5.607  0.4800 -0.4400  0.0858
18251TIP3    H176244   0.134   2.304   5.601  0.2628 -0.2571 -0.5893
18251TIP3    H276245   0.146   2.431   5.681  0.0769 -0.5857 -0.0303
18252TIP3   OH276246   3.596   2.260  13.299 -0.3274 -0.3554 -0.0408
18252TIP3    H176247   3.576   2.254  13.393  0.4856 -0.4094  0.1440
18252TIP3    H276248   3.685   2.225  13.292 -0.3363 -0.2386 -0.8197
18253TIP3   OH276249   3.178   0.958  16.518 -0.0543  0.0069  0.2022
18253TIP3    H176250   3.177   0.891  16.586 -1.3730  1.1351  1.3757
18253TIP3    H276251   3.244   1.021  16.547 -0.9392  0.7208  0.6989
18254TIP3   OH276252   0.351   0.705  16.001 -0.2533  0.2269  0.0877
18254TIP3    H176253   0.410   0.687  15.927 -0.3192  0.9709 -0.1540
18254TIP3    H276254   0.404   0.758  16.061  0.2762 -1.5630  1.2762
18255TIP3   OH276255   5.843   3.091   5.945 -0.0996  0.8837 -0.7195
18255TIP3    H176256   5.930   3.083   5.906 -0.2390  2.4772 -1.4013
18255TIP3    H276257   5.796   3.152   5.888 -1.3234  0.8661  0.2306
18256TIP3   OH276258   1.942   2.193  10.700 -0.1276  0.2082 -0.0866
18256TIP3    H176259   1.869   2.224  10.645 -1.0153  0.9762  1.4779
18256TIP3    H276260   1.908   2.113  10.741  0.0564  0.3596  0.3606
18257TIP3   OH276261   1.067   2.460   4.929  0.4382 -0.2176 -0.0296
18257TIP3    H176262   1.160   2.452   4.951  0.5695 -0.9372 -0.8032
18257TIP3    H276263   1.027   2.381   4.966  0.4226 -0.7232 -1.0901
18258TIP3   OH276264   5.541   0.892  12.615  0.2784  0.4003  0.1265
18258TIP3    H176265   5.462   0.885  12.668  0.9642  0.5304  1.1765
18258TIP3    H276266   5.553   0.987  12.602 -0.6403  0.3398 -1.4392
18259TIP3   OH276267   3.519   6.617   4.465  0.4662 -0.5662 -0.3951
18259TIP3    H176268   3.549   6.536   4.506 -1.3225  0.5710  3.6910
18259TIP3    H276269   3.434   6.594   4.426 -1.1861 -0.3964  2.7669
18260TIP3   OH276270   2.426   3.889   1.889 -0.3924  0.2220 -0.0032
18260TIP3    H176271   2.451   3.932   1.807  0.1474  0.4759  0.2917
18260TIP3    H276272   2.369   3.952   1.933  0.3985  0.6492  0.4289
18261TIP3   OH276273   5.233   3.406   4.980 -0.7014 -0.0236 -0.2910
18261TIP3    H176274   5.166   3.450   5.033  1.7790  1.6668  1.6773
18261TIP3    H276275   5.253   3.325   5.028  2.3271  2.0147  2.3197
18262TIP3   OH276276   5.861   2.266  16.065 -0.1326  0.0685  0.0973
18262TIP3    H176277   5.925   2.323  16.021  0.0484  2.0215  2.6527
18262TIP3    H276278   5.913   2.193  16.097 -0.0490 -0.7085 -1.6615
18263TIP3   OH276279   3.268   2.889  14.306  0.2486 -0.4045 -0.0840
18263TIP3    H176280   3.328   2.945  14.355  1.1559 -1.8657  0.5592
18263TIP3    H276281   3.323   2.852  14.236 -0.2393 -0.7682 -0.2773
18264TIP3   OH276282   1.025   5.698  14.364 -0.0446  0.2882 -0.0222
18264TIP3    H176283   1.035   5.774  14.421 -0.1366 -0.2740  0.7466
18264TIP3    H276284   0.932   5.699  14.340  0.2513  1.2730 -1.2400
18265TIP3   OH276285   1.044   0.969  12.935  0.3786  0.6460 -0.1777
18265TIP3    H176286   1.081   0.882  12.920  0.1635  0.4776  0.2371
18265TIP3    H276287   1.119   1.028  12.932  1.1061  0.0784  2.8494
18266TIP3   OH276288   2.167   6.526  11.906  0.0626 -0.2838 -0.2387
18266TIP3    H176289   2.102   6.457  11.887 -0.2308  0.5111 -2.4008
18266TIP3    H276290   2.251   6.484  11.888 -0.0191 -0.4826 -0.1698
18267TIP3   OH276291   6.419   6.289   0.731  0.2911 -1.1198 -0.1468
18267TIP3    H176292   6.501   6.242   0.742  1.5206 -0.1805 -3.7479
18267TIP3    H276293   6.375   6.244   0.659 -0.7500  0.3491 -0.4755
18268TIP3   OH276294   6.424   2.820  11.478 -0.0053 -0.5490 -0.1241
18268TIP3    H176295   6.390   2.755  11.417  0.5904  0.2986 -1.3909
18268TIP3    H276296   6.347   2.872  11.502 -0.4963 -1.7135  0.9463
18269TIP3   OH276297   1.155   1.574  14.236 -0.4813  0.3685 -0.1350
18269TIP3    H176298   1.206   1.493  14.227 -0.3887  0.4198 -0.0650
18269TIP3    H276299   1.126   1.573  14.327 -0.0807  0.6549 -0.0035
18270TIP3   OH276300   2.577   4.747  11.762  0.0422  0.5636 -0.3928
18270TIP3    H176301   2.560   4.769  11.854 -1.0564 -1.0024 -0.1830
18270TIP3    H276302   2.550   4.824  11.713 -1.3686  0.6523  0.4627
18271TIP3   OH276303   4.603   6.501  15.208  0.0657 -0.6247  0.3855
18271TIP3    H176304   4.651   6.463  15.282  0.2574  0.4641  0.8298
18271TIP3    H276305   4.570   6.425  15.159  0.6880 -1.3603  1.0944
18272TIP3   OH276306   5.564   4.537   5.123 -0.0316  0.4320 -0.3040
18272TIP3    H176307   5.595   4.460   5.075  0.6381  0.6702 -0.2704
18272TIP3    H276308   5.499   4.577   5.065  0.1039  0.2114 -0.6102
18273TIP3   OH276309   5.674   1.372   0.356 -0.5289  0.5121  0.2047
18273TIP3    H176310   5.670   1.336   0.445  1.0133 -0.4348 -0.0684
18273TIP3    H276311   5.649   1.298   0.300  1.6806  0.0776 -0.3082
18274TIP3   OH276312   4.532   6.114   5.022 -0.5084 -0.1672  0.1054
18274TIP3    H176313   4.549   6.130   4.929  1.0523 -0.6598  0.2765
18274TIP3    H276314   4.525   6.201   5.061 -0.6333  0.0419 -0.3746
18275TIP3   OH276315   5.132   2.895  14.744  0.5277 -0.0948  0.4703
18275TIP3    H176316   5.118   2.943  14.825  2.6399  0.8846  0.3049
18275TIP3    H276317   5.125   2.961  14.675 -2.1649 -1.0501 -0.3406
18276TIP3   OH276318   6.150   0.297   3.245  0.1992 -0.2938  0.1784
18276TIP3    H176319   6.096   0.225   3.279  0.1468  0.1203  0.9843
18276TIP3    H276320   6.094   0.340   3.180 -0.7026  0.5182  1.4524
18277TIP3   OH276321   2.539   5.736   0.967 -0.6731  0.0994 -0.2748
18277TIP3    H176322   2.451   5.706   0.988 -0.7731  0.0627 -0.7327
18277TIP3    H276323   2.569   5.677   0.898 -0.7823  0.8928 -1.0271
18278TIP3   OH276324   0.844   4.755  16.591  0.1915  0.2180 -0.5075
18278TIP3    H176325   0.880   4.667  16.602  0.5759  0.4211 -0.1403
18278TIP3    H276326   0.882   4.806  16.663 -1.0579  0.3594  0.0895
18279TIP3   OH276327   6.490   6.207   5.766  0.2476 -0.6287 -0.0103
18279TIP3    H176328   6.443   6.262   5.704  0.7835  0.6015  0.6510
18279TIP3    H276329   6.421   6.158   5.812 -0.1741 -1.2047 -1.2198
18280TIP3   OH276330   1.683   2.056   0.778 -0.5037 -0.1241  0.3605
18280TIP3    H176331   1.658   2.081   0.689 -2.1145  1.4892  1.1972
18280TIP3    H276332   1.744   1.983   0.766 -1.7162 -0.8575 -2.0114
18281TIP3   OH276333   6.041   0.129  15.432  0.4265  0.6416  0.1098
18281TIP3    H176334   5.996   0.052  15.397 -0.2227  0.7552  0.6824
18281TIP3    H276335   5.974   0.175  15.482  1.0545  1.0851  0.5467
18282TIP3   OH276336   2.430   6.717  16.395  0.2224  1.0674  0.0091
18282TIP3    H176337   2.472   6.640  16.359 -0.7445  1.3701 -1.8623
18282TIP3    H276338   2.370   6.683  16.462  1.1749  0.3990  0.5507
18283TIP3   OH276339   5.308   5.569   0.819  0.1535  0.4370 -0.4118
18283TIP3    H176340   5.343   5.490   0.776  2.2966  1.2331 -0.2717
18283TIP3    H276341   5.240   5.600   0.759  1.8734  0.5421 -2.4428
18284TIP3   OH276342   6.150   2.914   6.372 -0.3167 -0.6082  0.4507
18284TIP3    H176343   6.214   2.912   6.300  0.2565 -0.4412  0.9459
18284TIP3    H276344   6.191   2.970   6.439 -1.3487  0.1956  0.4421
18285TIP3   OH276345   3.698   1.728   1.599  0.2595 -0.6776 -0.3121
18285TIP3    H176346   3.781   1.762   1.632  1.3067 -0.2306 -3.1134
18285TIP3    H276347   3.633   1.794   1.623  0.6627 -1.0069  1.8656
18286TIP3   OH276348   2.346   6.699  14.366  0.1906 -0.1893  0.0166
18286TIP3    H176349   2.421   6.651  14.400  0.9544  0.9284 -0.0115
18286TIP3    H276350   2.360   6.702  14.271 -0.7342 -1.3300 -0.1789
18287TIP3   OH276351   4.188   4.448  16.784 -0.2778  0.0901 -0.2705
18287TIP3    H176352   4.170   4.538  16.808 -0.1839  0.4708 -1.5395
18287TIP3    H276353   4.282   4.436  16.800  0.4052  1.1904 -2.8582
18288TIP3   OH276354   1.085   0.380   3.369 -0.3521  0.5328 -0.0636
18288TIP3    H176355   1.143   0.419   3.434  0.4952  0.4272 -0.7530
18288TIP3    H276356   1.018   0.447   3.354 -0.3992  0.6676  0.6950
18289TIP3   OH276357   5.539   2.879   1.439 -0.3519  0.1920  0.3960
18289TIP3    H176358   5.624   2.883   1.395 -1.2437 -1.8892 -1.7583
18289TIP3    H276359   5.494   2.959   1.412 -1.7882 -1.9561 -4.9723
18290TIP3   OH276360   3.307   0.646   1.621 -0.1494 -0.1771 -0.5351
18290TIP3    H176361   3.336   0.664   1.711  0.2157 -0.3021 -0.6261
18290TIP3    H276362   3.214   0.670   1.621  0.2509  1.4840 -0.5970
18291TIP3   OH276363   3.526   4.737   0.643 -0.6885  0.5146 -0.3045
18291TIP3    H176364   3.498   4.817   0.598  0.8552  1.7029  0.7822
18291TIP3    H276365   3.603   4.762   0.693 -1.2306 -1.2107  1.5441
18292TIP3   OH276366   0.416   0.939   1.960 -0.0149 -0.0248 -0.0709
18292TIP3    H176367   0.454   0.856   1.933  0.3094  0.0566  0.1235
18292TIP3    H276368   0.348   0.916   2.023 -0.7902 -0.2170 -0.9579
18293TIP3   OH276369   6.539   2.668   4.874 -0.1195 -0.2271 -0.1103
18293TIP3    H176370   6.460   2.653   4.823 -1.0862 -1.4826  1.6386
18293TIP3    H276371   6.508   2.700   4.958  1.2299 -0.5979  0.5640
18294TIP3   OH276372   0.997   3.982  16.034  0.0488 -0.7420  0.0930
18294TIP3    H176373   0.958   3.902  15.999  3.1114 -2.5456  0.4234
18294TIP3    H276374   0.983   3.976  16.129 -1.8603  0.4338 -0.0723
18295TIP3   OH276375   6.605   1.588   2.898 -0.8675 -0.3412 -0.2056
18295TIP3    H176376   6.589   1.680   2.919  0.7554  0.3182 -1.6235
18295TIP3    H276377   6.678   1.590   2.836 -1.9896 -2.4568 -1.7195
18296TIP3   OH276378   1.907   1.098   4.609 -0.1463  0.2722 -0.5182
18296TIP3    H176379   1.859   1.175   4.641 -1.0189  0.2351 -1.6676
18296TIP3    H276380   1.851   1.024   4.633 -0.0553  0.1248 -0.7685
18297TIP3   OH276381   6.448   3.240   5.608  0.1713  1.0335  0.5008
18297TIP3    H176382   6.425   3.228   5.700  0.9007  0.9889  0.6849
18297TIP3    H276383   6.398   3.317   5.581  1.4767  2.2777  1.4960
18298TIP3   OH276384   1.627   6.279   1.775  0.2033  0.1096 -0.0133
18298TIP3    H176385   1.601   6.214   1.709 -1.4939  1.0693 -0.3492
18298TIP3    H276386   1.695   6.235   1.825  0.6046 -1.1431 -1.5585
18299TIP3   OH276387   3.505   4.542   5.007  0.0626 -0.2578  0.4645
18299TIP3    H176388   3.464   4.504   4.930 -0.1948 -1.6033  1.2380
18299TIP3    H276389   3.434   4.548   5.071  0.3910  0.3439  0.7808
18300TIP3   OH276390   2.581   0.979   2.530 -0.0838 -0.7674 -0.0416
18300TIP3    H176391   2.533   1.026   2.598  0.6879  0.7337 -0.4898
18300TIP3    H276392   2.514   0.929   2.483 -0.8083 -0.8043  1.0029
18301TIP3   OH276393   5.049   4.600   2.756 -0.6535  0.1923  0.3898
18301TIP3    H176394   5.072   4.587   2.664 -1.8016  0.3588  0.0640
18301TIP3    H276395   5.124   4.565   2.804  0.0245  0.2190 -0.6003
18302TIP3   OH276396   2.221   3.769  10.851 -0.0061  0.4052  0.2832
18302TIP3    H176397   2.164   3.700  10.817  1.8306 -0.5450 -1.0470
18302TIP3    H276398   2.198   3.775  10.944 -2.6279  0.5048 -0.2846
18303TIP3   OH276399   3.990   6.090   1.975  0.3652 -0.1066  0.4342
18303TIP3    H176400   3.932   6.014   1.964 -1.6685  1.4136  0.0942
18303TIP3    H276401   3.994   6.103   2.070  0.7986 -0.6589  0.5009
18304TIP3   OH276402   0.111   1.932  16.825 -0.4111  0.4511  0.4920
18304TIP3    H176403   0.028   1.978  16.810 -0.4494  0.1576 -0.2711
18304TIP3    H276404   0.114   1.865  16.757 -0.5320 -0.9527  1.8394
18305TIP3   OH276405   1.633   4.318  16.234  0.1032  0.0484  0.4005
18305TIP3    H176406   1.670   4.259  16.299 -0.1134 -1.4230 -0.7471
18305TIP3    H276407   1.569   4.265  16.187 -1.1112  1.6091  0.2001
18306TIP3   OH276408   1.065   1.525   0.741 -0.0794  0.0241  0.4982
18306TIP3    H176409   0.986   1.579   0.740 -0.1514 -0.0805  0.5280
18306TIP3    H276410   1.037   1.442   0.779 -0.1245 -0.2740 -0.1696
18307TIP3   OH276411   6.629   3.329  14.386 -0.5200 -0.2803  0.2249
18307TIP3    H176412   6.564   3.367  14.327 -0.8303 -0.3176  0.5406
18307TIP3    H276413   6.699   3.299  14.328  0.7414  2.6563  0.1064
18308TIP3   OH276414   0.665   2.883   0.317 -0.2200 -0.5759  0.7138
18308TIP3    H176415   0.607   2.942   0.268  0.0182 -1.4269 -0.6443
18308TIP3    H276416   0.729   2.942   0.357 -2.3434  0.4581  2.8401
18309TIP3   OH276417   0.868   4.138  10.255  0.2527 -0.2041 -0.0521
18309TIP3    H176418   0.926   4.213  10.269  0.4699 -0.4513  0.3727
18309TIP3    H276419   0.925   4.071  10.217  0.1288 -0.2703 -0.1213
18310TIP3   OH276420   6.462   5.167   5.160 -0.1533 -0.4185 -0.1850
18310TIP3    H176421   6.479   5.073   5.149 -2.8210 -1.0599  0.6242
18310TIP3    H276422   6.526   5.195   5.226  0.0178 -1.8921  0.3171
18311TIP3   OH276423   4.860   2.498  10.560 -0.4296  0.5112 -0.0849
18311TIP3    H176424   4.898   2.580  10.529  0.5065 -0.1165 -0.6459
18311TIP3    H276425   4.933   2.435  10.560 -0.9327 -0.1127  1.1660
18312TIP3   OH276426   3.078   2.261   3.450 -0.1269  0.1725  0.2979
18312TIP3    H176427   3.038   2.307   3.376 -0.0091  0.7491  0.5831
18312TIP3    H276428   3.128   2.189   3.410 -2.3385 -1.2917  0.0000
18313TIP3   OH276429   3.220   6.829  12.504  0.0642 -0.0067 -0.6513
18313TIP3    H176430   3.207   6.846  12.411  0.3974  0.8277 -0.5481
18313TIP3    H276431   3.134   6.802  12.536 -0.5694  1.7580 -0.7725
18314TIP3   OH276432   2.016   3.979  14.965  0.0286 -0.1125  0.2861
18314TIP3    H176433   2.002   3.921  15.039  1.4641 -1.6225 -0.5516
18314TIP3    H276434   2.091   4.033  14.991  0.4009 -0.5018  0.0436
18315TIP3   OH276435   5.551   3.444   5.375  0.1950  0.1300 -0.2532
18315TIP3    H176436   5.559   3.361   5.423  0.4432 -0.1922 -0.8419
18315TIP3    H276437   5.554   3.511   5.443 -1.5526 -0.3844  0.4110
18316TIP3   OH276438   5.005   4.947  10.833  0.6841  0.4254 -0.0352
18316TIP3    H176439   5.037   4.872  10.784 -0.4606 -0.7407  0.9197
18316TIP3    H276440   4.933   4.982  10.780 -0.9940 -1.2372  1.0213
18317TIP3   OH276441   2.207   2.733  11.124  0.0274  0.1742 -0.4923
18317TIP3    H176442   2.165   2.787  11.058 -0.1936 -0.9281 -1.2909
18317TIP3    H276443   2.206   2.786  11.204  0.1028  1.4472 -1.3112
18318TIP3   OH276444   2.379   1.703   1.612  0.1849  0.0445 -0.1131
18318TIP3    H176445   2.410   1.623   1.654  1.8880  0.9095  0.3720
18318TIP3    H276446   2.435   1.772   1.647  0.0928  1.1618 -2.0123
18319TIP3   OH276447   4.289   3.360   5.287  0.0766 -1.0077  0.5143
18319TIP3    H176448   4.313   3.350   5.379 -0.0206 -0.5711  0.5922
18319TIP3    H276449   4.365   3.329   5.239 -0.2940 -2.2953  0.7234
18320TIP3   OH276450   4.232   2.926  15.194 -0.3674 -0.0270  0.2640
18320TIP3    H176451   4.233   3.022  15.196 -1.3746 -0.0064  0.1681
18320TIP3    H276452   4.154   2.904  15.145  1.3447 -0.8908 -2.2700
18321TIP3   OH276453   5.843   1.377   3.164 -0.6788 -0.0194  0.4880
18321TIP3    H176454   5.829   1.466   3.130  0.6303  0.1047  0.2089
18321TIP3    H276455   5.756   1.338   3.164 -1.0105  0.6126 -1.2504
18322TIP3   OH276456   1.980   1.615   2.821 -0.2609  0.4980 -0.0797
18322TIP3    H176457   2.063   1.604   2.866 -0.6036  0.2130  0.4923
18322TIP3    H276458   1.981   1.705   2.790 -0.0886  0.7446  0.6325
18323TIP3   OH276459   1.483   1.820   4.756 -0.1071  0.4415 -0.4086
18323TIP3    H176460   1.404   1.851   4.799  0.4322  0.6984  0.4199
18323TIP3    H276461   1.554   1.868   4.798  0.7335 -1.6030  0.6745
18324TIP3   OH276462   0.233   0.916   3.953  0.0779  0.3280  0.2521
18324TIP3    H176463   0.180   0.957   3.885 -1.4993 -1.1981  0.4904
18324TIP3    H276464   0.324   0.936   3.928 -0.4814  0.5795 -1.7695
18325TIP3   OH276465   5.766   0.451   1.613  0.1861  0.3080  0.3320
18325TIP3    H176466   5.725   0.483   1.693 -0.3175  2.3940 -0.6667
18325TIP3    H276467   5.860   0.460   1.629  0.0762  1.5145  0.4474
18326TIP3   OH276468   2.643   2.572   4.444  1.2103 -0.0774  0.0798
18326TIP3    H176469   2.619   2.575   4.536  0.3277  0.3307 -0.1535
18326TIP3    H276470   2.566   2.535   4.400 -0.4516  4.1098 -1.0864
18327TIP3   OH276471   0.466   0.042  10.353 -0.1177 -0.6824 -0.1217
18327TIP3    H176472   0.390  -0.011  10.328 -0.4929  0.3909 -1.3652
18327TIP3    H276473   0.502   0.073  10.270  0.8086  0.0390  0.5217
18328TIP3   OH276474   0.231   3.635  14.152  0.4347  0.3911 -0.1114
18328TIP3    H176475   0.319   3.611  14.179  0.2462 -2.0039 -1.3890
18328TIP3    H276476   0.212   3.579  14.077 -1.0639  2.9746 -1.8247
18329TIP3   OH276477   6.459   5.448  15.622 -0.0165  0.0149 -0.0145
18329TIP3    H176478   6.510   5.388  15.567  1.0945 -3.5260  4.3115
18329TIP3    H276479   6.520   5.517  15.646  1.0500 -1.0813  0.5459
18330TIP3   OH276480   1.015   6.433  10.312  0.2282  0.0810 -0.6531
18330TIP3    H176481   1.094   6.390  10.345  0.7149  0.4674 -1.2781
18330TIP3    H276482   1.046   6.484  10.237 -0.7237 -0.2499 -1.2904
18331TIP3   OH276483   1.264   1.418   3.205 -0.1991  0.1574 -0.1059
18331TIP3    H176484   1.257   1.360   3.129  0.3728  0.3165 -0.2853
18331TIP3    H276485   1.190   1.478   3.196  0.0930  0.4290 -0.7545
18332TIP3   OH276486   1.395   5.013   1.057 -0.5712 -0.0146 -0.9173
18332TIP3    H176487   1.448   5.015   0.977  0.0803  0.5512 -0.4890
18332TIP3    H276488   1.341   4.935   1.049  0.3898 -0.6478 -1.3418
18333TIP3   OH276489   5.716   4.775  13.179 -0.5988  0.2857 -0.1162
18333TIP3    H176490   5.631   4.746  13.211 -0.4310  0.0961  0.1630
18333TIP3    H276491   5.770   4.696  13.178 -0.9099  0.0659 -1.9282
18334TIP3   OH276492   4.109   5.748  12.995  0.0758  0.4120 -0.3341
18334TIP3    H176493   4.177   5.681  12.990  0.3089  0.6943 -1.2358
18334TIP3    H276494   4.051   5.729  12.921 -0.2865  0.7448 -0.1394
18335TIP3   OH276495   1.370   5.780   0.068  0.1680 -0.1932 -0.9609
18335TIP3    H176496   1.444   5.803   0.124  1.0545 -2.2611 -1.1864
18335TIP3    H276497   1.409   5.732  -0.005 -1.4278 -2.6133 -0.3653
18336TIP3   OH276498   0.029   5.638   1.617  0.4581  0.1838 -0.1623
18336TIP3    H176499  -0.027   5.625   1.541  0.1645  2.7767 -0.5064
18336TIP3    H276500  -0.018   5.597   1.689 -0.9067  0.5582 -0.8119
18337TIP3   OH276501   0.269   2.174  10.559 -0.0855 -0.1862 -0.5200
18337TIP3    H176502   0.217   2.235  10.611  0.0691 -0.9023  0.5009
18337TIP3    H276503   0.350   2.222  10.539 -0.1043  0.0595 -0.0152
18338TIP3   OH276504   5.510   4.721   5.592  0.2334 -0.1113  0.3690
18338TIP3    H176505   5.565   4.734   5.515  0.1249 -0.8424  0.1674
18338TIP3    H276506   5.429   4.767   5.572  0.7542  1.0062  0.6798
18339TIP3   OH276507   6.828   6.507   0.697  0.2273 -0.1395  0.2833
18339TIP3    H176508   6.920   6.503   0.723 -0.4946  0.7000  3.2939
18339TIP3    H276509   6.784   6.447   0.757 -1.3756  0.5846 -0.1248
18340TIP3   OH276510   5.973   2.410  14.145 -0.7576 -0.9405  0.5940
18340TIP3    H176511   5.952   2.407  14.052  0.2987 -0.5209  0.3243
18340TIP3    H276512   5.903   2.360  14.188 -0.1464 -2.9332 -0.6273
18341TIP3   OH276513   2.129   4.375  14.297  0.2269  0.4862  0.0455
18341TIP3    H176514   2.205   4.380  14.356 -0.9265 -0.7590  1.7341
18341TIP3    H276515   2.053   4.381  14.355 -0.9861 -2.0459 -1.1276
18342TIP3   OH276516   5.010   4.895  15.187  0.3261  0.2315 -1.0632
18342TIP3    H176517   5.067   4.827  15.224  1.1451  0.2306 -2.3051
18342TIP3    H276518   4.946   4.912  15.257  2.4278  0.9750  0.7759
18343TIP3   OH276519   1.384   4.377   3.830 -0.5345  0.6089 -0.2335
18343TIP3    H176520   1.291   4.379   3.853 -0.8495  1.1062 -1.4717
18343TIP3    H276521   1.391   4.435   3.754  0.4653 -0.8221 -1.2758
18344TIP3   OH276522   1.819   0.247   4.621  0.1729  0.0296  0.5122
18344TIP3    H176523   1.904   0.259   4.662 -0.1062  2.7838  0.4878
18344TIP3    H276524   1.834   0.184   4.551  1.6355 -1.3421  1.9956
18345TIP3   OH276525   4.162   1.615   0.143  0.1650 -0.1568  0.6325
18345TIP3    H176526   4.112   1.563   0.206 -1.2543 -0.9034 -1.0373
18345TIP3    H276527   4.218   1.551   0.098  1.3132  0.3990  1.2067
18346TIP3   OH276528   4.325   3.757   0.378 -0.0252 -0.1274 -0.2306
18346TIP3    H176529   4.339   3.835   0.325 -0.5260  0.1769  0.0807
18346TIP3    H276530   4.284   3.789   0.458 -2.2932 -0.9362 -0.9964
18347TIP3   OH276531   0.105   0.898   5.600 -0.3369  0.0354 -0.2841
18347TIP3    H176532   0.073   0.907   5.510 -1.9900 -2.0067  0.0144
18347TIP3    H276533   0.062   0.967   5.649  1.7821  2.1872 -1.2575
18348TIP3   OH276534   0.826   0.196  13.614  0.1570  0.1581  0.4109
18348TIP3    H176535   0.865   0.230  13.533  1.2379 -0.6498  0.5744
18348TIP3    H276536   0.788   0.274  13.656 -1.0916  0.4770 -1.2011
18349TIP3   OH276537   4.809   3.690  16.609  0.0685  0.2836  0.7293
18349TIP3    H176538   4.858   3.769  16.586  0.2354  0.5217  1.8524
18349TIP3    H276539   4.868   3.618  16.589  0.2135  0.4756  0.4556
18350TIP3   OH276540   2.630   1.820  15.163  0.2817  0.4602 -0.1869
18350TIP3    H176541   2.681   1.788  15.088 -0.1217  1.8056 -1.0759
18350TIP3    H276542   2.628   1.915  15.152  2.9971  1.1198  3.3657
18351TIP3   OH276543   6.508   1.598   6.100  0.5140 -0.2301 -0.3145
18351TIP3    H176544   6.554   1.665   6.151 -1.2641  0.9351 -0.1539
18351TIP3    H276545   6.450   1.556   6.163 -1.1106  0.6697 -1.1414
18352TIP3   OH276546   5.282   6.422  13.876  0.5157 -0.5254 -0.5794
18352TIP3    H176547   5.284   6.517  13.867 -0.0258 -0.6154 -1.8773
18352TIP3    H276548   5.210   6.406  13.937  1.5631 -0.0578  0.8245
18353TIP3   OH276549   0.980   4.635   1.309  0.7040 -0.3959 -0.1569
18353TIP3    H176550   0.941   4.560   1.354 -0.1272  0.0966 -0.0394
18353TIP3    H276551   1.065   4.647   1.351 -1.0345  1.6532  3.1702
18354TIP3   OH276552   0.830   6.532  15.506  0.0600  0.1561  0.4160
18354TIP3    H176553   0.866   6.467  15.565 -2.0019 -1.8511 -0.4067
18354TIP3    H276554   0.736   6.516  15.505 -0.0773  0.2954 -3.0789
18355TIP3   OH276555   6.729   2.066   2.479 -0.1186  0.2048  0.5633
18355TIP3    H176556   6.732   2.138   2.542 -1.8461  0.3610  0.5147
18355TIP3    H276557   6.720   2.108   2.394  1.6065 -0.0215  0.2500
18356TIP3   OH276558   2.203   3.862  12.117 -0.0798  0.2059 -0.1229
18356TIP3    H176559   2.110   3.843  12.127 -0.0442  0.6922  1.4618
18356TIP3    H276560   2.236   3.868  12.207  0.7390  3.4909 -0.5074
18357TIP3   OH276561   5.459   3.044  10.958  0.0650 -0.1421 -0.0010
18357TIP3    H176562   5.416   2.987  10.895 -0.6074 -1.0129  1.2094
18357TIP3    H276563   5.522   2.988  11.004  1.3220  0.7276 -0.6047
18358TIP3   OH276564   2.996   6.806   3.367 -0.3182  0.6131  0.2858
18358TIP3    H176565   3.007   6.871   3.298 -1.1367 -0.4362 -0.9020
18358TIP3    H276566   2.945   6.736   3.325  0.5793 -0.8085  1.4779
18359TIP3   OH276567   3.884   4.254   2.015 -0.0426  0.5666 -0.3326
18359TIP3    H176568   3.813   4.318   2.002 -0.8777 -0.2300  0.1555
18359TIP3    H276569   3.859   4.180   1.960 -0.1314 -0.1285  0.6155
18360TIP3   OH276570   6.463   5.750   5.574  0.4260 -0.5385 -0.0658
18360TIP3    H176571   6.403   5.807   5.525  0.4845 -1.6478 -1.4975
18360TIP3    H276572   6.469   5.791   5.661 -0.9292  0.6269 -0.4707
18361TIP3   OH276573   6.789   0.296  10.772 -0.0405  0.5261  0.1982
18361TIP3    H176574   6.704   0.325  10.806  0.1587 -1.6571  2.8315
18361TIP3    H276575   6.780   0.202  10.761  2.0465  0.2268  0.6223
18362TIP3   OH276576   5.775   3.793   2.555  0.1104 -0.5384 -0.0516
18362TIP3    H176577   5.706   3.788   2.488  1.7776  0.0074 -1.9270
18362TIP3    H276578   5.780   3.705   2.591 -2.6787 -0.2105  1.4206
18363TIP3   OH276579   3.315   2.769  16.979  0.0102  0.1066  0.7740
18363TIP3    H176580   3.220   2.780  16.978 -0.2193 -1.7238  0.1534
18363TIP3    H276581   3.340   2.790  17.070 -1.0579 -0.0125  1.1094
18364TIP3   OH276582   5.412   0.095  11.263  0.5947 -0.1383  0.1977
18364TIP3    H176583   5.469   0.017  11.264  0.4197 -0.2728  1.2143
18364TIP3    H276584   5.364   0.090  11.346  2.5572  2.5030  1.6648
18365TIP3   OH276585   4.336   0.490  16.591  0.3071  0.1383  0.3027
18365TIP3    H176586   4.258   0.530  16.629  0.0736  1.0303 -1.0595
18365TIP3    H276587   4.408   0.524  16.643 -0.1357 -0.0599  1.0632
18366TIP3   OH276588   4.804   0.751  11.649 -0.3421 -0.2868 -0.2695
18366TIP3    H176589   4.746   0.797  11.710  0.6480  0.0882  0.4266
18366TIP3    H276590   4.780   0.659  11.657 -1.0609 -0.1030 -0.2423
18367TIP3   OH276591   0.413   1.877  14.050  0.6383  0.2158 -0.4909
18367TIP3    H176592   0.493   1.827  14.032 -0.2866 -1.2856 -0.6700
18367TIP3    H276593   0.415   1.891  14.145  0.7189 -0.6003 -0.3564
18368TIP3   OH276594   5.162   6.378   2.181  0.5156 -0.0116  0.0225
18368TIP3    H176595   5.109   6.451   2.214  4.1591  2.3622  1.1952
18368TIP3    H276596   5.173   6.321   2.258  3.0178  1.7509  1.0909
18369TIP3   OH276597   4.636   5.267   2.159  0.6222  0.1922  0.2936
18369TIP3    H176598   4.624   5.321   2.080  0.0264  0.0549  0.2895
18369TIP3    H276599   4.549   5.262   2.198  0.2177 -2.4822 -0.7979
18370TIP3   OH276600   0.412   6.284  14.678  0.3057  0.6043 -0.2320
18370TIP3    H176601   0.360   6.339  14.619 -0.2240 -0.2989 -0.6137
18370TIP3    H276602   0.492   6.336  14.694 -0.2272  1.5336 -0.4894
18371TIP3   OH276603   0.159   3.255  16.038 -0.2996 -0.4241  0.3263
18371TIP3    H176604   0.146   3.234  16.131 -1.7290 -1.4350 -0.0699
18371TIP3    H276605   0.254   3.253  16.026 -0.1432 -1.4050  1.5269
18372TIP3   OH276606   5.659   1.325   2.787 -0.2348  0.4164 -0.0640
18372TIP3    H176607   5.711   1.354   2.712 -1.4021  0.1313 -1.0172
18372TIP3    H276608   5.661   1.230   2.782  1.0293  0.3464  1.2477
18373TIP3   OH276609   2.059   1.097  15.367  0.5323  0.1572 -0.0171
18373TIP3    H176610   1.965   1.113  15.365  0.2930 -1.0930  0.5346
18373TIP3    H276611   2.097   1.181  15.394 -0.5136  0.3434  0.9290
18374TIP3   OH276612   3.713   5.995  14.669 -0.5661 -0.1330 -0.3005
18374TIP3    H176613   3.689   6.062  14.734  0.6848 -0.8946  1.0060
18374TIP3    H276614   3.636   5.989  14.611 -1.5960  0.8167  0.9072
18375TIP3   OH276615   0.800   1.335  13.526 -0.2168  0.1925 -0.6893
18375TIP3    H176616   0.817   1.252  13.570  0.0700  0.4105 -0.3893
18375TIP3    H276617   0.714   1.362  13.558 -0.7360 -0.4484 -1.4994
18376TIP3   OH276618   6.651   0.150   1.346 -0.4016 -0.2998  0.6887
18376TIP3    H176619   6.705   0.165   1.424 -0.6120 -0.8626  0.9489
18376TIP3    H276620   6.714   0.139   1.275 -0.1834 -0.6746  0.9384
18377TIP3   OH276621   5.117   6.082  13.017  0.4582  0.0262  0.3576
18377TIP3    H176622   5.037   6.125  13.047  0.2551 -0.0153 -0.1118
18377TIP3    H276623   5.157   6.144  12.957  0.7775  0.0436  0.5881
18378TIP3   OH276624   0.322   3.034   2.475 -0.2931  0.1209  0.4068
18378TIP3    H176625   0.362   3.111   2.433  0.9370 -0.8465 -0.2561
18378TIP3    H276626   0.397   2.983   2.506 -1.1103 -0.6097  1.2269
18379TIP3   OH276627   1.496   0.443  13.453 -0.0410 -0.1788  0.1679
18379TIP3    H176628   1.555   0.385  13.405  1.2929  0.9357  0.4168
18379TIP3    H276629   1.505   0.417  13.544  0.9870  0.7594  0.3485
18380TIP3   OH276630   0.279   3.956  15.918  0.1155  0.0385 -0.1751
18380TIP3    H176631   0.296   3.926  16.007  1.8733 -1.2069 -0.8748
18380TIP3    H276632   0.231   3.885  15.877  0.6613 -0.0671 -0.6499
18381TIP3   OH276633   0.202   1.575   0.738  0.3514 -0.0313  0.3686
18381TIP3    H176634   0.130   1.599   0.796 -0.3407 -1.2115  0.0150
18381TIP3    H276635   0.244   1.659   0.717 -0.6491  0.6278  0.9036
18382TIP3   OH276636   1.774   6.416  11.192  0.1685  0.1473 -0.4028
18382TIP3    H176637   1.848   6.395  11.135  0.9444 -0.9882  0.9389
18382TIP3    H276638   1.713   6.463  11.136  2.3757  2.1688 -1.2952
18383TIP3   OH276639   2.382   1.445   5.525 -0.1205  0.1486 -0.1224
18383TIP3    H176640   2.362   1.434   5.432  1.6412 -1.0173 -0.4048
18383TIP3    H276641   2.351   1.364   5.566  1.2626 -0.3975 -0.1048
18384TIP3   OH276642   3.707   5.268   5.612  0.2662  0.1659 -0.1971
18384TIP3    H176643   3.630   5.325   5.605  0.7322  0.6321 -1.7285
18384TIP3    H276644   3.689   5.214   5.689 -0.6383  1.6906  0.7132
18385TIP3   OH276645   0.088   1.945  16.276 -0.5210  0.2208 -0.0721
18385TIP3    H176646   0.173   1.974  16.245  0.1191  0.2570  1.6431
18385TIP3    H276647   0.099   1.852  16.293 -1.3365 -0.1589 -1.4132
18386TIP3   OH276648   6.010   3.472   2.743  0.2147 -0.3070  0.2915
18386TIP3    H176649   5.978   3.421   2.668  0.7279 -1.2687  0.7149
18386TIP3    H276650   5.932   3.513   2.779 -0.5605 -2.4668  1.1968
18387TIP3   OH276651   6.497   3.142  11.326  0.7669  0.0444  0.1270
18387TIP3    H176652   6.429   3.095  11.278 -0.0536  0.6499  0.6743
18387TIP3    H276653   6.497   3.102  11.413  0.4703  0.6437  0.4098
18388TIP3   OH276654   0.168   1.162   2.048  0.1615  0.2644  0.5613
18388TIP3    H176655   0.199   1.094   2.107  0.9688  1.0193  1.0306
18388TIP3    H276656   0.218   1.148   1.967 -0.0742 -0.0361  0.4669
18389TIP3   OH276657   0.459   4.482   5.705 -0.2546  0.1192  0.6144
18389TIP3    H176658   0.419   4.569   5.705 -0.6356 -0.0566  0.7310
18389TIP3    H276659   0.462   4.457   5.613  0.5520  0.5730  0.5059
18390TIP3   OH276660   0.863   5.734   4.354  0.0966 -0.6038  0.6639
18390TIP3    H176661   0.795   5.788   4.314 -0.4770  0.5639  3.0165
18390TIP3    H276662   0.828   5.645   4.352 -0.4005 -0.3920 -0.3616
18391TIP3   OH276663   0.867   2.250  12.674  0.0120  0.6258  0.3763
18391TIP3    H176664   0.901   2.238  12.762  0.7675  0.6097  0.0854
18391TIP3    H276665   0.799   2.183  12.665 -0.2622  0.8063  1.0370
18392TIP3   OH276666   4.877   5.785   4.546 -0.8394  0.0220  0.9247
18392TIP3    H176667   4.964   5.822   4.558 -1.0242  0.4663  0.9009
18392TIP3    H276668   4.892   5.691   4.538 -0.4480  0.0056  1.7814
18393TIP3   OH276669   2.821   4.793  11.101  0.2071 -0.1279 -0.0670
18393TIP3    H176670   2.762   4.735  11.150  2.2631 -1.3720  1.0462
18393TIP3    H276671   2.764   4.864  11.072 -1.5416 -0.3444  2.4393
18394TIP3   OH276672   4.626   3.626  13.697 -0.2446 -0.3777 -0.9317
18394TIP3    H176673   4.630   3.539  13.738 -1.0644 -0.1295 -0.3006
18394TIP3    H276674   4.593   3.609  13.608  0.0890 -0.7583 -0.9872
18395TIP3   OH276675   0.226   4.444  16.579 -0.3836  0.5132  0.2904
18395TIP3    H176676   0.233   4.482  16.667 -0.1931 -1.2859  1.1024
18395TIP3    H276677   0.194   4.355  16.594 -0.1285  0.0913 -1.4580
18396TIP3   OH276678   2.597   4.978  14.131 -0.5971  0.4033  0.2617
18396TIP3    H176679   2.533   4.926  14.180  1.2507 -1.1112  1.2176
18396TIP3    H276680   2.672   4.985  14.190  1.2690 -0.4901 -1.8550
18397TIP3   OH276681   4.658   4.398  13.293  0.9570  0.2065  0.1149
18397TIP3    H176682   4.671   4.439  13.207 -0.2119  2.0973  0.7641
18397TIP3    H276683   4.699   4.458  13.354  0.5249 -0.3871  1.0037
18398TIP3   OH276684   0.993   2.741  11.439 -0.0230  0.0449  0.2406
18398TIP3    H176685   0.899   2.734  11.454  0.2634 -0.2385  2.3162
18398TIP3    H276686   1.010   2.688  11.362 -1.6777  0.8679 -0.7304
18399TIP3   OH276687   3.781   1.281   5.399 -0.7286 -0.1913 -0.0453
18399TIP3    H176688   3.833   1.358   5.419 -0.2436 -0.0155 -1.8138
18399TIP3    H276689   3.785   1.273   5.304 -2.2336 -1.3796 -0.0561
18400TIP3   OH276690   3.286   2.075   3.279  0.7025  0.4605 -0.1801
18400TIP3    H176691   3.347   2.147   3.298  0.6028  0.6529 -0.5740
18400TIP3    H276692   3.265   2.086   3.186  0.5686  0.0102 -0.2033
18401TIP3   OH276693   2.838   5.187  14.021 -0.0077  0.3876 -0.3324
18401TIP3    H176694   2.754   5.170  13.978 -1.0970  0.4871  1.6374
18401TIP3    H276695   2.886   5.104  14.014 -1.7323 -0.8715  1.5189
18402TIP3   OH276696   6.603   1.442  13.539 -0.2722  0.0573  0.3038
18402TIP3    H176697   6.509   1.422  13.534 -0.4830  1.0887 -0.0122
18402TIP3    H276698   6.644   1.358  13.559 -1.0200 -0.9194 -1.9330
18403TIP3   OH276699   3.960   0.477  13.492 -0.1939 -0.3188  0.0241
18403TIP3    H176700   4.020   0.464  13.565  0.4834 -1.8192 -0.7577
18403TIP3    H276701   3.888   0.529  13.529  1.9669  2.4104  0.7689
18404TIP3   OH276702   4.663   0.240   1.353  0.0410  0.1295 -0.5164
18404TIP3    H176703   4.625   0.227   1.266 -0.7665 -1.9496  0.0843
18404TIP3    H276704   4.756   0.224   1.341 -0.0549 -0.0930 -1.0111
18405TIP3   OH276705   5.801   0.742  16.836 -0.0157  0.2698 -0.0614
18405TIP3    H176706   5.708   0.744  16.856 -0.5388 -0.7047 -2.0874
18405TIP3    H276707   5.838   0.817  16.881 -1.7831  0.6781  0.7656
18406TIP3   OH276708   2.847   0.041  12.174  0.4596 -0.0016  0.2593
18406TIP3    H176709   2.811  -0.016  12.106 -3.3392 -0.2389  2.2169
18406TIP3    H276710   2.842   0.129  12.137 -1.7501 -0.1063  0.1840
18407TIP3   OH276711   3.098   2.221   3.032 -1.0622 -0.1867 -0.7245
18407TIP3    H176712   3.090   2.244   2.940  1.0480  0.7098 -0.7321
18407TIP3    H276713   3.189   2.193   3.042 -1.5223 -1.2642  0.8887
18408TIP3   OH276714   0.502   3.812   0.260  0.3943  0.0211  0.2679
18408TIP3    H176715   0.463   3.872   0.196  1.0371  0.0424 -0.1177
18408TIP3    H276716   0.562   3.868   0.310 -1.1488  0.3272  1.8716
18409TIP3   OH276717   0.627   5.361   3.103 -0.1802 -0.3990  0.0122
18409TIP3    H176718   0.693   5.411   3.151 -0.4680 -0.6096  0.6295
18409TIP3    H276719   0.678   5.299   3.049  0.1679  0.3564 -0.5491
18410TIP3   OH276720   4.594   6.156   4.472 -0.4417 -0.4641  0.2705
18410TIP3    H176721   4.638   6.096   4.411 -0.3099 -0.3431  0.2440
18410TIP3    H276722   4.581   6.237   4.421  0.3751 -0.0916  0.6319
18411TIP3   OH276723   0.090   1.711  12.661  0.3521 -0.1029 -0.2133
18411TIP3    H176724   0.108   1.617  12.659  0.0012 -0.1687 -0.3741
18411TIP3    H276725   0.015   1.723  12.603 -1.5880 -0.1700  2.1077
18412TIP3   OH276726   0.444   5.876  12.414  0.1222  0.2230  0.0873
18412TIP3    H176727   0.393   5.937  12.467 -0.1912 -0.0399  0.0949
18412TIP3    H276728   0.511   5.930  12.372 -0.7552  0.7468 -0.6890
18413TIP3   OH276729   1.741   6.044   4.017 -0.0897 -0.1426 -0.3875
18413TIP3    H176730   1.790   6.047   3.935 -1.9390  0.1879 -1.5411
18413TIP3    H276731   1.703   5.957   4.020 -1.3782  0.3762 -0.7574
18414TIP3   OH276732   2.863   2.047   3.079  0.3242 -0.1280  0.2179
18414TIP3    H176733   2.921   2.122   3.090 -0.5697  0.6820 -0.4015
18414TIP3    H276734   2.922   1.973   3.062  1.2365  0.3397  1.2520
18415TIP3   OH276735   0.147   1.079  12.652 -0.0869 -0.5352 -0.1627
18415TIP3    H176736   0.171   1.012  12.716  0.6714 -0.5521 -0.4624
18415TIP3    H276737   0.063   1.112  12.683  1.5383  1.4939  2.5101
18416TIP3   OH276738   4.477   6.284  14.890 -0.2013  0.9158 -0.2783
18416TIP3    H176739   4.453   6.226  14.962  1.1094  0.4177 -0.2248
18416TIP3    H276740   4.573   6.280  14.886 -0.1024  2.6278 -0.6422
18417TIP3   OH276741   5.595   2.568  15.404 -0.3223  0.2976 -0.1770
18417TIP3    H176742   5.622   2.573  15.312 -0.5436  0.3259 -0.2438
18417TIP3    H276743   5.546   2.649  15.419 -1.6114 -0.3888 -0.4816
18418TIP3   OH276744   6.606   0.086   4.014 -0.1762 -0.0395  0.5238
18418TIP3    H176745   6.624   0.009   3.959  0.6312 -0.0309  0.7563
18418TIP3    H276746   6.693   0.124   4.030 -0.2924 -0.4626  2.4187
18419TIP3   OH276747   3.606   3.730   2.716  0.9972  0.6965 -0.4866
18419TIP3    H176748   3.564   3.665   2.661 -2.9022  0.6035  2.1634
18419TIP3    H276749   3.596   3.812   2.668 -1.1290  0.4357 -0.5685
18420TIP3   OH276750   1.131   3.549   0.798 -0.0398  0.2494 -0.1785
18420TIP3    H176751   1.158   3.457   0.788  0.7509  0.4350  0.1765
18420TIP3    H276752   1.062   3.546   0.864  1.0887  0.0723  1.0400
18421TIP3   OH276753   5.179   1.610   3.253 -0.1881 -0.8913 -0.0739
18421TIP3    H176754   5.151   1.572   3.337 -0.3307  1.2864  0.9275
18421TIP3    H276755   5.097   1.625   3.206 -0.2539 -0.3237  0.2176
18422TIP3   OH276756   0.777   1.772   6.036 -0.6438 -0.0098  0.7938
18422TIP3    H176757   0.763   1.687   6.077  1.8718 -0.0807  1.6896
18422TIP3    H276758   0.796   1.831   6.109  1.4888  0.4138 -0.0271
18423TIP3   OH276759   2.253   1.525  12.411 -0.3589 -0.0634 -0.4210
18423TIP3    H176760   2.168   1.553  12.376 -0.3817  0.2844 -0.1002
18423TIP3    H276761   2.305   1.604  12.413  0.2554 -0.4277 -1.3741
18424TIP3   OH276762   2.601   1.065  13.124  0.8390  0.0521  0.9460
18424TIP3    H176763   2.588   0.971  13.114 -0.3700  0.1104  1.8327
18424TIP3    H276764   2.586   1.082  13.217  2.3424  0.9411  1.0693
18425TIP3   OH276765   1.363   3.323  12.945 -0.0737 -0.2460 -0.5883
18425TIP3    H176766   1.285   3.290  12.901 -0.5719  0.6971 -0.4342
18425TIP3    H276767   1.378   3.409  12.907  1.1181 -0.5611 -0.8789
18426TIP3   OH276768   5.393   4.511   6.314 -0.6997  0.9150  0.5762
18426TIP3    H176769   5.420   4.475   6.398 -0.0829  0.9732  0.4128
18426TIP3    H276770   5.475   4.525   6.267 -1.1014 -0.6042 -0.6504
18427TIP3   OH276771   5.442   4.546  15.278  0.1031 -0.2852 -0.4057
18427TIP3    H176772   5.453   4.542  15.373 -1.3451  1.2022 -0.1296
18427TIP3    H276773   5.464   4.637  15.255 -0.0563 -0.4932 -1.4280
18428TIP3   OH276774   2.858   3.247   3.357 -0.4556  0.3050 -0.6387
18428TIP3    H176775   2.855   3.275   3.266 -1.1374 -0.8122 -0.9731
18428TIP3    H276776   2.908   3.316   3.402 -0.4136  1.0338 -1.7803
18429TIP3   OH276777   6.034   3.145   2.164 -0.7079  0.5370  0.6501
18429TIP3    H176778   6.100   3.077   2.176 -0.8227  0.3396  0.2149
18429TIP3    H276779   5.956   3.097   2.135  0.0364  1.0809 -2.6208
18430TIP3   OH276780   1.193   1.878   1.292 -0.1258  0.3069 -0.6818
18430TIP3    H176781   1.270   1.857   1.238 -0.2926 -1.3020 -0.3230
18430TIP3    H276782   1.203   1.825   1.371 -1.1440  0.7951 -0.1983
18431TIP3   OH276783   1.150   0.938   0.561  0.1227 -0.6740 -0.0778
18431TIP3    H176784   1.219   0.883   0.597  0.7289 -0.7899 -1.3743
18431TIP3    H276785   1.118   0.889   0.485 -1.2280 -0.5075  0.3507
18432TIP3   OH276786   5.329   3.867  16.123 -0.4686 -0.3035  0.4147
18432TIP3    H176787   5.334   3.854  16.218  1.9975  1.4571  0.6420
18432TIP3    H276788   5.419   3.853  16.092 -1.3227 -1.3698 -1.7883
18433TIP3   OH276789   5.739   0.754  13.789  0.0018 -0.0746  0.4808
18433TIP3    H176790   5.713   0.711  13.708 -0.3392  1.7343 -0.4384
18433TIP3    H276791   5.713   0.693  13.858 -0.7669 -1.1579 -0.7112
18434TIP3   OH276792   1.978   4.283  13.996 -0.0961 -0.5107 -0.0566
18434TIP3    H176793   2.028   4.330  14.063 -1.9684 -1.3505  2.0417
18434TIP3    H276794   1.987   4.337  13.918  1.5995  0.8923  1.0157
18435TIP3   OH276795   0.824   6.315   1.015 -0.3548 -0.3099  0.1872
18435TIP3    H176796   0.750   6.330   0.955  2.9434  0.0724 -4.2755
18435TIP3    H276797   0.856   6.403   1.034  0.5167 -0.5420 -0.1799
18436TIP3   OH276798   5.645   5.547  14.587 -0.2557  0.5226  0.1014
18436TIP3    H176799   5.633   5.574  14.496 -2.2467  2.5369  0.8953
18436TIP3    H276800   5.651   5.451  14.583  0.1358  0.5968 -2.1629
18437TIP3   OH276801   1.507   3.959   2.906  0.7330  0.3658  0.3309
18437TIP3    H176802   1.570   3.994   2.843  0.2827 -1.7334 -1.3792
18437TIP3    H276803   1.422   3.976   2.867  0.5013 -3.6052 -1.2855
18438TIP3   OH276804   0.906   4.075   6.579 -0.2516  0.0450  0.0864
18438TIP3    H176805   0.812   4.088   6.595 -0.2418 -0.2196  0.3816
18438TIP3    H276806   0.948   4.154   6.612 -0.5672  1.2329 -2.2162
18439TIP3   OH276807   5.004   3.390  14.541  0.2737 -0.2154  0.5523
18439TIP3    H176808   5.020   3.482  14.520  1.7951 -0.6991 -0.5745
18439TIP3    H276809   5.002   3.346  14.456  0.9736 -1.4251  1.1397
18440TIP3   OH276810   4.493   5.835  16.533  0.4158 -0.5291 -0.3474
18440TIP3    H176811   4.415   5.837  16.478  0.4070  1.7053 -0.3232
18440TIP3    H276812   4.562   5.873  16.478  1.2998 -1.6466 -0.0522
18441TIP3   OH276813   5.102   3.412   2.770  0.0137  0.5241 -0.5230
18441TIP3    H176814   5.106   3.487   2.710  3.2901  2.9447  2.3040
18441TIP3    H276815   5.050   3.443   2.844 -0.4031 -0.8160 -0.2360
18442TIP3   OH276816   2.543   5.310  16.337  0.2204  0.0481 -0.4219
18442TIP3    H176817   2.556   5.388  16.391  0.6131  0.3716 -0.9778
18442TIP3    H276818   2.452   5.286  16.352  0.1726  0.4492 -0.0297
18443TIP3   OH276819   5.686   1.513  14.359 -0.3489  0.3717 -0.0491
18443TIP3    H176820   5.741   1.467  14.422 -0.5447 -0.7356 -0.6636
18443TIP3    H276821   5.663   1.595  14.403 -0.5611 -0.4036  1.3625
18444TIP3   OH276822   5.778   2.487   1.010  0.4147  0.2088 -0.5605
18444TIP3    H176823   5.803   2.424   0.942  0.3957  0.4375 -0.7826
18444TIP3    H276824   5.729   2.436   1.074 -1.0577  0.2796 -1.5583
18445TIP3   OH276825   0.996   4.311  12.328 -0.4176  0.0558 -0.3404
18445TIP3    H176826   0.962   4.340  12.412 -0.6225 -1.0167 -0.0319
18445TIP3    H276827   1.075   4.363  12.314 -0.9806  1.0213 -0.0222
18446TIP3   OH276828   5.895   4.902   0.644  0.1669 -0.0771 -0.2061
18446TIP3    H176829   5.952   4.898   0.720 -0.2233  1.4226  0.1955
18446TIP3    H276830   5.810   4.869   0.675 -0.8584  3.2560  0.9264
18447TIP3   OH276831   6.192   4.716   5.521 -0.1512  0.2470 -0.4264
18447TIP3    H176832   6.204   4.623   5.543 -0.3448 -0.2617 -2.2674
18447TIP3    H276833   6.140   4.751   5.593 -0.1347 -1.0835  0.2788
18448TIP3   OH276834   4.845   3.742  16.913 -0.3600 -0.0201  0.3704
18448TIP3    H176835   4.851   3.651  16.940 -0.3071 -0.1339 -0.0184
18448TIP3    H276836   4.787   3.741  16.837  0.1881  0.1773 -0.0550
18449TIP3   OH276837   6.306   4.535  11.151 -0.3864  0.0381 -0.0392
18449TIP3    H176838   6.378   4.504  11.207  0.0131 -0.0344 -0.5780
18449TIP3    H276839   6.342   4.531  11.062 -0.8183  0.6883 -0.2512
18450TIP3   OH276840   2.879   5.517   5.618 -0.1398  0.5751  0.6588
18450TIP3    H176841   2.935   5.589   5.589 -0.6856  1.1382  0.9635
18450TIP3    H276842   2.917   5.490   5.702  1.3841 -0.9946 -0.4754
18451TIP3   OH276843   2.936   2.674  13.126 -0.0427 -0.1796  0.4780
18451TIP3    H176844   2.863   2.612  13.118 -0.1790  0.0310  0.0414
18451TIP3    H276845   2.942   2.692  13.220 -0.8394  0.1369  0.4821
18452TIP3   OH276846   0.869   5.395  16.623 -0.1705 -0.6729 -0.2769
18452TIP3    H176847   0.796   5.371  16.565 -0.2044 -2.1886  0.3636
18452TIP3    H276848   0.826   5.433  16.700 -0.1954 -0.0292 -0.6031
18453TIP3   OH276849   6.316   0.622  11.033 -0.6041 -0.5918  0.5398
18453TIP3    H176850   6.278   0.595  10.950 -0.1159 -0.8017  0.3822
18453TIP3    H276851   6.410   0.603  11.025 -0.3832  0.3367  0.7444
18454TIP3   OH276852   3.538   0.030   3.740 -0.0594  0.5839 -0.4690
18454TIP3    H176853   3.609   0.038   3.676  0.9933  1.9889  0.8258
18454TIP3    H276854   3.478   0.102   3.719 -1.2548 -0.6872 -1.6571
18455TIP3   OH276855   6.808   1.851  13.825 -0.0030 -0.0390  0.4370
18455TIP3    H176856   6.903   1.854  13.813 -0.1367 -1.6006 -1.3311
18455TIP3    H276857   6.785   1.760  13.810 -1.7387  0.1937  1.4658
18456TIP3   OH276858   4.943   2.802  15.694 -0.2825 -0.0893 -0.6356
18456TIP3    H176859   5.028   2.764  15.715 -0.6012  0.2206  1.4490
18456TIP3    H276860   4.893   2.729  15.658  0.7886 -0.3082 -1.7435
18457TIP3   OH276861   2.778   0.210   2.056  0.1543 -0.8736 -0.0344
18457TIP3    H176862   2.727   0.248   2.128  0.4157 -0.0537 -0.2743
18457TIP3    H276863   2.853   0.169   2.100  0.6341  0.1437  0.1335
18458TIP3   OH276864   1.763   2.456  15.241  0.8275 -0.3898 -0.0321
18458TIP3    H176865   1.750   2.482  15.149  1.6758 -0.3999 -0.1591
18458TIP3    H276866   1.821   2.522  15.277  0.9356 -0.6908  0.3516
18459TIP3   OH276867   0.782   3.945  16.286  0.1121  0.0249  0.1779
18459TIP3    H176868   0.696   3.951  16.328  0.0839  2.6393 -0.0565
18459TIP3    H276869   0.763   3.933  16.193  0.0138  0.0694  0.1918
18460TIP3   OH276870   2.933   6.704   5.798  0.3374 -0.4511 -0.0493
18460TIP3    H176871   3.015   6.748   5.817  0.6009 -1.1122  0.3760
18460TIP3    H276872   2.869   6.748   5.853  0.7741 -1.1861  1.0896
18461TIP3   OH276873   2.869   2.102  10.902  0.8426 -0.4803  0.2344
18461TIP3    H176874   2.897   2.193  10.917  0.5821 -0.0506 -1.6392
18461TIP3    H276875   2.901   2.082  10.814  0.1976 -1.9441  0.3151
18462TIP3   OH276876   0.403   5.619  15.318  0.1375  0.1429 -0.3715
18462TIP3    H176877   0.493   5.635  15.346  0.0753  0.2027 -0.2090
18462TIP3    H276878   0.354   5.607  15.399 -0.0833  0.5376 -0.4444
18463TIP3   OH276879   2.848   3.078   1.605 -0.1191  0.4194 -0.1122
18463TIP3    H176880   2.771   3.021   1.604  0.0931  0.1140  0.7641
18463TIP3    H276881   2.840   3.129   1.524 -0.2914 -0.8720 -0.9461
18464TIP3   OH276882   2.430   6.041  14.470  0.1574 -0.3259 -0.3289
18464TIP3    H176883   2.374   6.075  14.539  0.4400  0.9663 -0.7014
18464TIP3    H276884   2.519   6.051  14.503  0.3818  1.5348 -1.3319
18465TIP3   OH276885   0.884   5.180   0.139  0.2185 -0.1952 -0.0674
18465TIP3    H176886   0.930   5.142   0.214  0.5624 -1.6468 -0.9863
18465TIP3    H276887   0.938   5.158   0.064 -0.4056  0.7686 -0.8239
18466TIP3   OH276888   0.766   4.530  11.090  0.3685  0.3864  0.2165
18466TIP3    H176889   0.689   4.585  11.098  0.7584  1.2509 -1.5392
18466TIP3    H276890   0.804   4.553  11.006  0.3325 -2.8572 -0.8459
18467TIP3   OH276891   0.886   5.338  10.653  0.3005  0.2672 -0.5401
18467TIP3    H176892   0.813   5.395  10.632 -0.9679 -0.3932  1.7256
18467TIP3    H276893   0.878   5.264  10.593 -0.8670  0.2153 -0.3246
18468TIP3   OH276894   3.045   0.555   6.515 -0.5646 -0.2786 -0.1289
18468TIP3    H176895   2.955   0.558   6.482  0.1297 -1.8172 -2.4372
18468TIP3    H276896   3.087   0.632   6.477 -1.6788  2.7229  4.0565
18469TIP3   OH276897   2.433   3.059   0.255  0.0652  0.1465 -0.7349
18469TIP3    H176898   2.437   3.001   0.178  1.0531  1.7311 -1.9445
18469TIP3    H276899   2.347   3.101   0.248 -0.5625 -0.9758  0.0228
18470TIP3   OH276900   2.572   5.827  14.321 -0.0332 -0.0066  0.0501
18470TIP3    H176901   2.519   5.870  14.389  0.9248 -0.0835  0.8638
18470TIP3    H276902   2.660   5.863  14.333  1.2042 -3.1193  1.7055
18471TIP3   OH276903   5.090   3.697   1.353 -0.9567  0.7455  0.7141
18471TIP3    H176904   4.996   3.679   1.362 -0.8376 -0.9921 -1.0428
18471TIP3    H276905   5.098   3.741   1.269 -0.1323  0.4841  0.6513
18472TIP3   OH276906   6.065   2.543  12.982  0.4771  0.2698  0.2502
18472TIP3    H176907   6.017   2.460  12.981  1.1843 -0.1567  0.0647
18472TIP3    H276908   6.009   2.604  12.934  0.7355 -0.5815 -1.2119
18473TIP3   OH276909   3.662   1.255   2.451  0.1979 -0.1505 -0.2747
18473TIP3    H176910   3.638   1.273   2.542 -0.7053 -2.3262 -0.0124
18473TIP3    H276911   3.579   1.260   2.403  0.6300  0.7349 -0.9583
18474TIP3   OH276912   4.151   2.140  11.844  0.4737 -0.5929  0.2325
18474TIP3    H176913   4.066   2.128  11.801  0.8612  0.8288 -1.0167
18474TIP3    H276914   4.212   2.092  11.789  1.2503  2.5930 -1.9928
18475TIP3   OH276915   2.613   3.600   4.281  0.7172 -0.0381 -0.1764
18475TIP3    H176916   2.633   3.558   4.364  0.7213 -1.3009 -0.7963
18475TIP3    H276917   2.525   3.571   4.260  1.0250 -0.4060 -1.0049
18476TIP3   OH276918   5.384   4.469   1.207 -0.8423 -0.3335 -0.0026
18476TIP3    H176919   5.340   4.553   1.191 -1.8075 -0.7812  0.2676
18476TIP3    H276920   5.404   4.471   1.300 -0.1772 -0.0878 -0.1441
18477TIP3   OH276921   1.396   6.543   5.506  0.5611 -0.1374 -0.2667
18477TIP3    H176922   1.436   6.611   5.561  1.6148 -1.8444  1.1532
18477TIP3    H276923   1.451   6.542   5.427  1.8707 -0.7782  0.6232
18478TIP3   OH276924   1.445   0.844   4.125 -0.0564  0.5470 -0.0312
18478TIP3    H176925   1.526   0.893   4.137  0.5171 -0.2737 -0.5100
18478TIP3    H276926   1.468   0.771   4.068 -0.9674 -0.1041  0.3963
18479TIP3   OH276927   5.419   0.911  11.222 -0.6927  0.4855  0.6070
18479TIP3    H176928   5.398   0.973  11.152 -1.8433 -0.5367  0.0083
18479TIP3    H276929   5.352   0.926  11.289 -0.8436  0.0487  0.5589
18480TIP3   OH276930   5.474   2.462   2.985 -0.1271 -0.6602 -0.4429
18480TIP3    H176931   5.529   2.525   2.938 -0.0400 -1.0584 -0.8797
18480TIP3    H276932   5.408   2.516   3.030  2.1801  0.0851  2.3414
18481TIP3   OH276933   6.036   5.169   0.991  0.2052 -0.2661 -0.3917
18481TIP3    H176934   6.083   5.233   0.938  0.7434  0.3205  0.7462
18481TIP3    H276935   5.968   5.134   0.933  1.8227 -0.9109 -2.0041
18482TIP3   OH276936   2.777   3.833   4.294  0.2434  0.2202  0.2780
18482TIP3    H176937   2.720   3.900   4.332  0.7569  0.4870  0.5847
18482TIP3    H276938   2.731   3.751   4.311  0.7407  0.2583  2.0664
18483TIP3   OH276939   5.615   2.358  16.031 -0.0269 -0.2682  0.1182
18483TIP3    H176940   5.601   2.360  15.937 -0.1851 -2.0516  0.0592
18483TIP3    H276941   5.696   2.309  16.043 -1.2212 -2.1813  0.9397
18484TIP3   OH276942   5.791   5.401  13.137  0.3192 -0.5479 -0.6544
18484TIP3    H176943   5.738   5.383  13.214  0.1062  1.4631 -0.2685
18484TIP3    H276944   5.735   5.454  13.081  1.3352  0.1978 -0.9973
18485TIP3   OH276945   3.656   2.191  11.336  0.4579  0.1135  0.5768
18485TIP3    H176946   3.642   2.150  11.421  0.4486 -0.8224  0.1402
18485TIP3    H276947   3.742   2.161  11.309  0.5123  0.5042  0.3098
18486TIP3   OH276948   3.333   5.266   3.760  0.2306 -0.0365 -0.0549
18486TIP3    H176949   3.358   5.178   3.786 -0.4873  0.2865  1.9852
18486TIP3    H276950   3.259   5.255   3.701  0.2836 -0.8133  0.0246
18487TIP3   OH276951   0.244   2.815  13.026 -0.2673  0.3187  0.6654
18487TIP3    H176952   0.252   2.878  12.955  1.4936  0.4266  0.9180
18487TIP3    H276953   0.300   2.742  13.000 -0.9951 -0.4203  1.1326
18488TIP3   OH276954   5.584   2.005  10.980 -0.0124 -0.5064  0.3956
18488TIP3    H176955   5.600   1.942  10.910 -1.3807  0.2721 -0.6842
18488TIP3    H276956   5.650   2.073  10.968 -0.9267  0.1998 -0.9084
18489TIP3   OH276957   0.140   0.539  15.061  0.3288 -0.0923  0.4046
18489TIP3    H176958   0.113   0.623  15.024  0.3638  0.2215  1.0829
18489TIP3    H276959   0.143   0.479  14.986  0.5795  0.5800 -0.1271
18490TIP3   OH276960   1.283   0.738  12.243  0.2927  0.1469 -0.8969
18490TIP3    H176961   1.280   0.809  12.179 -1.1611  1.4784  0.5733
18490TIP3    H276962   1.340   0.772  12.312  0.9761 -0.8473 -0.9531
18491TIP3   OH276963   6.667   3.522  15.823  0.0255  0.5414 -0.1049
18491TIP3    H176964   6.675   3.614  15.798  0.9673  0.3186 -0.6599
18491TIP3    H276965   6.735   3.508  15.888  1.4687 -0.3154 -1.7173
18492TIP3   OH276966   2.907   2.250   4.445  0.2025 -0.4922  0.2324
18492TIP3    H176967   2.990   2.206   4.429 -1.2326 -3.1360 -0.4654
18492TIP3    H276968   2.902   2.260   4.540  1.8801  1.0451  0.2226
18493TIP3   OH276969   6.289   3.899   3.912 -0.1376  0.0571  0.5084
18493TIP3    H176970   6.347   3.902   3.836 -1.3672  0.3934 -0.4394
18493TIP3    H276971   6.333   3.952   3.978 -0.0225  1.4830 -0.6671
18494TIP3   OH276972   0.494   1.626  12.192 -0.0890  0.3851 -0.4294
18494TIP3    H176973   0.475   1.544  12.237 -1.5410  0.2844 -1.1646
18494TIP3    H276974   0.413   1.647  12.146 -0.1164  2.7283  0.5221
18495TIP3   OH276975   0.728   0.884   1.850  0.3163  0.0022  0.1563
18495TIP3    H176976   0.772   0.915   1.929 -0.5212 -2.2852  1.6281
18495TIP3    H276977   0.687   0.961   1.812 -0.6677  0.9150  2.9001
18496TIP3   OH276978   0.229   3.030   3.653  0.5696  0.1202 -0.1275
18496TIP3    H176979   0.193   2.959   3.705  1.8941  0.7636  1.8159
18496TIP3    H276980   0.159   3.056   3.594 -1.0526 -0.6552  1.3827
18497TIP3   OH276981   1.684   1.394  11.747  0.2693  0.0622 -0.4395
18497TIP3    H176982   1.678   1.443  11.666 -1.3637  1.8466  0.6893
18497TIP3    H276983   1.753   1.438  11.797 -0.7389  0.8492  0.3007
18498TIP3   OH276984   6.333   4.325   3.590  0.1549  0.2407 -0.0627
18498TIP3    H176985   6.263   4.261   3.576 -0.6692  1.2327 -0.7108
18498TIP3    H276986   6.327   4.348   3.683 -1.4955  1.4939 -0.4181
18499TIP3   OH276987   2.706   5.487   5.875 -0.5924 -0.0148  0.5272
18499TIP3    H176988   2.755   5.418   5.921 -0.3089  0.0161  0.2714
18499TIP3    H276989   2.638   5.440   5.827  0.6992 -0.3087 -1.0909
18500TIP3   OH276990   1.525   2.066   4.430 -0.5671  0.3504 -0.0245
18500TIP3    H176991   1.611   2.029   4.410 -0.6213 -0.2559  0.8360
18500TIP3    H276992   1.490   2.090   4.344  0.6240  1.0158 -0.3580
18501TIP3   OH276993   5.277   1.316   2.569 -0.1880  0.0285  0.2764
18501TIP3    H176994   5.359   1.301   2.615 -0.1414  0.0919  0.2141
18501TIP3    H276995   5.285   1.265   2.488  0.1386  0.7132 -0.1298
18502TIP3   OH276996   0.955   4.133   6.057 -0.0652 -0.0108  0.2887
18502TIP3    H176997   0.974   4.040   6.043  1.1795  0.4696 -1.5634
18502TIP3    H276998   0.900   4.134   6.135 -0.4028 -2.3278  0.1646
18503TIP3   OH276999   6.382   3.558  14.657 -0.1446  0.3599  0.1237
18503TIP3    H177000   6.462   3.538  14.707 -0.3747  0.6377  0.6019
18503TIP3    H277001   6.383   3.494  14.585  1.2665  1.2745 -0.7263
18504TIP3   OH277002   6.008   2.537   5.466 -0.0654  0.1187 -0.3345
18504TIP3    H177003   6.079   2.595   5.438  0.5433 -1.1993 -1.6278
18504TIP3    H277004   5.944   2.541   5.396 -0.8027  0.4905  0.3474
18505TIP3   OH277005   1.399   4.390  15.388  0.1273 -0.1365 -0.0045
18505TIP3    H177006   1.314   4.376  15.345  0.3007  0.7694 -0.6483
18505TIP3    H277007   1.423   4.479  15.366  1.1669 -0.3212  0.3484
18506TIP3   OH277008   0.236   1.020   3.211 -0.1820 -0.4463  0.7256
18506TIP3    H177009   0.265   0.935   3.245  0.2409 -0.0336  1.4096
18506TIP3    H277010   0.306   1.081   3.235 -0.6361  0.1620  0.5253
18507TIP3   OH277011   5.506   6.124   2.544 -0.0591 -0.3288  0.3508
18507TIP3    H177012   5.513   6.215   2.517 -1.3656 -0.3411 -0.1334
18507TIP3    H277013   5.595   6.089   2.535  0.0891  0.3797 -1.3936
18508TIP3   OH277014   1.764   6.073   2.660  0.2567 -0.0523 -0.1990
18508TIP3    H177015   1.772   6.116   2.575 -1.2615  0.5453 -0.0659
18508TIP3    H277016   1.831   6.005   2.659  1.6465  1.2473 -1.0566
18509TIP3   OH277017   3.409   0.453   2.444 -0.2001  0.3169  0.2285
18509TIP3    H177018   3.476   0.470   2.377  0.0576 -1.4905 -0.0246
18509TIP3    H277019   3.451   0.478   2.526  0.3023  0.4397 -0.0574
18510TIP3   OH277020   2.351   6.673   1.837  0.0670  0.0655 -0.1858
18510TIP3    H177021   2.282   6.738   1.826  1.6358  1.5041 -2.5707
18510TIP3    H277022   2.314   6.592   1.802 -0.7944  0.5083 -0.3323
18511TIP3   OH277023   2.046   5.000   4.775  0.1624  0.3890 -0.0165
18511TIP3    H177024   2.109   5.069   4.793 -0.6595  0.8064  1.3633
18511TIP3    H277025   1.996   4.991   4.856  0.8092 -2.4422  0.1774
18512TIP3   OH277026   5.454   3.002   5.915  0.4639 -0.1898  0.1400
18512TIP3    H177027   5.475   3.082   5.965 -1.3640  0.9925 -0.8849
18512TIP3    H277028   5.410   2.946   5.979  2.2815 -0.6728  1.0271
18513TIP3   OH277029   1.978   6.723  11.459 -0.0831  0.2729  0.1383
18513TIP3    H177030   1.903   6.728  11.400 -0.8244 -0.0195  1.0220
18513TIP3    H277031   2.042   6.668  11.413 -1.2322 -1.1681  0.2209
18514TIP3   OH277032   4.417   1.498  15.612  1.0523 -0.1260 -0.2888
18514TIP3    H177033   4.407   1.406  15.588  0.3608 -0.1089 -0.0893
18514TIP3    H277034   4.413   1.545  15.528 -1.4825 -0.0568 -0.2222
18515TIP3   OH277035   4.028   4.838   5.310 -0.2823  0.4293 -0.3933
18515TIP3    H177036   3.989   4.854   5.224 -0.5844 -1.3113 -0.6049
18515TIP3    H277037   3.954   4.817   5.367  0.0282  0.4410  0.0245
18516TIP3   OH277038   4.626   0.491   3.695 -0.2248 -0.1046 -0.5452
18516TIP3    H177039   4.659   0.500   3.605 -0.1513  1.5697 -0.3694
18516TIP3    H277040   4.542   0.537   3.695 -0.4197 -0.4422  0.1573
18517TIP3   OH277041   4.459   6.053  11.054  0.4313  0.1001 -0.1292
18517TIP3    H177042   4.375   6.033  11.095 -1.0633  1.5591 -2.2711
18517TIP3    H277043   4.497   5.967  11.034 -0.2531 -0.5809  1.3764
18518TIP3   OH277044   4.025   0.316  17.008 -0.0866 -0.0725 -0.0030
18518TIP3    H177045   4.046   0.379  17.077 -3.2467  1.5253 -0.3662
18518TIP3    H277046   3.937   0.286  17.028 -0.2707 -1.2182 -2.2006
18519TIP3   OH277047   1.242   1.758  11.888  0.0287  0.4231  0.2295
18519TIP3    H177048   1.190   1.705  11.949  0.3125 -0.1261  0.0004
18519TIP3    H277049   1.183   1.776  11.815  0.1805 -0.2763 -0.0724
18520TIP3   OH277050   5.990   0.360   1.105  0.6533 -0.0083  0.5791
18520TIP3    H177051   6.085   0.347   1.110  1.1914  2.6984 -0.6600
18520TIP3    H277052   5.966   0.393   1.191  0.7339 -1.0339  1.0128
18521TIP3   OH277053   2.376   1.878   1.377 -0.2416  0.2248 -0.2656
18521TIP3    H177054   2.430   1.815   1.425 -0.8590  0.2642  0.4948
18521TIP3    H277055   2.433   1.954   1.364  0.0401  0.0753  0.0975
18522TIP3   OH277056   3.229   6.132  16.604 -0.1842 -0.1054 -0.5180
18522TIP3    H177057   3.270   6.045  16.606 -0.0741 -0.0631 -0.9607
18522TIP3    H277058   3.252   6.168  16.518 -2.3689 -0.6834 -1.4231
18523TIP3   OH277059   2.179   6.156  11.616 -0.2293  0.1132  0.0482
18523TIP3    H177060   2.269   6.177  11.642 -0.1550 -0.8545  0.5940
18523TIP3    H277061   2.124   6.205  11.677 -0.0760  0.3639 -0.0128
18524TIP3   OH277062   0.405   5.747   5.148  0.0948  0.0539  0.5578
18524TIP3    H177063   0.409   5.653   5.164  1.3706 -0.1338 -0.6847
18524TIP3    H277064   0.344   5.780   5.214  0.9539 -1.3920  2.1669
18525TIP3   OH277065   6.195   4.482  12.980 -0.0580 -0.0849 -0.3934
18525TIP3    H177066   6.138   4.426  12.928  1.9327 -0.7917 -1.9542
18525TIP3    H277067   6.139   4.516  13.049 -2.1902 -1.1858 -1.4878
18526TIP3   OH277068   0.439   1.943  12.116 -0.0761  0.4033  0.2002
18526TIP3    H177069   0.422   1.904  12.201  1.3306  0.4381  0.5217
18526TIP3    H277070   0.355   1.980  12.089 -1.0394 -1.3888  0.6280
18527TIP3   OH277071   3.653   0.191   5.656 -0.5704  0.1737  1.3175
18527TIP3    H177072   3.618   0.249   5.724 -1.2031  0.5056  0.7241
18527TIP3    H277073   3.578   0.173   5.600 -0.0134  0.0587  0.6047
18528TIP3   OH277074   4.921   1.475  15.696  0.2552  0.2900 -0.2531
18528TIP3    H177075   4.996   1.532  15.715 -0.0220  0.3748  0.6293
18528TIP3    H277076   4.945   1.391  15.735 -0.8135  0.7870  1.5871
18529TIP3   OH277077   3.407   6.147  16.386  0.5617  0.1264  0.6549
18529TIP3    H177078   3.473   6.088  16.350  1.5463  1.3279  0.3869
18529TIP3    H277079   3.394   6.212  16.317 -2.1760 -0.9911  0.0239
18530TIP3   OH277080   4.674   6.215  15.090 -0.0585 -0.1677 -0.1327
18530TIP3    H177081   4.722   6.222  15.007 -0.5642  0.2759 -0.3862
18530TIP3    H277082   4.700   6.129  15.125 -1.3276 -1.2215 -1.6863
18531TIP3   OH277083   1.296   1.495   2.678  0.2957  0.1173  0.0887
18531TIP3    H177084   1.312   1.407   2.644  1.9934  0.7863 -1.0316
18531TIP3    H277085   1.383   1.535   2.681 -0.3765  1.5954  1.0464
18532TIP3   OH277086   3.561   5.079  15.646  0.1443 -0.2955 -0.8151
18532TIP3    H177087   3.556   4.986  15.623 -2.7193 -0.2814 -0.5887
18532TIP3    H277088   3.470   5.105  15.659  0.9912  2.1231  0.8959
18533TIP3   OH277089   0.111   3.887   3.298  0.5982 -0.2731  0.0322
18533TIP3    H177090   0.091   3.882   3.391  1.1292 -0.0918  0.1640
18533TIP3    H277091   0.206   3.902   3.295  0.2207  2.5466 -0.4625
18534TIP3   OH277092   1.093   2.597  13.120 -0.3276  0.0676  0.3816
18534TIP3    H177093   1.183   2.566  13.123 -0.5183 -0.6704 -0.6609
18534TIP3    H277094   1.099   2.686  13.084 -0.1307 -0.8338 -2.0423
18535TIP3   OH277095   5.822   6.759  16.298  0.7729  0.0875  0.3424
18535TIP3    H177096   5.858   6.707  16.370 -2.6674 -1.8652  0.9019
18535TIP3    H277097   5.761   6.819  16.341 -0.4846 -0.3353 -0.7688
18536TIP3   OH277098   1.811   1.341   0.370  0.1885  0.5720  0.5227
18536TIP3    H177099   1.753   1.267   0.389 -1.9508  1.8659 -0.4884
18536TIP3    H277100   1.801   1.399   0.445  0.8440  0.4282  0.7232
18537TIP3   OH277101   0.521   3.811  13.281  0.0682  0.2985  0.1000
18537TIP3    H177102   0.487   3.825  13.369  1.3666 -0.5105  0.7570
18537TIP3    H277103   0.464   3.743  13.244  1.5118 -1.8435  1.5861
18538TIP3   OH277104   1.539   1.325  13.546  0.2476  0.6832  0.8499
18538TIP3    H177105   1.493   1.398  13.506  1.4295  1.4061  0.7657
18538TIP3    H277106   1.556   1.354  13.636  1.1535  0.7355  0.6756
18539TIP3   OH277107   5.137   3.139   1.684  0.0368  0.0495  0.4506
18539TIP3    H177108   5.159   3.099   1.768  0.4604 -0.7977 -0.0524
18539TIP3    H277109   5.155   3.071   1.620 -1.4762  0.2451 -0.2357
18540TIP3   OH277110   4.776   2.157  15.882  0.2402  0.3984  0.1255
18540TIP3    H177111   4.860   2.163  15.929  0.2011 -0.0584  0.2561
18540TIP3    H277112   4.711   2.147  15.951  0.3855 -2.5234 -0.0541
18541TIP3   OH277113   4.593   2.126  12.387  0.1102  0.2431 -0.8386
18541TIP3    H177114   4.550   2.206  12.355 -1.1747 -0.1026 -0.0715
18541TIP3    H277115   4.536   2.096  12.458  0.5509 -1.3927 -1.1484
18542TIP3   OH277116   5.743   4.964   4.889 -0.0528  0.5759 -0.4287
18542TIP3    H177117   5.811   4.997   4.831  1.6350 -1.4355  0.3099
18542TIP3    H277118   5.694   4.901   4.836 -0.6419  1.1769 -0.6159
18543TIP3   OH277119   6.083   0.034   2.146 -0.4158 -1.0132 -0.0190
18543TIP3    H177120   6.101   0.078   2.063  0.8497  0.8271  1.1652
18543TIP3    H277121   6.153  -0.030   2.155  0.7574  0.3114  0.6140
18544TIP3   OH277122   1.358   0.729   3.117 -0.0262 -0.2671 -0.3751
18544TIP3    H177123   1.432   0.716   3.057 -0.6539 -1.9519 -0.8441
18544TIP3    H277124   1.385   0.685   3.198 -0.5487 -0.9907 -0.5875
18545TIP3   OH277125   5.019   3.371  11.068 -1.0952  0.4637 -0.2585
18545TIP3    H177126   5.078   3.397  11.139  0.0055  1.5933 -1.5286
18545TIP3    H277127   5.064   3.398  10.988 -1.7349 -1.8474 -1.4996
18546TIP3   OH277128   0.562   4.550  15.027 -0.5308 -0.8417 -0.1940
18546TIP3    H177129   0.534   4.640  15.040  1.4463 -0.2406  0.1040
18546TIP3    H277130   0.490   4.498  15.062 -2.1546  0.5588 -1.2655
18547TIP3   OH277131   6.046   1.001  15.978 -0.5455  0.3058 -0.7892
18547TIP3    H177132   5.969   1.006  15.922 -0.5572 -0.1326 -0.8150
18547TIP3    H277133   6.073   0.910  15.974 -1.5773 -0.1612  1.2871
18548TIP3   OH277134   2.041   5.762  16.234 -0.2849 -0.3287  0.2965
18548TIP3    H177135   2.020   5.673  16.261  0.8226 -0.4141  0.9607
18548TIP3    H277136   2.079   5.802  16.312 -2.6922  1.4226  0.6580
18549TIP3   OH277137   3.234   0.858  15.176 -0.1306  0.3497 -0.1416
18549TIP3    H177138   3.286   0.821  15.104  1.1250  1.4394  0.1732
18549TIP3    H277139   3.144   0.846  15.148  0.3220  0.3641 -1.7122
18550TIP3   OH277140   5.208   0.999   0.423  0.0437  0.0952  0.0072
18550TIP3    H177141   5.165   1.026   0.504  1.2386  1.2430  0.3040
18550TIP3    H277142   5.299   0.984   0.449  0.2933 -0.1811 -1.0033
18551TIP3   OH277143   1.101   0.667   4.918  0.4811 -0.1122 -0.0666
18551TIP3    H177144   1.058   0.631   4.996 -3.1345  2.0744 -0.8659
18551TIP3    H277145   1.120   0.758   4.941 -1.1603  0.7375 -1.8254
18552TIP3   OH277146   4.795   6.606   0.624 -0.4771  0.2639  0.1178
18552TIP3    H177147   4.838   6.571   0.702 -0.0248  0.2109 -0.1500
18552TIP3    H277148   4.765   6.692   0.650  2.0372  1.3981 -0.3972
18553TIP3   OH277149   0.361   1.696   4.075 -0.0658 -0.7840 -0.0740
18553TIP3    H177150   0.385   1.604   4.080  1.0223 -0.4425  1.5043
18553TIP3    H277151   0.435   1.743   4.115 -0.9423  0.7146 -0.1337
18554TIP3   OH277152   3.414   6.180  12.634  0.1965 -0.4738  0.4423
18554TIP3    H177153   3.329   6.138  12.624  0.1820 -0.2667 -0.4187
18554TIP3    H277154   3.422   6.237  12.557  0.7485  0.1491  0.9481
18555TIP3   OH277155   3.339   5.569  16.733 -0.9313 -0.7482  0.2471
18555TIP3    H177156   3.284   5.629  16.783 -2.3495 -1.1309 -0.7679
18555TIP3    H277157   3.347   5.610  16.646 -0.9190 -1.4331 -0.0850
18556TIP3   OH277158   2.058   2.346  10.955 -0.0851  0.7157 -0.3433
18556TIP3    H177159   2.050   2.414  10.888 -2.6590  1.2880  0.4533
18556TIP3    H277160   1.976   2.296  10.949  0.9484 -1.1844  0.3474
18557TIP3   OH277161   5.545   0.219   2.625  0.0802 -0.2720  0.0893
18557TIP3    H177162   5.605   0.284   2.588  0.6809 -0.3642  0.8730
18557TIP3    H277163   5.509   0.173   2.549 -1.7209  2.1062 -0.6008
18558TIP3   OH277164   1.043   5.386   1.041 -0.4595 -1.1245  0.8504
18558TIP3    H177165   1.017   5.314   1.099 -1.7897 -1.2207  0.1633
18558TIP3    H277166   1.112   5.349   0.986 -0.1257 -1.4299  1.4632
18559TIP3   OH277167   2.218   4.304  12.561  0.1123 -0.8853 -0.3186
18559TIP3    H177168   2.138   4.331  12.515 -0.2793  1.5259  1.6076
18559TIP3    H277169   2.287   4.358  12.524  0.0448  0.0613  0.8887
18560TIP3   OH277170   1.608   2.733  15.355  0.1909 -0.2705  0.3763
18560TIP3    H177171   1.697   2.700  15.367  0.5640 -0.0092 -1.4427
18560TIP3    H277172   1.552   2.656  15.366  0.7505 -0.7116  0.1686
18561TIP3   OH277173   4.256   6.295   0.735  0.3361 -0.5725  0.3078
18561TIP3    H177174   4.214   6.378   0.714 -0.9352 -0.8514  1.6219
18561TIP3    H277175   4.204   6.229   0.688  1.0652 -0.6861 -0.3650
18562TIP3   OH277176   3.244   0.570  11.618  0.3723 -0.4037 -0.0729
18562TIP3    H177177   3.287   0.655  11.613  0.7217 -0.4724  1.2756
18562TIP3    H277178   3.315   0.506  11.610  0.7094 -0.5156  2.6936
18563TIP3   OH277179   4.306   3.183  15.596 -0.2796 -0.0222 -0.3502
18563TIP3    H177180   4.284   3.256  15.539 -0.9559 -0.0831 -0.1792
18563TIP3    H277181   4.393   3.204  15.631 -1.3088  1.7410  1.3385
18564TIP3   OH277182   0.741   6.051  12.918 -0.2696  0.4049 -0.1737
18564TIP3    H177183   0.782   6.052  12.832 -0.8549  0.1108 -0.4623
18564TIP3    H277184   0.699   6.136  12.926 -0.0644  0.5015 -0.0964
18565TIP3   OH277185   6.418   2.563   0.714  0.0829  0.2678  0.0243
18565TIP3    H177186   6.412   2.507   0.791  0.9938  0.9813  0.6446
18565TIP3    H277187   6.432   2.651   0.750 -1.1884  0.8870 -0.9217
18566TIP3   OH277188   3.491   2.881   2.336  0.2209  0.1219 -0.2169
18566TIP3    H177189   3.528   2.910   2.252 -0.7744  0.1139 -0.6751
18566TIP3    H277190   3.452   2.796   2.316  0.8130 -0.3210  0.4915
18567TIP3   OH277191   2.287   6.578  15.613 -0.2559 -0.4508  0.0350
18567TIP3    H177192   2.219   6.641  15.637 -0.7044 -0.5751 -0.8732
18567TIP3    H277193   2.355   6.630  15.571  0.0477 -0.3841  0.5854
18568TIP3   OH277194   5.020   0.988  12.854  0.1304 -0.2178 -0.0505
18568TIP3    H177195   4.995   0.896  12.843  0.9337 -0.3558 -0.8012
18568TIP3    H277196   5.048   0.993  12.946 -1.8360 -0.2308  0.5848
18569TIP3   OH277197   1.848   3.180  11.647 -0.4570 -0.3985  0.8022
18569TIP3    H177198   1.935   3.179  11.687 -0.7602  1.4169  1.5876
18569TIP3    H277199   1.790   3.215  11.715 -1.5273 -0.0985 -0.2334
18570TIP3   OH277200   1.176   4.507  15.720  0.1880 -0.1124 -0.2751
18570TIP3    H177201   1.147   4.532  15.808  0.7939  1.0569 -0.3945
18570TIP3    H277202   1.194   4.413  15.727 -0.2176 -0.1275  0.7279
18571TIP3   OH277203   1.230   1.566  16.306  0.3298  0.2522  0.0718
18571TIP3    H177204   1.176   1.508  16.252  0.9941  0.4235 -0.8203
18571TIP3    H277205   1.227   1.528  16.393 -1.3704  0.3675  0.0865
18572TIP3   OH277206   3.490   5.630   2.757 -0.0195 -0.7194 -0.0222
18572TIP3    H177207   3.457   5.703   2.705 -0.8558  0.0265  1.4678
18572TIP3    H277208   3.438   5.555   2.730 -0.1493 -0.4374 -0.5576
18573TIP3   OH277209   6.844   2.918  13.353  0.5429  0.5246  0.3668
18573TIP3    H177210   6.834   2.879  13.266 -1.0622  0.4355  0.5634
18573TIP3    H277211   6.754   2.930  13.384  1.0707  1.6920  1.5113
18574TIP3   OH277212   4.889   6.511  13.546  0.0733 -0.0205 -0.2157
18574TIP3    H177213   4.952   6.443  13.571 -1.9495 -1.5342  1.0746
18574TIP3    H277214   4.815   6.462  13.510 -1.0697  1.5698 -0.1115
18575TIP3   OH277215   2.917   4.582  11.703  0.5729 -0.0981 -0.4696
18575TIP3    H177216   2.887   4.601  11.791  0.9470 -0.1619 -0.3271
18575TIP3    H277217   2.838   4.558  11.655  0.2476  0.7851 -0.3830
18576TIP3   OH277218   1.440   1.180   2.917  0.5760  0.0609  0.3709
18576TIP3    H177219   1.402   1.106   2.964 -1.3528  0.0870 -1.0648
18576TIP3    H277220   1.529   1.188   2.953  1.1856 -3.4856 -0.0269
18577TIP3   OH277221   6.631   5.054   2.435 -0.7851 -0.2397 -0.2661
18577TIP3    H177222   6.593   4.988   2.492  0.8435  0.0235  1.2154
18577TIP3    H277223   6.654   5.007   2.355 -2.3266 -0.7950 -0.4227
18578TIP3   OH277224   6.662   6.519  13.814  0.0025  0.1349  0.1060
18578TIP3    H177225   6.668   6.541  13.907  0.0934  3.1662 -0.5306
18578TIP3    H277226   6.604   6.586  13.777  0.7218 -0.4240 -2.2007
18579TIP3   OH277227   6.852   5.838  12.441 -0.0403  0.2522  0.0491
18579TIP3    H177228   6.923   5.822  12.378  0.2432 -2.2602  0.8890
18579TIP3    H277229   6.777   5.862  12.387  0.9091  0.9881 -1.0055
18580TIP3   OH277230   4.593   2.766  14.656 -0.3814 -0.5569  0.0634
18580TIP3    H177231   4.585   2.856  14.689  0.5135 -0.3598 -0.2428
18580TIP3    H277232   4.677   2.764  14.612 -1.3214 -0.9411 -1.8232
18581TIP3   OH277233   2.382   3.577  13.063  0.3612  0.4198 -0.5861
18581TIP3    H177234   2.392   3.589  13.157  2.6607  1.6194 -0.8969
18581TIP3    H277235   2.388   3.665  13.026  0.7461 -0.1242 -1.9228
18582TIP3   OH277236   4.028   4.984   2.244 -0.5122  0.0688 -0.2249
18582TIP3    H177237   4.018   5.070   2.284  0.9219 -0.5770  1.7185
18582TIP3    H277238   4.048   4.925   2.318  0.8911 -1.4735 -1.7237
18583TIP3   OH277239   3.802   4.796  16.115  0.5334  0.1233  0.3843
18583TIP3    H177240   3.772   4.832  16.031  0.3259 -0.0931  0.3646
18583TIP3    H277241   3.738   4.729  16.137  1.2738 -0.7040  0.0918
18584TIP3   OH277242   5.115   1.497   5.590 -0.3546 -0.2953 -0.4024
18584TIP3    H177243   5.148   1.566   5.532 -0.1408 -1.1142 -1.2877
18584TIP3    H277244   5.176   1.424   5.577 -0.3513 -0.5221  0.8093
18585TIP3   OH277245   0.264   5.052   1.347  0.4188 -0.0751 -0.3068
18585TIP3    H177246   0.345   5.042   1.397 -0.3232  1.4659  1.3505
18585TIP3    H277247   0.289   5.103   1.270  1.3782 -1.5046 -0.9817
18586TIP3   OH277248   5.552   5.929   0.432  0.5820  0.2185 -0.5889
18586TIP3    H177249   5.581   5.971   0.350  0.5636 -1.1249 -1.3179
18586TIP3    H277250   5.458   5.920   0.422  0.5152  0.5146 -0.1985
18587TIP3   OH277251   6.426   3.538   3.704 -0.8500  0.0374 -0.0229
18587TIP3    H177252   6.453   3.489   3.626 -1.5914  0.1240 -0.3462
18587TIP3    H277253   6.508   3.571   3.741 -0.3584 -1.3366  0.1388
18588TIP3   OH277254   3.566   5.526  12.076 -0.3051 -0.0027 -0.3225
18588TIP3    H177255   3.635   5.481  12.028  0.5969  0.1150  0.8517
18588TIP3    H277256   3.541   5.599  12.018  1.4029  0.6854 -0.2299
18589TIP3   OH277257   1.249   6.015  12.248 -1.2216  0.7456  0.0455
18589TIP3    H177258   1.273   5.938  12.299 -1.0009  0.9729  0.2919
18589TIP3    H277259   1.330   6.038  12.201 -1.2998  0.7974 -0.0637
18590TIP3   OH277260   3.055   6.037   5.124 -0.0360  0.3402  0.1200
18590TIP3    H177261   2.981   6.008   5.071 -0.3318  0.2390  0.5887
18590TIP3    H277262   3.101   6.100   5.068 -0.6125  0.5879 -0.0793
18591TIP3   OH277263   3.900   1.032   3.695  0.0306 -0.0625 -0.1637
18591TIP3    H177264   3.963   1.065   3.632 -0.3313  0.3931 -0.2990
18591TIP3    H277265   3.926   1.072   3.778  0.9795 -1.2872  0.1456
18592TIP3   OH277266   6.317   0.329  11.818  0.8106  0.5145  0.5048
18592TIP3    H177267   6.302   0.291  11.731 -1.2183  2.1843  0.0424
18592TIP3    H277268   6.238   0.307  11.868  1.6362  0.2131  1.7226
18593TIP3   OH277269   0.996   3.381   0.196 -0.1143 -0.2868  0.1930
18593TIP3    H177270   1.078   3.385   0.147 -0.7969  2.1277 -0.8711
18593TIP3    H277271   0.998   3.295   0.239  3.5176  0.1879  1.2411
18594TIP3   OH277272   1.087   5.177   1.261 -0.4383  0.5758  0.0314
18594TIP3    H177273   1.062   5.239   1.331  0.6497  0.7191  0.3080
18594TIP3    H277274   1.178   5.199   1.242  0.1502 -1.3059  0.5170
18595TIP3   OH277275   6.555   0.469  11.667  0.2896 -0.3323 -0.0564
18595TIP3    H177276   6.464   0.444  11.683  0.0317  0.4843 -0.2162
18595TIP3    H277277   6.576   0.530  11.737  0.7833 -0.6739  0.0959
18596TIP3   OH277278   5.542   3.953   4.541 -0.3736  0.3111 -0.5996
18596TIP3    H177279   5.614   3.988   4.489 -0.3603  2.4161  0.7271
18596TIP3    H277280   5.472   4.018   4.532 -2.5726 -2.0769 -2.6119
18597TIP3   OH277281   0.431   2.825   1.416  0.2758  0.4006  0.0902
18597TIP3    H177282   0.473   2.749   1.456 -0.4860  0.4287  0.9815
18597TIP3    H277283   0.495   2.895   1.423  1.2148 -0.2682 -1.2589
18598TIP3   OH277284   0.926   6.121   5.552  0.2635  0.7018  0.1309
18598TIP3    H177285   0.832   6.113   5.567  0.4751  2.2671  3.2180
18598TIP3    H277286   0.946   6.212   5.577  2.5105  0.6030 -1.0825
18599TIP3   OH277287   2.988   6.317  15.653 -0.0604 -0.0044 -0.4413
18599TIP3    H177288   3.040   6.287  15.579  1.5824  0.8459  0.3231
18599TIP3    H277289   3.052   6.339  15.720 -1.3873  1.5281  0.3938
18600TIP3   OH277290   6.314   5.063   0.743  0.3750  0.4489 -0.8580
18600TIP3    H177291   6.293   5.127   0.810 -1.5447 -0.3895 -0.5743
18600TIP3    H277292   6.251   5.079   0.673 -0.7838 -1.6475 -0.3836
18601TIP3   OH277293   3.309   5.016  14.120 -0.2891  0.0730  0.0042
18601TIP3    H177294   3.389   4.993  14.168 -0.2051  2.4034  1.1565
18601TIP3    H277295   3.242   4.957  14.155  0.5107 -0.5870  0.4609
18602TIP3   OH277296   6.591   1.540   1.387  0.1091 -0.3300 -0.0270
18602TIP3    H177297   6.640   1.482   1.445 -0.7526 -0.1788  0.8810
18602TIP3    H277298   6.603   1.627   1.426 -0.0935 -0.1609 -0.3444
18603TIP3   OH277299   6.063   2.797   1.992  0.0676  0.5259 -0.5895
18603TIP3    H177300   6.136   2.791   2.054  0.9679 -1.6620 -1.7504
18603TIP3    H277301   5.985   2.775   2.043  0.6529 -0.2049 -0.0040
18604TIP3   OH277302   2.238   6.449  13.846 -0.3628 -0.4405 -0.1332
18604TIP3    H177303   2.294   6.417  13.917  0.4787  0.1160 -0.5276
18604TIP3    H277304   2.277   6.414  13.766 -1.0958 -0.7673 -0.3517
18605TIP3   OH277305   4.951   4.975  14.034 -0.1792  0.7111  0.3486
18605TIP3    H177306   4.974   5.040  13.967 -1.3829  0.0102 -0.8054
18605TIP3    H277307   4.989   5.009  14.115  2.0397  1.2100 -0.8093
18606TIP3   OH277308   5.253   6.720  12.725  0.3629 -0.2911  0.0905
18606TIP3    H177309   5.170   6.760  12.700  0.2034 -0.7653 -0.1358
18606TIP3    H277310   5.320   6.778  12.688  0.1849  1.2363  1.9795
18607TIP3   OH277311   6.043   3.693  13.599  0.0877  0.0359 -0.1910
18607TIP3    H177312   6.015   3.780  13.626 -0.0053  0.2326 -0.8989
18607TIP3    H277313   6.110   3.668  13.663 -0.2879  0.3816  0.3500
18608TIP3   OH277314   6.828   1.884  15.858 -0.0869  0.1957  0.0326
18608TIP3    H177315   6.754   1.907  15.802  0.3805 -2.5163 -1.9462
18608TIP3    H277316   6.788   1.860  15.942 -1.0176  2.3427  0.2557
18609TIP3   OH277317   6.462   4.828  10.296  0.1790  0.2006 -0.0864
18609TIP3    H177318   6.402   4.898  10.272 -1.2856 -0.7740  0.6237
18609TIP3    H277319   6.432   4.752  10.247  0.0112 -0.6292  1.2487
18610TIP3   OH277320   0.439   4.823  10.882 -0.1218 -0.0641 -0.4334
18610TIP3    H177321   0.504   4.894  10.878  0.1651 -0.1966  1.2304
18610TIP3    H277322   0.356   4.866  10.861  0.0263  0.8257  0.6903
18611TIP3   OH277323   6.109   3.430   4.121  0.9448  0.1174 -0.0207
18611TIP3    H177324   6.081   3.340   4.137 -0.4190  0.4341 -0.5707
18611TIP3    H277325   6.151   3.427   4.035  0.7231  0.0535 -0.1263
18612TIP3   OH277326   6.774   4.034   4.573  0.3904  0.0196  0.1124
18612TIP3    H177327   6.699   3.979   4.597  0.8650 -1.6912 -2.0031
18612TIP3    H277328   6.828   3.978   4.516  2.7359  1.5538  0.6816
18613TIP3   OH277329   5.149   3.013  14.993  0.2111  0.1439  0.0173
18613TIP3    H177330   5.216   2.947  14.979 -0.3179 -0.4641  0.2549
18613TIP3    H277331   5.196   3.092  15.019  0.7730 -0.5269  1.0660
18614TIP3   OH277332   1.763   1.357   4.790 -0.3201  0.4329  0.7719
18614TIP3    H177333   1.735   1.319   4.873 -0.8416  1.8200  1.2631
18614TIP3    H277334   1.682   1.390   4.750 -0.2869 -1.3531 -0.9374
18615TIP3   OH277335   5.886   0.804   4.893 -0.0673  0.2585 -0.1507
18615TIP3    H177336   5.804   0.762   4.866  0.0737 -0.7891  1.0022
18615TIP3    H277337   5.953   0.739   4.873  0.3013  0.4487  0.4692
18616TIP3   OH277338   4.835   4.381  11.943 -0.0731  0.3086  0.5585
18616TIP3    H177339   4.786   4.379  11.861  0.6836  0.8303  0.0737
18616TIP3    H277340   4.892   4.458  11.935  1.9585 -1.1146  0.3864
18617TIP3   OH277341   6.027   5.367  15.046 -0.3665  0.0245 -0.6149
18617TIP3    H177342   6.056   5.408  15.127  0.9394 -0.4565 -0.8044
18617TIP3    H277343   5.932   5.371  15.049 -0.5325 -2.4379  2.2420
18618TIP3   OH277344   6.577   6.618  12.663 -0.4831  0.3155  0.8970
18618TIP3    H177345   6.536   6.685  12.610 -2.0514 -0.3451  1.2129
18618TIP3    H277346   6.504   6.563  12.693  0.4567  0.0330  2.8266
18619TIP3   OH277347   5.579   1.354   3.064 -0.2434 -0.5183 -0.4930
18619TIP3    H177348   5.598   1.340   2.971  0.3019  1.0366 -0.6453
18619TIP3    H277349   5.536   1.440   3.067  0.4445 -0.1984  0.7719
18620TIP3   OH277350   2.890   2.179  12.889 -0.2157  0.2497 -0.2441
18620TIP3    H177351   2.968   2.192  12.944 -0.8648 -0.8306  0.9897
18620TIP3    H277352   2.817   2.178  12.952 -1.1518  0.4684 -1.3000
18621TIP3   OH277353   4.786   5.518  16.475  0.1187 -0.0173 -0.1201
18621TIP3    H177354   4.833   5.468  16.542  0.2256  0.5533  0.2369
18621TIP3    H277355   4.840   5.508  16.397 -0.7083 -1.8332 -0.5198
18622TIP3   OH277356   3.346   1.322   4.417 -0.0776  0.7550 -0.5566
18622TIP3    H177357   3.384   1.235   4.433  0.5931  1.0624 -0.4260
18622TIP3    H277358   3.317   1.318   4.326  1.1620  0.8148 -0.9769
18623TIP3   OH277359   1.562   0.158   2.785 -0.0583 -0.3850  0.2243
18623TIP3    H177360   1.645   0.149   2.739 -0.1426 -1.6656  0.3027
18623TIP3    H277361   1.570   0.099   2.860 -0.6526  0.2567  0.8092
18624TIP3   OH277362   3.274   3.436  12.915  0.0623 -0.3740 -0.2636
18624TIP3    H177363   3.226   3.515  12.891  0.2300 -0.8640 -2.3342
18624TIP3    H277364   3.300   3.397  12.832 -0.4802 -2.9062  0.6716
18625TIP3   OH277365   1.324   5.762   2.085 -0.1065 -0.0801  0.0952
18625TIP3    H177366   1.241   5.783   2.128 -0.1279  0.1227 -0.0457
18625TIP3    H277367   1.318   5.803   1.999  0.1477 -0.0455  0.0925
18626TIP3   OH277368   0.455   3.035  14.764  0.1284  0.5692 -0.0213
18626TIP3    H177369   0.507   2.955  14.770  1.2486  1.3251  0.6216
18626TIP3    H277370   0.386   3.014  14.700  1.3871 -0.3622 -1.1293
18627TIP3   OH277371   0.587   5.970  10.713 -0.2116 -0.5312  0.0102
18627TIP3    H177372   0.537   5.891  10.694  0.1062 -0.3383 -1.8747
18627TIP3    H277373   0.592   6.016  10.629  0.5567  0.9460  0.8128
18628TIP3   OH277374   4.379   4.369   4.974 -0.3766  0.5565 -0.4537
18628TIP3    H177375   4.454   4.327   4.931  0.7098 -0.4014  2.1675
18628TIP3    H277376   4.391   4.462   4.957  1.2369  0.3892 -0.4079
18629TIP3   OH277377   4.429   3.118   4.632 -0.0559 -0.3750  0.2037
18629TIP3    H177378   4.419   3.106   4.538  1.4321 -0.3481  0.0337
18629TIP3    H277379   4.475   3.201   4.642  0.3976 -0.7062  0.9293
18630TIP3   OH277380   1.926   2.789  13.529 -0.1560 -0.7407 -0.2715
18630TIP3    H177381   1.916   2.868  13.476  1.8431 -0.0584  0.2523
18630TIP3    H277382   1.862   2.799  13.599  0.4999  0.7997  0.1618
18631TIP3   OH277383   1.859   4.132   2.341  0.1785  0.1391  0.1395
18631TIP3    H177384   1.922   4.129   2.268 -0.3094  0.0579 -0.2870
18631TIP3    H277385   1.910   4.165   2.415  0.9268 -0.6403  0.0026
18632TIP3   OH277386   5.681   2.349   5.205 -0.1235  0.3656 -0.1522
18632TIP3    H177387   5.750   2.318   5.147  0.1194  0.6685 -0.0310
18632TIP3    H277388   5.699   2.443   5.216  0.4772  0.1157  1.2704
18633TIP3   OH277389   3.457   5.999  11.358  0.2015 -0.4702  0.5141
18633TIP3    H177390   3.372   5.956  11.367  0.4027 -1.3722 -1.4512
18633TIP3    H277391   3.436   6.091  11.338 -0.2948 -0.6222  0.3350
18634TIP3   OH277392   6.570   4.423  15.082  0.3995  0.3418 -0.3080
18634TIP3    H177393   6.547   4.339  15.123  1.6479  1.0177  1.9286
18634TIP3    H277394   6.510   4.486  15.122  0.1865  0.6910 -1.1718
18635TIP3   OH277395   5.459   1.111  13.834  0.8874 -0.0421  0.0426
18635TIP3    H177396   5.522   1.132  13.766  0.7635  1.2172  0.2897
18635TIP3    H277397   5.405   1.190  13.842  0.1958 -0.5736  0.8246
18636TIP3   OH277398   2.535   6.138  11.983 -0.6357 -0.8079  0.1353
18636TIP3    H177399   2.605   6.190  12.023  0.3168 -2.5753  0.9028
18636TIP3    H277400   2.578   6.058  11.954 -2.3409 -2.0153  0.7481
18637TIP3   OH277401   5.984   4.553  13.264 -0.3170  0.6873 -0.0275
18637TIP3    H177402   5.951   4.610  13.333 -0.5335 -0.9101  1.2334
18637TIP3    H277403   6.077   4.573  13.259  0.4551 -1.4460  3.1225
18638TIP3   OH277404   4.043   3.133  11.005  0.1590 -0.4359  0.1303
18638TIP3    H177405   4.081   3.146  10.918 -1.1546  0.5043 -0.3294
18638TIP3    H277406   4.113   3.159  11.065  1.0576 -1.0217 -0.6271
18639TIP3   OH277407   3.731   2.399  12.959  0.2428  0.9124  0.2878
18639TIP3    H177408   3.768   2.311  12.966  1.3515  1.3918  0.6526
18639TIP3    H277409   3.751   2.440  13.043 -1.9928  0.8934  0.9082
18640TIP3   OH277410   2.681   1.010   0.173  0.0103 -0.5355 -0.5605
18640TIP3    H177411   2.771   0.980   0.182 -0.9531 -3.3014  1.2011
18640TIP3    H277412   2.653   0.977   0.088  0.2288 -1.0382 -0.4430
18641TIP3   OH277413   4.483   0.820  12.729 -0.1643  0.0023  1.3215
18641TIP3    H177414   4.485   0.915  12.735  1.9454  0.0294  0.8806
18641TIP3    H277415   4.410   0.801  12.671  0.3164  1.4445  0.2036
18642TIP3   OH277416   3.327   6.011   3.574 -0.2324  0.1098  0.2895
18642TIP3    H177417   3.359   6.076   3.512  0.2526 -1.0902 -0.7408
18642TIP3    H277418   3.334   6.055   3.659 -0.4917  1.6128 -0.4246
18643TIP3   OH277419   6.680   4.469  12.573 -0.0747  0.3028 -0.4364
18643TIP3    H177420   6.599   4.498  12.532 -0.6340  0.6573  0.8465
18643TIP3    H277421   6.658   4.463  12.666  0.4084 -2.8406 -0.4158
18644TIP3   OH277422   0.645   1.435   3.375  0.0170 -1.0801 -0.0536
18644TIP3    H177423   0.690   1.403   3.297  0.4198 -1.2752  0.2508
18644TIP3    H277424   0.577   1.369   3.392  0.4686 -1.4768  0.2373
18645TIP3   OH277425   0.618   4.831   0.880  0.3544 -0.1828 -0.1090
18645TIP3    H177426   0.686   4.804   0.942 -0.7563 -1.2227  0.6950
18645TIP3    H277427   0.558   4.885   0.930  0.1379  0.0621 -0.6178
18646TIP3   OH277428   3.731   4.563   3.263  0.7750  0.0514  0.1308
18646TIP3    H177429   3.759   4.491   3.319  0.0092 -1.2277 -1.0752
18646TIP3    H277430   3.723   4.524   3.176 -0.5412  1.3852 -0.3790
18647TIP3   OH277431   4.892   3.568   1.494  0.7002 -0.5487 -0.0093
18647TIP3    H177432   4.972   3.578   1.546  0.4133  0.5283  0.2503
18647TIP3    H277433   4.823   3.603   1.550 -0.1342 -2.3595  0.1639
18648TIP3   OH277434   3.340   6.267   3.353  0.2600 -0.0290 -0.7207
18648TIP3    H177435   3.265   6.325   3.358 -0.0416 -0.4736  0.2561
18648TIP3    H277436   3.391   6.287   3.432  0.6273 -0.4363 -0.8510
18649TIP3   OH277437   1.362   1.678  15.491  0.2085  0.1249  0.0358
18649TIP3    H177438   1.337   1.630  15.570  1.6211  0.3663  0.6722
18649TIP3    H277439   1.291   1.662  15.429  0.0829 -1.8551  0.6178
18650TIP3   OH277440   2.147   5.414   3.686  0.2012 -0.6141  0.0647
18650TIP3    H177441   2.153   5.484   3.622  2.0304 -1.5164 -0.8430
18650TIP3    H277442   2.056   5.383   3.680 -0.1421  0.5085 -0.7581
18651TIP3   OH277443   5.913   2.473   2.061 -0.3716  0.2460  0.1089
18651TIP3    H177444   5.892   2.436   1.975 -2.9874 -1.0090  1.1866
18651TIP3    H277445   5.951   2.401   2.110  0.4578  0.7733  0.2705
18652TIP3   OH277446   2.175   5.129   5.725 -0.4887 -0.0370 -0.2626
18652TIP3    H177447   2.136   5.071   5.660  0.0979 -0.3047 -0.3822
18652TIP3    H277448   2.244   5.077   5.766 -0.0451  0.5283 -0.2728
18653TIP3   OH277449   1.184   3.285   0.737 -0.0041 -0.2360 -0.1329
18653TIP3    H177450   1.133   3.232   0.798  0.9450 -0.9075  0.1085
18653TIP3    H277451   1.213   3.223   0.670 -0.4761  0.3645 -0.9181
18654TIP3   OH277452   1.912   3.186  12.082 -0.4338  0.1832  0.3917
18654TIP3    H177453   1.887   3.144  12.164  0.4855 -1.7691 -0.2812
18654TIP3    H277454   1.852   3.148  12.017 -1.2263  1.7865  0.1272
18655TIP3   OH277455   2.489   4.999  13.337 -0.0651 -0.0764 -0.7353
18655TIP3    H177456   2.494   4.930  13.404  0.4601  1.0733  0.4461
18655TIP3    H277457   2.574   4.996  13.293 -0.1252 -0.3200 -0.8402
18656TIP3   OH277458   4.805   4.101   3.264 -0.1110  0.2036 -0.3461
18656TIP3    H177459   4.801   4.123   3.171 -1.3807  0.9720 -0.1278
18656TIP3    H277460   4.759   4.017   3.270  0.7599 -0.2970 -0.5283
18657TIP3   OH277461   2.398   1.557   4.753 -0.1538  0.2814 -0.0580
18657TIP3    H177462   2.394   1.520   4.841  2.3308  1.2760  0.5639
18657TIP3    H277463   2.312   1.596   4.739 -1.0823 -1.1534  1.3139
18658TIP3   OH277464   0.305   0.730   0.672 -0.3718  0.3998 -0.5415
18658TIP3    H177465   0.267   0.784   0.602  0.2815  0.9773 -0.4685
18658TIP3    H277466   0.397   0.757   0.675 -0.1991 -0.2222 -0.0188
18659TIP3   OH277467   1.694   5.293   1.981  0.0311 -0.6421 -0.2981
18659TIP3    H177468   1.723   5.376   2.019  0.5776 -0.0827 -1.8748
18659TIP3    H277469   1.672   5.239   2.057  1.8843  0.1318  0.8780
18660TIP3   OH277470   0.429   0.898  16.579 -0.0839  0.2292 -0.2414
18660TIP3    H177471   0.406   0.958  16.508  0.7595  1.1401  0.2282
18660TIP3    H277472   0.483   0.950  16.638  1.5525 -1.2536 -0.3235
18661TIP3   OH277473   3.126   4.040  12.815 -0.0400  0.2813  0.1290
18661TIP3    H177474   3.179   4.115  12.788  0.3138  0.3558  0.9952
18661TIP3    H277475   3.125   4.045  12.911 -0.7476 -0.3193  0.1591
18662TIP3   OH277476   5.782   6.456  15.460  0.4113  0.4590  0.4797
18662TIP3    H177477   5.820   6.430  15.544 -1.4202  1.0486  1.5431
18662TIP3    H277478   5.693   6.420  15.462  0.1506  0.9736 -0.9676
18663TIP3   OH277479   3.284   4.211  14.507  0.2984 -0.2584 -0.1230
18663TIP3    H177480   3.217   4.243  14.447  1.1121  0.6842 -0.5495
18663TIP3    H277481   3.234   4.163  14.574 -0.6979 -0.5047 -1.0074
18664TIP3   OH277482   0.706   1.231  14.240  0.1642  0.0457 -0.1036
18664TIP3    H177483   0.673   1.287  14.169  0.8972  0.5414 -0.0581
18664TIP3    H277484   0.644   1.158  14.243 -1.6147  1.5177  0.7300
18665TIP3   OH277485   6.061   4.255   0.999 -0.4806 -0.1270  0.0378
18665TIP3    H177486   6.046   4.346   0.974  0.3699 -0.0924 -0.3684
18665TIP3    H277487   6.012   4.204   0.935 -0.8802  0.0335  0.2100
18666TIP3   OH277488   4.173   1.734   4.515 -0.0305  0.1284  0.0527
18666TIP3    H177489   4.097   1.738   4.574 -0.3297 -1.5051 -0.1711
18666TIP3    H277490   4.140   1.691   4.437  1.5847 -2.7549  0.8139
18667TIP3   OH277491   6.284   1.470  13.510 -0.7807  0.2360 -0.2839
18667TIP3    H177492   6.253   1.417  13.436  0.1628 -0.1919 -0.3788
18667TIP3    H277493   6.240   1.554  13.498 -1.9819 -0.3801 -0.3607
18668TIP3   OH277494   3.995   3.860  15.820  0.1511 -0.6095 -0.8078
18668TIP3    H177495   3.933   3.819  15.759 -0.2957  0.3617 -1.0317
18668TIP3    H277496   4.063   3.898  15.764 -0.3291  0.3994 -0.7446
18669TIP3   OH277497   5.868   0.923  16.427  0.1252  0.0060 -0.2513
18669TIP3    H177498   5.926   0.877  16.489  0.2580  1.3964  0.6942
18669TIP3    H277499   5.895   0.890  16.341  0.0882 -1.7978  0.3797
18670TIP3   OH277500   5.478   6.508   5.027  0.0101  0.0218  0.0448
18670TIP3    H177501   5.468   6.416   5.003 -1.1538 -0.1811  1.2154
18670TIP3    H277502   5.531   6.506   5.107  0.3525  0.4054 -0.1690
18671TIP3   OH277503   1.369   3.337   1.910  0.1970  0.2165  0.0396
18671TIP3    H177504   1.382   3.429   1.888 -1.3299  0.3678 -0.3161
18671TIP3    H277505   1.368   3.336   2.006  1.5983  0.3476  0.0670
18672TIP3   OH277506   4.276   2.341   4.655  0.0021 -0.5052 -0.2516
18672TIP3    H177507   4.228   2.330   4.573 -1.8325 -0.5295  0.7605
18672TIP3    H277508   4.215   2.388   4.712  0.4395 -2.1537  1.7060
18673TIP3   OH277509   0.607   6.605  12.223  0.2649  0.5986  0.7328
18673TIP3    H177510   0.600   6.510  12.227 -0.0260  0.6217  0.8112
18673TIP3    H277511   0.613   6.632  12.315  0.6934  0.6315  0.6960
18674TIP3   OH277512   2.868   2.844  16.280 -0.3617 -0.3142 -0.6845
18674TIP3    H177513   2.851   2.824  16.188 -0.7921 -1.4283 -0.3853
18674TIP3    H277514   2.859   2.939  16.286  0.6295 -0.1080 -1.9764
18675TIP3   OH277515   0.549   2.105  11.375 -0.4611  0.8846  0.1370
18675TIP3    H177516   0.618   2.043  11.400 -2.5732 -1.2112  1.1813
18675TIP3    H277517   0.572   2.186  11.421  1.1347  0.1683  0.6678
18676TIP3   OH277518   2.388   2.256  14.342 -0.0577 -0.3084  0.3266
18676TIP3    H177519   2.357   2.181  14.393  0.5668 -1.6959 -1.2536
18676TIP3    H277520   2.482   2.258  14.359 -0.4236  2.0818  2.7809
18677TIP3   OH277521   5.503   4.687   2.925  0.0066  0.2280  0.3582
18677TIP3    H177522   5.562   4.725   2.990  2.0906  3.0837 -2.7994
18677TIP3    H277523   5.430   4.749   2.920  0.7085  1.0162 -1.0257
18678TIP3   OH277524   3.070   3.096  14.255 -0.8237  0.0320  0.4331
18678TIP3    H177525   3.008   3.034  14.294  0.8102 -1.8592  0.1672
18678TIP3    H277526   3.156   3.057  14.271  0.3083  2.3996  0.4848
18679TIP3   OH277527   6.699   4.586   0.624  0.0942  0.1830  0.1290
18679TIP3    H177528   6.794   4.583   0.618  0.0734 -2.2613  0.3080
18679TIP3    H277529   6.669   4.596   0.533  0.5081 -0.5964 -0.1015
18680TIP3   OH277530   2.598   5.724  10.624  0.6635 -0.0457 -0.4086
18680TIP3    H177531   2.522   5.725  10.566  0.5127  1.6178 -0.2493
18680TIP3    H277532   2.662   5.668  10.580 -0.7695 -1.8009 -0.3442
18681TIP3   OH277533   3.444   4.500   1.215  0.3384  0.0932 -1.3357
18681TIP3    H177534   3.383   4.427   1.223  0.3441  0.2098 -0.0519
18681TIP3    H277535   3.389   4.578   1.215  0.4026  0.1432 -1.6794
18682TIP3   OH277536   6.109   0.723   3.087  0.4300 -0.1306 -0.2471
18682TIP3    H177537   6.122   0.699   3.179 -0.2786 -2.1065 -0.6128
18682TIP3    H277538   6.191   0.765   3.061  0.3473  1.2052  1.4734
18683TIP3   OH277539   4.621   6.276  11.152 -0.3616  0.4772  0.4400
18683TIP3    H177540   4.605   6.194  11.105 -0.8687 -0.1616  1.6929
18683TIP3    H277541   4.535   6.301  11.187  0.0302  0.8470  1.1559
18684TIP3   OH277542   0.690   1.049  13.912 -0.7036 -0.0253 -0.2163
18684TIP3    H177543   0.683   0.954  13.905  0.3961 -0.2459  1.2615
18684TIP3    H277544   0.603   1.081  13.886 -1.6321 -1.5346  0.8651
18685TIP3   OH277545   2.789   5.882   0.884  0.4270  0.0739 -0.3508
18685TIP3    H177546   2.709   5.866   0.934 -0.9288 -0.5767 -2.5894
18685TIP3    H277547   2.841   5.802   0.895 -0.8946 -1.0427 -1.7398
18686TIP3   OH277548   5.976   3.064  13.739  0.4969 -0.6315  0.3180
18686TIP3    H177549   6.023   3.129  13.792 -1.5860  1.4008 -0.1770
18686TIP3    H277550   5.890   3.103  13.724 -0.2287 -2.7522 -1.5355
18687TIP3   OH277551   4.052   3.261  13.979 -0.2664  0.0882 -0.1383
18687TIP3    H177552   4.098   3.337  13.943  0.3024 -0.2345 -0.1051
18687TIP3    H277553   4.000   3.228  13.906  0.0694  0.0659 -0.3722
18688TIP3   OH277554   1.763   2.353   2.687  0.0340 -0.0370 -0.2881
18688TIP3    H177555   1.712   2.390   2.615  2.9017  1.5044 -1.7508
18688TIP3    H277556   1.830   2.300   2.644  0.9303 -0.2987  1.3410
18689TIP3   OH277557   4.275   4.624   3.465 -0.0461 -0.1033 -0.3489
18689TIP3    H177558   4.211   4.695   3.457  1.3595  1.2325 -0.1614
18689TIP3    H277559   4.360   4.668   3.464  0.8937 -1.8409 -0.7817
18690TIP3   OH277560   4.893   3.849   2.233 -0.0672 -0.2129  0.2286
18690TIP3    H177561   4.965   3.911   2.221  1.4489 -1.5597  1.9551
18690TIP3    H277562   4.879   3.811   2.146 -0.2216  1.6142 -0.6007
18691TIP3   OH277563   5.381   5.502   2.190 -0.9773  0.7046 -0.1265
18691TIP3    H177564   5.336   5.426   2.227 -1.2001 -0.1392 -2.0110
18691TIP3    H277565   5.455   5.465   2.141 -1.2117  1.6578 -1.2485
18692TIP3   OH277566   0.719   2.398  15.713  0.1959  0.1023  0.3264
18692TIP3    H177567   0.661   2.377  15.787  0.2259 -0.0581  0.3048
18692TIP3    H277568   0.677   2.473  15.671 -0.0074 -0.0224  0.3018
18693TIP3   OH277569   4.281   0.481  12.699 -0.0822  0.2504 -0.0298
18693TIP3    H177570   4.289   0.564  12.746  1.0730  1.0531 -1.5491
18693TIP3    H277571   4.189   0.456  12.711 -0.1856  1.1536  1.3895
18694TIP3   OH277572   4.284   6.518   3.711 -0.1185 -0.7062  0.3484
18694TIP3    H177573   4.312   6.526   3.802  2.4313  1.2443 -0.5047
18694TIP3    H277574   4.255   6.607   3.687 -0.9593 -1.2348 -0.6924
18695TIP3   OH277575   4.776   5.805   2.883  0.1700 -0.3784  0.9332
18695TIP3    H177576   4.705   5.856   2.924 -0.3278  0.5269 -0.9590
18695TIP3    H277577   4.854   5.859   2.897 -0.0966  0.2055  0.2190
18696TIP3   OH277578   1.924   4.785  15.523 -0.2618  0.2119 -0.3692
18696TIP3    H177579   1.861   4.813  15.589  1.0134  2.3684  0.0244
18696TIP3    H277580   1.976   4.718  15.567 -0.1623  0.8013  0.4363
18697TIP3   OH277581   5.833   3.069  12.362 -0.3904 -0.0811 -0.0253
18697TIP3    H177582   5.805   3.013  12.290  1.7046 -0.0548 -0.9502
18697TIP3    H277583   5.924   3.042  12.379 -0.1013  1.4544  1.0736
18698TIP3   OH277584   4.502   1.080   4.532  0.9127 -1.2389 -0.3338
18698TIP3    H177585   4.564   1.012   4.506  4.0415  1.5650 -1.0140
18698TIP3    H277586   4.510   1.147   4.464 -1.4224  0.1830  0.6541
18699TIP3   OH277587   4.012   2.635   3.621  0.0379 -0.0618  0.7661
18699TIP3    H177588   3.970   2.721   3.614 -0.3649 -0.1874  1.6278
18699TIP3    H277589   3.946   2.573   3.590  0.0100 -0.1441  0.9885
18700TIP3   OH277590   6.862   0.521  13.739  0.2807 -0.1395 -0.0950
18700TIP3    H177591   6.837   0.475  13.658  0.4267 -1.8399  0.7685
18700TIP3    H277592   6.901   0.453  13.793 -0.4430  0.7963  1.6923
18701TIP3   OH277593   5.027   1.502  12.613 -0.5867 -0.1222  0.1385
18701TIP3    H177594   5.006   1.417  12.651 -0.4419  0.0228  0.5476
18701TIP3    H277595   4.945   1.533  12.575 -0.6557 -0.4137  0.0474
18702TIP3   OH277596   5.248   0.102  11.580 -0.4533  0.4327  0.1052
18702TIP3    H177597   5.340   0.078  11.586 -0.6478 -0.1663  0.9704
18702TIP3    H277598   5.201   0.018  11.579 -1.0392  0.7367  0.8320
18703TIP3   OH277599   1.781   1.698  13.706  0.2002 -0.3782  0.3366
18703TIP3    H177600   1.698   1.704  13.659  1.1948 -1.5166 -1.6915
18703TIP3    H277601   1.772   1.761  13.778 -2.6482 -0.9667  0.6237
18704TIP3   OH277602   4.236   1.265  15.586 -0.1924 -0.4279  0.0903
18704TIP3    H177603   4.181   1.324  15.639  0.3248  0.9316 -0.8178
18704TIP3    H277604   4.295   1.225  15.649  1.5885  2.4584  0.4633
18705TIP3   OH277605   3.708   5.219  16.703  0.0733 -0.5708  0.4960
18705TIP3    H177606   3.800   5.244  16.708 -0.0608  0.2253 -0.5092
18705TIP3    H277607   3.666   5.293  16.659 -0.7805 -1.5550 -0.4052
18706TIP3   OH277608   4.581   4.878  13.414  0.1168  0.7033 -0.0920
18706TIP3    H177609   4.642   4.942  13.451  1.8580  0.3793 -2.2404
18706TIP3    H277610   4.611   4.866  13.324  0.3175 -3.6116  0.3642
18707TIP3   OH277611   2.593   4.957  13.666  0.4116  0.1948 -0.1097
18707TIP3    H177612   2.595   5.010  13.745  1.0258  0.7490 -0.4875
18707TIP3    H277613   2.638   4.876  13.689  1.5730  0.8009 -0.1962
18708TIP3   OH277614   0.550   3.965  15.454  0.5995  0.6901  0.8111
18708TIP3    H177615   0.532   4.057  15.476 -0.0856  1.0386 -1.0615
18708TIP3    H277616   0.625   3.969  15.395  0.9670 -0.0242  1.2168
18709TIP3   OH277617   0.117   2.306  13.456  0.0861 -0.2235 -0.3348
18709TIP3    H177618   0.050   2.373  13.439 -1.6300 -1.4340  1.3268
18709TIP3    H277619   0.078   2.224  13.424  0.2075 -1.1560  1.7846
18710TIP3   OH277620   3.997   2.445   4.780  0.2668 -0.1436 -0.0336
18710TIP3    H177621   3.954   2.391   4.714  1.3281 -1.3981  0.2572
18710TIP3    H277622   4.006   2.531   4.739  0.6571 -0.8274 -1.4116
18711TIP3   OH277623   0.375   2.561  14.377 -0.0385 -0.0361 -0.6718
18711TIP3    H177624   0.464   2.557  14.344  1.0558  2.0343  1.6984
18711TIP3    H277625   0.322   2.519  14.309  2.7130 -1.4722 -2.0813
18712TIP3   OH277626   0.350   5.506   1.682  0.9274 -0.5983  0.7558
18712TIP3    H177627   0.424   5.558   1.650  1.3563 -2.1815 -0.9902
18712TIP3    H277628   0.306   5.476   1.602  0.0418 -1.9649  1.7263
18713TIP3   OH277629   6.183   1.284  15.194  0.2703  0.4414  0.0541
18713TIP3    H177630   6.216   1.297  15.283  1.6185 -0.7547 -0.2364
18713TIP3    H277631   6.261   1.284  15.138 -0.6104  1.9086 -1.2634
18714TIP3   OH277632   3.208   3.020  12.872 -0.0966 -0.1581  0.4321
18714TIP3    H177633   3.171   3.093  12.823  0.8784 -0.1199 -0.2691
18714TIP3    H277634   3.219   3.054  12.961  1.7890  1.1034 -0.2203
18715TIP3   OH277635   3.154   3.652   0.571  0.6485 -0.2057 -0.0035
18715TIP3    H177636   3.098   3.576   0.586  1.5776 -0.9353 -0.1309
18715TIP3    H277637   3.217   3.650   0.644  0.3167  0.7901  0.3275
18716TIP3   OH277638   5.708   0.426   4.667 -0.4472  0.3294 -0.1832
18716TIP3    H177639   5.717   0.515   4.702  0.0491  0.3543 -0.3648
18716TIP3    H277640   5.688   0.372   4.744  0.6280  0.3836  0.1560
18717TIP3   OH277641   3.518   6.679  14.436 -0.1242 -0.6654  0.0021
18717TIP3    H177642   3.518   6.687  14.340 -0.9170 -1.8393 -0.1175
18717TIP3    H277643   3.560   6.759  14.466  2.3179 -1.3117 -1.4081
18718TIP3   OH277644   4.335   3.506   0.272 -0.3717 -0.1578 -0.1667
18718TIP3    H177645   4.325   3.596   0.302 -1.1431  0.0794 -1.0866
18718TIP3    H277646   4.297   3.453   0.343 -1.3914  0.3416 -0.3238
18719TIP3   OH277647   2.877   5.391  13.755 -0.0299  0.1073  0.2609
18719TIP3    H177648   2.920   5.393  13.669 -1.6531 -1.9240 -0.6816
18719TIP3    H277649   2.819   5.467  13.754  0.2430  0.3151 -0.2874
18720TIP3   OH277650   6.180   0.360  10.672  0.1513 -0.0606 -0.2535
18720TIP3    H177651   6.195   0.382  10.580  2.3409 -0.0067  0.0844
18720TIP3    H277652   6.199   0.441  10.720  1.7807 -0.8201  0.4510
18721TIP3   OH277653   6.015   0.935  11.709  0.3773 -0.2159 -0.9287
18721TIP3    H177654   6.000   0.996  11.637 -0.3135  0.8372  0.0569
18721TIP3    H277655   5.928   0.905  11.733  0.2800  1.4880  1.1343
18722TIP3   OH277656   4.757   4.521   1.450 -0.0349 -0.0998  0.0191
18722TIP3    H177657   4.734   4.613   1.435 -2.1743 -0.4577  0.7017
18722TIP3    H277658   4.739   4.478   1.366 -0.6713 -0.1563  0.1780
18723TIP3   OH277659   6.201   1.268   2.638  0.6699 -0.2943  0.1420
18723TIP3    H177660   6.173   1.347   2.591  0.3078 -0.3452  0.2768
18723TIP3    H277661   6.197   1.198   2.572  1.7192 -0.0731 -0.1896
18724TIP3   OH277662   1.056   6.747   3.239 -0.2194  0.0780 -0.0706
18724TIP3    H177663   1.006   6.809   3.293 -1.3559 -0.9748  0.1422
18724TIP3    H277664   1.004   6.667   3.242  0.5070 -0.4655 -1.4865
18725TIP3   OH277665   4.604   3.696   5.546  0.5132 -0.0782 -0.2268
18725TIP3    H177666   4.592   3.638   5.621  0.2018 -0.8616 -0.8744
18725TIP3    H277667   4.613   3.783   5.585 -0.4176 -0.3692  0.6828
18726TIP3   OH277668   4.602   1.297   0.492 -0.6510 -0.0727 -0.2288
18726TIP3    H177669   4.697   1.302   0.489 -0.6927  1.2124  0.0993
18726TIP3    H277670   4.574   1.317   0.403 -0.6091 -1.4575 -0.5845
18727TIP3   OH277671   5.250   1.822  14.776 -0.5535  0.2687  0.8515
18727TIP3    H177672   5.316   1.752  14.779 -1.7225 -1.0022 -0.9380
18727TIP3    H277673   5.169   1.779  14.803 -1.8948  0.0378 -2.9429
18728TIP3   OH277674   4.504   0.663   5.919  0.3382  0.1808 -0.4851
18728TIP3    H177675   4.419   0.705   5.936 -0.3651 -1.5850  0.6821
18728TIP3    H277676   4.563   0.700   5.984  0.6674  1.8499 -1.6716
18729TIP3   OH277677   5.747   5.609   2.732 -0.0619  0.0538 -0.5128
18729TIP3    H177678   5.693   5.687   2.720  1.8736  1.6368  0.5187
18729TIP3    H277679   5.772   5.583   2.643 -1.5866 -0.0687 -0.9292
18730TIP3   OH277680   6.069   1.134   3.576  0.6729 -0.5882 -0.0400
18730TIP3    H177681   6.074   1.051   3.528  0.2196 -2.4724  2.9600
18730TIP3    H277682   6.129   1.123   3.650  1.0341  2.0220  0.1567
18731TIP3   OH277683   5.534   2.109   3.545 -0.9605 -0.4660 -0.1078
18731TIP3    H177684   5.591   2.037   3.519  3.1990  2.4085 -0.0308
18731TIP3    H277685   5.495   2.140   3.463  0.6072 -0.2797 -0.8132
18732TIP3   OH277686   5.078   1.694  11.000  0.0839  0.0484 -0.2816
18732TIP3    H177687   5.153   1.637  11.017  1.3053  2.0003  1.4335
18732TIP3    H277688   5.087   1.718  10.907  0.3285 -1.4078 -0.6540
18733TIP3   OH277689   1.073   2.172  12.857  0.6173 -0.0790  0.3085
18733TIP3    H177690   1.126   2.236  12.905 -0.7483  2.5020 -1.3577
18733TIP3    H277691   1.122   2.157  12.776  0.4931 -0.4193  0.2975
18734TIP3   OH277692   4.318   2.769   1.471 -0.2266  0.6215 -0.7632
18734TIP3    H177693   4.372   2.726   1.537 -0.1634 -0.8721 -1.7276
18734TIP3    H277694   4.259   2.825   1.521  0.2707  0.0536  0.5085
18735TIP3   OH277695   1.342   4.339  10.701 -0.0427  0.7048 -0.3668
18735TIP3    H177696   1.248   4.324  10.686  0.0042  0.2748 -0.2632
18735TIP3    H277697   1.359   4.425  10.664 -0.2003  0.2296 -1.6026
18736TIP3   OH277698   2.235   1.985  12.093 -0.2622 -0.5620  0.3221
18736TIP3    H177699   2.220   2.071  12.133 -1.0783 -0.6880  0.3014
18736TIP3    H277700   2.162   1.932  12.123  0.3718 -1.3307  0.5300
18737TIP3   OH277701   6.294   1.630  13.774  0.0687  0.3974  0.4494
18737TIP3    H177702   6.206   1.630  13.811 -0.6160  1.0517 -1.0925
18737TIP3    H277703   6.295   1.557  13.713 -0.1826  1.6903 -1.1762
18738TIP3   OH277704   5.642   0.497  16.154 -0.0693 -0.2086  0.1066
18738TIP3    H177705   5.694   0.440  16.097 -2.1727 -2.6851  0.4654
18738TIP3    H277706   5.695   0.576  16.162  2.5322 -1.6191 -1.3671
18739TIP3   OH277707   2.035   3.087  14.075  0.3135  0.5891  0.1429
18739TIP3    H177708   2.077   3.036  14.145 -0.4797  0.9074  0.8609
18739TIP3    H277709   2.075   3.053  13.994  0.1790 -0.8039  0.6333
18740TIP3   OH277710   1.931   4.912   4.259  0.5014  0.2887 -0.1573
18740TIP3    H177711   2.016   4.918   4.216  0.9840  2.1586  0.9230
18740TIP3    H277712   1.945   4.950   4.346 -1.2381 -0.1353  0.3479
18741TIP3   OH277713   2.535   0.213  13.696 -0.0193 -0.7531  0.3693
18741TIP3    H177714   2.626   0.202  13.669 -0.2919  0.1164 -1.0169
18741TIP3    H277715   2.539   0.224  13.791  1.2086 -1.8265  0.4638
18742TIP3   OH277716   0.348   1.547   3.156  0.0047 -0.1242  0.2024
18742TIP3    H177717   0.291   1.611   3.112  0.7194  0.9024  0.7152
18742TIP3    H277718   0.316   1.544   3.246  1.0016  0.8236  0.6250
18743TIP3   OH277719   6.092   6.039   3.707 -0.2210 -0.1095  0.9831
18743TIP3    H177720   6.125   5.951   3.726  0.6280 -0.4520 -1.7117
18743TIP3    H277721   6.000   6.027   3.685 -0.0066 -0.4011  0.2308
18744TIP3   OH277722   4.551   1.379  12.449  0.0223 -0.8654  0.4347
18744TIP3    H177723   4.484   1.447  12.445 -0.3056 -1.1988  0.2395
18744TIP3    H277724   4.506   1.299  12.421  1.3032 -0.5217 -3.1170
18745TIP3   OH277725   2.481   4.973   1.546 -0.3203  0.2636  0.3122
18745TIP3    H177726   2.398   5.007   1.580  0.4003  0.8495  1.5415
18745TIP3    H277727   2.531   4.950   1.624 -0.2717 -2.5008 -0.4375
18746TIP3   OH277728   2.637   3.932  14.597  0.3484 -0.3180 -0.4378
18746TIP3    H177729   2.705   3.886  14.647  1.2512  0.6289 -0.7573
18746TIP3    H277730   2.556   3.885  14.617  0.2959  1.0271  3.3514
18747TIP3   OH277731   4.393   5.902  11.904 -0.3875 -0.3513 -0.5419
18747TIP3    H177732   4.406   5.961  11.978 -0.6074  0.4605 -1.1424
18747TIP3    H277733   4.437   5.945  11.830 -2.9270  0.5225 -1.6809
18748TIP3   OH277734   4.686   1.394  11.458  0.3131 -0.2219 -0.4358
18748TIP3    H177735   4.769   1.425  11.423  0.3468 -0.9287 -0.9905
18748TIP3    H277736   4.666   1.455  11.530  1.8544 -0.7024  0.4375
18749TIP3   OH277737   3.963   2.700   3.946 -0.2008  0.8506  0.3223
18749TIP3    H177738   4.022   2.677   4.017 -0.5914  0.9512  0.6803
18749TIP3    H277739   4.020   2.707   3.869 -0.0460 -1.1404  0.2135
18750TIP3   OH277740   3.190   5.290  12.247 -0.3317 -0.0947 -0.6230
18750TIP3    H177741   3.255   5.229  12.283  0.3968  0.3559 -1.1483
18750TIP3    H277742   3.234   5.375  12.247  0.1815 -0.2431 -3.6109
18751TIP3   OH277743   6.551   3.665   0.328  0.0316  0.0081 -0.1384
18751TIP3    H177744   6.561   3.621   0.412 -0.7614  0.2823  0.1077
18751TIP3    H277745   6.531   3.755   0.350 -0.4861  0.0164 -0.6167
18752TIP3   OH277746   4.637   0.088   4.063 -0.0305 -0.0882  0.0979
18752TIP3    H177747   4.699   0.068   3.994  0.4897 -0.0747  0.5593
18752TIP3    H277748   4.654   0.023   4.131 -0.6709 -0.2246  0.1365
18753TIP3   OH277749   3.686   0.328  12.620  0.1052  1.2879 -0.4502
18753TIP3    H177750   3.712   0.356  12.708 -0.8668 -1.1399  0.7286
18753TIP3    H277751   3.718   0.238  12.613 -2.0875  0.5066 -1.5052
18754TIP3   OH277752   1.402   5.388   2.819 -0.3143  0.0798 -0.5124
18754TIP3    H177753   1.328   5.416   2.873 -0.3131  1.9256 -1.3856
18754TIP3    H277754   1.479   5.408   2.871 -0.3514 -3.5912  1.2093
18755TIP3   OH277755   3.668   5.321   0.868  0.0848  0.0061  0.5342
18755TIP3    H177756   3.648   5.282   0.783 -0.7074  0.0300  0.7035
18755TIP3    H277757   3.741   5.269   0.902  0.3360 -0.0671 -0.1127
18756TIP3   OH277758   0.881   1.310  10.592 -0.3428 -0.2544  0.5340
18756TIP3    H177759   0.974   1.304  10.615 -0.0173  1.2027 -0.3226
18756TIP3    H277760   0.869   1.399  10.560 -2.3675  0.0822  2.0198
18757TIP3   OH277761   5.313   1.277   1.329 -0.6168 -0.1955 -0.3809
18757TIP3    H177762   5.356   1.325   1.399 -0.2156  0.5002 -1.0863
18757TIP3    H277763   5.241   1.231   1.372  0.1632 -0.4993  0.6287
18758TIP3   OH277764   1.183   0.603  11.181  0.2980  0.1615 -0.1451
18758TIP3    H177765   1.260   0.626  11.130  0.7731 -0.5472  0.2299
18758TIP3    H277766   1.132   0.545  11.124  1.3593 -1.5104  0.5226
18759TIP3   OH277767   6.762   1.278   2.160  0.4233  0.5460  0.4881
18759TIP3    H177768   6.707   1.262   2.084 -0.5877 -0.3352  1.3709
18759TIP3    H277769   6.840   1.320   2.125  0.6742 -1.2349 -1.2694
18760TIP3   OH277770   3.643   0.041   1.644  0.0837 -0.3757  0.4389
18760TIP3    H177771   3.649  -0.025   1.575 -0.0790 -3.0364  2.7757
18760TIP3    H277772   3.718   0.024   1.700  0.6635  2.2434  0.5730
18761TIP3   OH277773   1.300   0.823  10.974  0.3784  0.1529 -0.2280
18761TIP3    H177774   1.363   0.788  11.037  0.4304  0.9592  0.1826
18761TIP3    H277775   1.352   0.874  10.913  0.1362  0.7644  0.0722
18762TIP3   OH277776   1.446   4.667  15.299 -0.0505 -0.2179  0.4401
18762TIP3    H177777   1.451   4.753  15.342 -0.3119  0.5141 -0.9268
18762TIP3    H277778   1.363   4.670  15.251 -0.4733 -1.5828  1.0323
18763TIP3   OH277779   3.948   4.556   2.201  0.0782 -0.0839  0.6591
18763TIP3    H177780   3.857   4.556   2.232 -0.1684 -0.8862 -0.0240
18763TIP3    H277781   3.947   4.498   2.124  0.5432  2.3429 -1.2797
18764TIP3   OH277782   0.099   5.331  14.772 -0.3107 -0.3763 -0.3211
18764TIP3    H177783   0.061   5.318  14.858  1.0185 -0.3753  0.2871
18764TIP3    H277784   0.178   5.277  14.772 -0.0666 -0.0506 -1.3816
18765TIP3   OH277785   4.811   5.987   6.136 -0.0081 -0.1203 -0.1487
18765TIP3    H177786   4.875   5.934   6.089  0.3270  0.1595 -0.0172
18765TIP3    H277787   4.821   6.075   6.097  0.3784  0.1478  0.5434
18766TIP3   OH277788   0.874   2.866   3.686  0.1530  0.1061 -0.4441
18766TIP3    H177789   0.865   2.921   3.608 -0.2592  0.4496 -0.1577
18766TIP3    H277790   0.965   2.837   3.684  0.2135  0.3197 -0.9175
18767TIP3   OH277791   2.099   5.866  15.795  0.0098 -0.3280  0.5089
18767TIP3    H177792   2.111   5.960  15.779 -1.1579 -0.5280 -2.0036
18767TIP3    H277793   2.023   5.842  15.742  0.5457 -2.7961  0.7314
18768TIP3   OH277794   4.141   4.236   3.942  0.0459 -0.4894  0.2674
18768TIP3    H177795   4.232   4.262   3.925 -0.4832  1.4888  0.2229
18768TIP3    H277796   4.089   4.311   3.913 -1.8520 -2.6544 -2.4241
18769TIP3   OH277797   3.811   2.257   0.401 -0.1088  0.5033  0.1195
18769TIP3    H177798   3.783   2.176   0.359 -1.6749 -1.0776  3.7722
18769TIP3    H277799   3.777   2.327   0.345 -3.7196 -1.4067 -0.3489
18770TIP3   OH277800   4.411   4.290   3.845  0.6960  0.5067 -0.6578
18770TIP3    H177801   4.419   4.196   3.830  1.4146  0.4504 -0.0090
18770TIP3    H277802   4.460   4.305   3.926 -1.4787  1.0497  0.6379
18771TIP3   OH277803   6.414   1.619   4.941 -0.4308  0.2004  0.0920
18771TIP3    H177804   6.406   1.536   4.988 -0.0405  1.0366  1.7084
18771TIP3    H277805   6.452   1.595   4.857 -1.8491 -1.4445 -0.1496
18772TIP3   OH277806   0.991   4.527  14.438  0.1672  0.2500 -0.4872
18772TIP3    H177807   1.046   4.563  14.367  0.0393  0.9402 -0.2493
18772TIP3    H277808   1.053   4.486  14.498  0.1882 -1.3219 -1.5320
18773TIP3   OH277809   2.238   1.344  16.937  0.8649 -0.8859 -0.2239
18773TIP3    H177810   2.260   1.349  17.030  0.2491  0.4643 -0.1262
18773TIP3    H277811   2.144   1.361  16.933  1.1755  0.8237 -1.2046
18774TIP3   OH277812   5.087   4.808  16.916  0.1811 -0.2002  0.2097
18774TIP3    H177813   5.123   4.746  16.978  1.7834  0.4094 -0.0595
18774TIP3    H277814   5.033   4.755  16.857  2.3946 -1.5509 -0.6994
18775TIP3   OH277815   1.550   5.254   4.013  0.3280 -0.1495 -0.6408
18775TIP3    H177816   1.564   5.335   4.062 -0.5485  0.2185 -0.9870
18775TIP3    H277817   1.569   5.278   3.922  0.0401 -0.3221 -0.7484
18776TIP3   OH277818   4.412   3.355   3.148 -0.3346 -0.1399 -0.5758
18776TIP3    H177819   4.453   3.356   3.234  1.4011 -3.0380 -1.2228
18776TIP3    H277820   4.461   3.418   3.096 -0.8146  0.9679  0.2856
18777TIP3   OH277821   5.473   1.011   2.067  0.4944  0.1026  0.2659
18777TIP3    H177822   5.432   1.090   2.032  1.6456 -0.3369 -2.3196
18777TIP3    H277823   5.400   0.953   2.087 -0.2744  0.7565 -0.5568
18778TIP3   OH277824   5.990   6.046  12.888 -0.4221  0.0408 -0.0470
18778TIP3    H177825   5.975   5.955  12.913  1.0831 -0.4212 -0.7231
18778TIP3    H277826   6.079   6.047  12.854 -0.4415  1.7626 -0.1187
18779TIP3   OH277827   6.532   3.346  12.543 -0.0922 -0.0883  0.4008
18779TIP3    H177828   6.564   3.340  12.633  1.9738  2.1644 -0.1044
18779TIP3    H277829   6.531   3.255  12.513  0.6448 -0.7408  2.1893
18780TIP3   OH277830   3.347   6.156  13.272 -0.3230  0.2620 -0.2963
18780TIP3    H177831   3.325   6.209  13.196 -0.1567 -0.1360 -0.6268
18780TIP3    H277832   3.305   6.201  13.346 -0.3798  0.7188 -0.6006
18781TIP3   OH277833   6.639   1.152  13.551  0.1949 -0.0535  0.1093
18781TIP3    H177834   6.650   1.152  13.456 -1.2834  2.9723 -0.1897
18781TIP3    H277835   6.560   1.101  13.566  0.5577 -0.7337 -0.2270
18782TIP3   OH277836   0.475   3.010   4.534  0.0346  0.5679 -0.3648
18782TIP3    H177837   0.531   2.949   4.582 -2.0949 -0.4656  0.9938
18782TIP3    H277838   0.532   3.084   4.513  1.9729 -0.5808  0.5574
18783TIP3   OH277839   6.277   6.312  14.161 -0.0792  0.1996 -0.2431
18783TIP3    H177840   6.361   6.357  14.157 -0.2606  0.5895  0.2502
18783TIP3    H277841   6.219   6.373  14.205 -0.3658 -0.4666  0.3197
18784TIP3   OH277842   6.114   4.516   2.640 -0.2733  0.1472 -0.3458
18784TIP3    H177843   6.158   4.516   2.725 -0.9712 -0.4230  0.0280
18784TIP3    H277844   6.146   4.437   2.597  2.4699  1.9342 -1.9386
18785TIP3   OH277845   1.463   3.071  15.106  0.6884  0.0289  0.2530
18785TIP3    H177846   1.443   3.153  15.061 -0.0014  0.0964  0.6597
18785TIP3    H277847   1.496   3.014  15.038 -1.9054 -0.4357 -0.7349
18786TIP3   OH277848   4.367   0.317   3.623 -0.1143  0.5018  0.2079
18786TIP3    H177849   4.394   0.409   3.624 -0.7121  0.6958  1.6427
18786TIP3    H277850   4.438   0.271   3.668  0.6469  0.0813 -1.3509
18787TIP3   OH277851   5.551   4.832  10.214 -0.3092 -0.0359 -0.2402
18787TIP3    H177852   5.618   4.896  10.188 -0.5281  1.2371  2.0431
18787TIP3    H277853   5.600   4.763  10.258 -0.3257 -0.0343 -0.2197
18788TIP3   OH277854   3.163   5.953  11.346 -0.0531 -0.2601  0.4762
18788TIP3    H177855   3.073   5.928  11.368  0.0391 -2.0977 -0.9727
18788TIP3    H277856   3.153   6.018  11.277 -0.2594 -0.1352  0.6199
18789TIP3   OH277857   1.426   5.752   5.556 -0.8640  0.4170  0.0781
18789TIP3    H177858   1.338   5.728   5.585 -0.7994 -1.4257 -1.1343
18789TIP3    H277859   1.467   5.669   5.530  1.2278  1.2345  0.5689
18790TIP3   OH277860   2.548   1.009  12.819  0.2946 -0.8827  0.1988
18790TIP3    H177861   2.453   0.999  12.829  0.0795  0.7630  0.1254
18790TIP3    H277862   2.584   0.982  12.904 -0.4041  0.1476  0.8475
18791TIP3   OH277863   0.152   2.657  15.664  0.2763  0.1841 -0.3498
18791TIP3    H177864   0.178   2.730  15.607 -0.0808  0.2202 -0.4702
18791TIP3    H277865   0.067   2.631  15.631 -0.0686  0.3930  0.3522
18792TIP3   OH277866   2.994   3.593   0.873 -0.6979 -0.8550  0.2383
18792TIP3    H177867   3.077   3.633   0.901 -0.6821 -1.3300  0.9085
18792TIP3    H277868   2.929   3.663   0.883 -0.7039 -1.0279  1.5807
18793TIP3   OH277869   3.075   5.355  11.123  0.0827  0.1679  0.0274
18793TIP3    H177870   3.024   5.364  11.203 -0.4202 -0.7483 -0.1768
18793TIP3    H277871   3.150   5.414  11.135  0.3268 -0.4033  1.4058
18794TIP3   OH277872   1.291   6.585  10.475 -0.0432 -0.1824  0.5438
18794TIP3    H177873   1.276   6.492  10.490 -1.1177 -0.2842 -0.9830
18794TIP3    H277874   1.214   6.628  10.512  0.8546  0.2041  2.0359
18795TIP3   OH277875   3.326   4.440  15.841 -1.0356  0.5087  0.2214
18795TIP3    H177876   3.385   4.460  15.768  1.5609  2.8510  2.6960
18795TIP3    H277877   3.252   4.499  15.828 -0.3453  1.3053 -0.2397
18796TIP3   OH277878   2.634   2.998   1.244 -0.0760  0.2618 -0.1795
18796TIP3    H177879   2.694   3.042   1.183 -0.5224  0.3638 -0.5540
18796TIP3    H277880   2.691   2.959   1.310  0.3335  1.3414  0.1199
18797TIP3   OH277881   1.158   4.590  14.714 -0.1096 -0.2044 -0.0846
18797TIP3    H177882   1.159   4.660  14.649 -0.7379  1.6393  1.7804
18797TIP3    H277883   1.214   4.522  14.677  1.4589  1.7336 -1.5020
18798TIP3   OH277884   1.211   4.943   5.145 -0.1745 -0.0316  0.2037
18798TIP3    H177885   1.156   4.871   5.114 -2.6735  2.3007 -1.2332
18798TIP3    H277886   1.267   4.964   5.071  0.3174 -0.2650  0.5053
18799TIP3   OH277887   2.073   0.897   1.243  0.0514  0.5784  0.3292
18799TIP3    H177888   2.092   0.830   1.309 -0.2240  0.3688  0.1982
18799TIP3    H277889   2.003   0.859   1.190  0.0843  0.8582  0.0836
18800TIP3   OH277890   1.250   2.017  16.239 -0.3861  0.5035  0.5533
18800TIP3    H177891   1.299   2.001  16.159 -0.3175  0.5711  0.5816
18800TIP3    H277892   1.264   1.938  16.291  0.1683  0.7617  0.8032
18801TIP3   OH277893   5.766   2.445   1.496 -0.4670 -0.3109  0.2266
18801TIP3    H177894   5.832   2.500   1.455 -0.3711 -0.4019  0.2602
18801TIP3    H277895   5.783   2.357   1.463  0.0541 -0.5164  1.0014
18802TIP3   OH277896   2.627   2.801  16.489  0.1355  0.3161 -0.2928
18802TIP3    H177897   2.567   2.851  16.433  0.9961  0.9329 -0.6802
18802TIP3    H277898   2.656   2.729  16.433 -0.8268 -0.4504  0.1523
18803TIP3   OH277899   3.990   6.421  16.897 -0.5195 -0.2950  0.5026
18803TIP3    H177900   3.994   6.375  16.813 -0.4560  1.9618 -0.8206
18803TIP3    H277901   3.902   6.402  16.930 -0.5452 -1.2139 -0.0566
18804TIP3   OH277902   5.555   3.779   1.016 -0.1761 -0.0241  0.3926
18804TIP3    H177903   5.641   3.783   0.974 -0.0762 -0.6370  0.5282
18804TIP3    H277904   5.520   3.867   1.007 -0.0903 -0.0958 -0.8205
18805TIP3   OH277905   2.943   0.639  16.463  0.5851 -0.0285  0.5949
18805TIP3    H177906   2.873   0.699  16.490  0.5603  0.3653 -0.3136
18805TIP3    H277907   3.010   0.650  16.531  0.6609  1.1887  0.3478
18806TIP3   OH277908   0.692   2.596   0.842  0.2227 -0.7473 -0.0297
18806TIP3    H177909   0.750   2.638   0.779  0.8647  1.3403  1.8217
18806TIP3    H277910   0.725   2.624   0.928 -1.6912 -1.9730  1.1911
18807TIP3   OH277911   1.283   1.537  11.600  0.1166  0.7628 -0.4342
18807TIP3    H177912   1.326   1.475  11.542 -3.3876 -0.8995 -1.5027
18807TIP3    H277913   1.274   1.617  11.547 -3.2408 -0.7976 -2.5601
18808TIP3   OH277914   1.180   6.411  11.944  0.1798 -0.0281  0.5396
18808TIP3    H177915   1.088   6.391  11.933  0.4210  0.0860 -2.2711
18808TIP3    H277916   1.194   6.492  11.894  1.5923  0.5924  1.8374
18809TIP3   OH277917   3.665   5.498  15.043 -0.4282  0.8742 -0.4072
18809TIP3    H177918   3.734   5.563  15.056 -1.3055  1.5840  0.9340
18809TIP3    H277919   3.678   5.466  14.954  1.4720  1.1623 -0.2618
18810TIP3   OH277920   4.869   1.305  13.706 -0.0160 -0.3367 -0.5859
18810TIP3    H177921   4.882   1.288  13.799  1.4147 -1.1538 -0.9092
18810TIP3    H277922   4.826   1.227  13.672 -0.5000 -0.0571 -0.6248
18811TIP3   OH277923   2.586   6.403  13.024 -0.0724  0.4442 -0.1008
18811TIP3    H177924   2.555   6.325  13.069 -1.7662  1.1622  0.0608
18811TIP3    H277925   2.626   6.371  12.944 -3.3962 -0.4840 -1.5253
18812TIP3   OH277926   0.936   2.009  11.829 -0.0947  0.4554 -0.3946
18812TIP3    H177927   0.922   1.973  11.917  3.7327  0.0388  0.2284
18812TIP3    H277928   1.006   1.954  11.792  0.0958  2.1312 -2.7375
18813TIP3   OH277929   4.988   0.456   1.281 -0.1553 -0.2908  0.3132
18813TIP3    H177930   4.929   0.454   1.356 -2.3014 -1.2111 -1.3132
18813TIP3    H277931   5.036   0.539   1.291 -2.5568  1.1114  1.1266
18814TIP3   OH277932   3.959   1.732  13.636 -0.1358 -1.0885 -0.3802
18814TIP3    H177933   4.004   1.797  13.582 -1.0140 -0.9214 -0.9244
18814TIP3    H277934   3.887   1.702  13.582 -0.8023 -1.2040  0.5520
18815TIP3   OH277935   3.336   1.775   2.465  0.4366  0.0625 -0.1731
18815TIP3    H177936   3.251   1.814   2.447  0.1535 -0.3590  0.2504
18815TIP3    H277937   3.350   1.713   2.393 -0.3671 -1.0799  0.6195
18816TIP3   OH277938   3.357   4.259  12.616  0.4321  0.1180 -0.3153
18816TIP3    H177939   3.357   4.192  12.549 -0.4200  0.4646 -0.6663
18816TIP3    H277940   3.428   4.233  12.675  0.3255 -0.9038 -0.6184
18817TIP3   OH277941   3.635   2.065  16.321 -0.3203  0.0160  0.3540
18817TIP3    H177942   3.706   2.045  16.382 -0.3792 -0.7184  0.1872
18817TIP3    H277943   3.594   2.144  16.358  0.1689  0.0676  0.8033
18818TIP3   OH277944   3.331   5.817   5.221  0.2755  0.4162  0.1918
18818TIP3    H177945   3.268   5.846   5.287 -0.2849 -1.6696  0.6536
18818TIP3    H277946   3.346   5.894   5.167 -1.1903  1.4991  1.2353
18819TIP3   OH277947   4.647   5.490  13.019  0.0055  0.6052 -0.4077
18819TIP3    H177948   4.706   5.550  12.973  0.7229  0.4310  0.2663
18819TIP3    H277949   4.703   5.418  13.047 -0.6187  0.2138 -0.1525
18820TIP3   OH277950   4.337   2.183  16.041  0.2289 -0.1487  0.6008
18820TIP3    H177951   4.366   2.092  16.035  0.8790 -0.0085  1.4330
18820TIP3    H277952   4.276   2.194  15.968 -0.2122 -1.3890  0.7662
18821TIP3   OH277953   5.454   6.382   2.229 -0.2839  0.2628 -0.4345
18821TIP3    H177954   5.484   6.343   2.147 -2.2530 -2.2567 -0.0622
18821TIP3    H277955   5.359   6.371   2.228 -0.4524  1.1283  1.7130
18822TIP3   OH277956   0.159   3.362  16.643  0.0393  0.4898 -0.4158
18822TIP3    H177957   0.204   3.402  16.570  1.0487  0.9958  0.4554
18822TIP3    H277958   0.066   3.378  16.626  0.3594  2.4973 -0.5163
18823TIP3   OH277959   4.661   1.519  15.016 -0.0674 -0.0550 -0.0282
18823TIP3    H177960   4.593   1.478  15.071 -0.3842  0.0108 -0.3663
18823TIP3    H277961   4.612   1.571  14.952  0.3323  1.0894  0.5673
18824TIP3   OH277962   0.346   5.950   3.007  0.1308  0.4559  0.6141
18824TIP3    H177963   0.300   6.025   3.044  1.1145  1.0720  0.6473
18824TIP3    H277964   0.284   5.911   2.945  0.4785  2.8818 -1.4012
18825TIP3   OH277965   2.275   5.630   1.070 -0.5832  0.0424  0.1384
18825TIP3    H177966   2.316   5.651   1.154 -2.6288  1.2685  0.9247
18825TIP3    H277967   2.289   5.536   1.058  3.1938  0.5085 -0.1862
18826TIP3   OH277968   4.334   1.573   3.198  0.0464 -0.2229  0.1430
18826TIP3    H177969   4.252   1.612   3.165  0.4940  0.7625  0.1537
18826TIP3    H277970   4.397   1.645   3.195  1.0442 -1.0939 -0.3084
18827TIP3   OH277971   2.832   6.277  15.943 -0.2417 -0.2686 -0.2207
18827TIP3    H177972   2.809   6.185  15.927 -0.9728 -0.1782  0.2633
18827TIP3    H277973   2.876   6.276  16.028 -2.2705  0.0954  0.8994
18828TIP3   OH277974   3.464   0.974  15.620  0.0953 -0.2447  0.1504
18828TIP3    H177975   3.426   1.017  15.696  1.2735  2.2432 -0.5490
18828TIP3    H277976   3.408   1.000  15.547  0.6671 -0.1052 -0.2480
18829TIP3   OH277977   6.397   6.525   3.678 -0.1171  0.6393 -0.1461
18829TIP3    H177978   6.441   6.551   3.596 -1.1890  0.4879 -0.7884
18829TIP3    H277979   6.341   6.452   3.652 -0.1391  0.2992  0.8324
18830TIP3   OH277980   6.794   3.137  15.948 -0.6295 -0.0196 -0.5076
18830TIP3    H177981   6.883   3.169  15.964 -1.0523  1.0833 -0.3009
18830TIP3    H277982   6.784   3.064  16.009 -0.0436  0.1942 -0.1431
18831TIP3   OH277983   5.018   0.414  15.066 -1.3580 -0.1610  0.5343
18831TIP3    H177984   4.935   0.366  15.059 -1.5218  0.2885 -0.9381
18831TIP3    H277985   5.005   0.492  15.012  0.4027 -0.6284 -0.6410
18832TIP3   OH277986   2.928   2.505  11.168  0.2507 -0.1178 -0.4368
18832TIP3    H177987   2.960   2.595  11.169  0.2260 -0.1075  0.1171
18832TIP3    H277988   2.879   2.496  11.250 -1.6417  0.0349 -1.4897
18833TIP3   OH277989   5.209   0.900  11.386  0.2767 -1.0354 -0.1256
18833TIP3    H177990   5.122   0.862  11.397  0.9103 -2.3691  0.6006
18833TIP3    H277991   5.240   0.916  11.475  0.4048  0.3586 -0.4060
18834TIP3   OH277992   6.336   2.827  15.088 -0.3093  0.1933 -0.1543
18834TIP3    H177993   6.257   2.838  15.035 -0.5581  0.8914  0.3475
18834TIP3    H277994   6.353   2.732  15.087  2.2066  0.3320 -5.0896
18835TIP3   OH277995   6.079   6.012  16.613  0.0999 -0.4624  0.3690
18835TIP3    H177996   5.995   5.994  16.570  0.3917 -0.5167 -0.1939
18835TIP3    H277997   6.143   6.008  16.542  0.1642  3.2663  0.0317
18836TIP3   OH277998   2.358   4.532  15.285 -0.0271  1.0270 -0.6273
18836TIP3    H177999   2.391   4.442  15.288  0.3286  1.1487 -0.8610
18836TIP3    H278000   2.296   4.532  15.213  0.4300  1.1210 -1.0228
18837TIP3   OH278001   5.869   6.630   0.187  0.0812  0.1972 -0.0229
18837TIP3    H178002   5.801   6.658   0.249 -0.5215 -0.6008 -0.3031
18837TIP3    H278003   5.876   6.703   0.125  0.3957  0.8260  0.7283
18838TIP3   OH278004   4.825   1.804  16.522  0.6064  0.0737  0.4560
18838TIP3    H178005   4.759   1.772  16.584  1.1000 -1.1099  0.3922
18838TIP3    H278006   4.880   1.863  16.574  0.5592 -0.3182  0.9643
18839TIP3   OH278007   3.986   3.336   5.395 -0.0863  0.0611 -0.5086
18839TIP3    H178008   4.079   3.313   5.390 -0.0155  0.3744 -0.6325
18839TIP3    H278009   3.984   3.423   5.434 -0.3793 -0.3105  0.3386
18840TIP3   OH278010   2.654   1.859   0.390  0.0858 -0.4059  0.4012
18840TIP3    H178011   2.709   1.891   0.461 -0.9285  0.1418  0.9631
18840TIP3    H278012   2.630   1.938   0.341 -1.7628 -0.3474  1.3098
18841TIP3   OH278013   0.443   5.711   1.919 -0.3805 -0.1920  0.2545
18841TIP3    H178014   0.468   5.781   1.980  1.9682 -0.7506  0.0219
18841TIP3    H278015   0.494   5.729   1.840 -0.6262 -1.5098 -0.2186
18842TIP3   OH278016   4.645   6.493   2.302 -0.4054  0.0840 -0.0344
18842TIP3    H178017   4.622   6.571   2.352 -0.6867  0.4253 -0.6853
18842TIP3    H278018   4.709   6.523   2.237  1.2296 -0.6751  1.1601
18843TIP3   OH278019   6.037   6.758   5.850  0.2764  0.5648  0.6578
18843TIP3    H178020   6.086   6.681   5.879  0.3538 -0.0597 -1.0554
18843TIP3    H278021   5.968   6.768   5.916 -0.0656 -1.3027  0.6242
18844TIP3   OH278022   3.265   0.575   2.979 -0.2555 -0.5036  0.4960
18844TIP3    H178023   3.230   0.664   2.983  2.8574  0.8118  2.4286
18844TIP3    H278024   3.261   0.552   2.886 -2.6501  0.9042  0.1707
18845TIP3   OH278025   6.094   1.633  13.289 -0.2994 -0.0071 -0.4008
18845TIP3    H178026   6.105   1.653  13.383 -0.5977 -1.0319 -0.1402
18845TIP3    H278027   6.125   1.543  13.280  1.5876  0.6956 -1.6663
18846TIP3   OH278028   6.773   5.065  10.936 -0.0509 -0.1247 -0.5243
18846TIP3    H178029   6.833   5.069  10.861  0.5222 -0.0317 -0.0605
18846TIP3    H278030   6.714   4.992  10.915  0.9092 -0.9335 -0.4833
18847TIP3   OH278031   0.424   3.342  14.430  0.0240  0.5025 -0.6187
18847TIP3    H178032   0.482   3.274  14.394 -1.8002 -0.4644 -1.9069
18847TIP3    H278033   0.444   3.420  14.378  2.7299  1.3124  1.4185
18848TIP3   OH278034   5.324   3.865  14.089 -0.1958 -0.0209 -0.8093
18848TIP3    H178035   5.238   3.868  14.131  0.5853 -1.2817  1.0266
18848TIP3    H278036   5.315   3.798  14.021  0.0410 -2.5346  1.4234
18849TIP3   OH278037   1.898   4.919  15.992 -0.0507  0.0252  0.2081
18849TIP3    H178038   1.865   4.901  16.080  0.5929 -1.4452  0.1770
18849TIP3    H278039   1.980   4.871  15.987 -0.4385 -0.5385 -1.4530
18850TIP3   OH278040   0.106   6.392  11.999  0.1007 -0.0077  0.0091
18850TIP3    H178041   0.120   6.401  12.093 -1.6245  2.4086  0.1399
18850TIP3    H278042   0.033   6.330  11.992  1.0253 -1.1339  0.1658
18851TIP3   OH278043   1.054   1.016   4.423  0.3583  0.0369 -1.2006
18851TIP3    H178044   0.981   0.970   4.465  0.9360 -0.0318 -0.2458
18851TIP3    H278045   1.080   0.959   4.350 -0.9985  0.4120 -2.0245
18852TIP3   OH278046   5.420   3.027   1.016  0.2203  0.1960 -0.5952
18852TIP3    H178047   5.397   3.113   0.980  0.2168 -0.7042 -2.9282
18852TIP3    H278048   5.508   3.011   0.983  2.0626  1.0301  3.3374
18853TIP3   OH278049   0.759   5.630   0.775 -0.2082 -0.0868 -0.0851
18853TIP3    H178050   0.706   5.666   0.846  1.0274 -0.1541  0.9068
18853TIP3    H278051   0.711   5.653   0.695 -0.3199  2.3409  0.5841
18854TIP3   OH278052   0.966   6.369  12.925 -0.0693  0.5305 -0.4685
18854TIP3    H178053   0.876   6.358  12.956 -0.2240 -0.1511 -1.1311
18854TIP3    H278054   1.021   6.340  12.999 -0.4388 -1.5759 -0.9570
18855TIP3   OH278055   3.064   4.592   4.534  0.0412  0.0462 -0.3054
18855TIP3    H178056   2.996   4.553   4.479 -0.8452 -0.0212  0.7929
18855TIP3    H278057   3.021   4.606   4.619  0.7895  1.9160 -0.1752
18856TIP3   OH278058   0.824   2.986  11.602  0.1910 -0.2777  0.9102
18856TIP3    H178059   0.895   2.948  11.653  1.4704 -0.2299 -0.7318
18856TIP3    H278060   0.793   2.914  11.547 -0.0871  0.0533  0.6254
18857TIP3   OH278061   1.603   5.964   3.532 -0.5568 -0.1670 -0.1473
18857TIP3    H178062   1.527   6.003   3.575  0.4843 -0.2280  1.8891
18857TIP3    H278063   1.674   6.027   3.547  0.7169 -1.8836  1.6145
18858TIP3   OH278064   5.538   5.079  15.708  0.1302 -0.9444 -0.0154
18858TIP3    H178065   5.598   5.068  15.634  0.3732  0.7885 -0.1060
18858TIP3    H278066   5.480   5.150  15.681  1.0816  0.6882  1.9810
18859TIP3   OH278067   1.174   2.276  14.447  0.3335  0.1194 -0.6129
18859TIP3    H178068   1.176   2.293  14.541  1.0168 -0.5112 -0.5061
18859TIP3    H278069   1.155   2.362  14.408  0.4125  0.4591  0.0775
18860TIP3   OH278070   2.967   6.567   4.673 -0.2472 -0.0132  0.5678
18860TIP3    H178071   2.975   6.539   4.582  1.3308 -1.0884  1.0097
18860TIP3    H278072   2.966   6.486   4.724 -1.5170  0.5488  1.5222
18861TIP3   OH278073   2.928   1.758  13.912  0.1876  0.4578 -0.4627
18861TIP3    H178074   2.997   1.824  13.905 -0.3870  1.0709 -0.4293
18861TIP3    H278075   2.871   1.774  13.837 -0.6079  0.7772  0.1914
18862TIP3   OH278076   5.660   0.899   4.574 -0.3227 -0.4712 -0.0618
18862TIP3    H178077   5.656   0.990   4.546  1.6615 -0.4094 -0.3113
18862TIP3    H278078   5.603   0.895   4.651  1.6464  1.6761  1.6632
18863TIP3   OH278079   3.698   5.878   4.242  0.0525  0.1661 -0.7103
18863TIP3    H178080   3.662   5.965   4.228 -0.7729 -0.1673 -0.6805
18863TIP3    H278081   3.624   5.825   4.271  0.6906 -0.3803 -0.0321
18864TIP3   OH278082   4.851   0.832   4.789  0.1006  0.1289 -0.3601
18864TIP3    H178083   4.845   0.742   4.821  1.5476  0.3318  0.5638
18864TIP3    H278084   4.763   0.867   4.800 -0.0314 -0.5908  1.1005
18865TIP3   OH278085   6.659   3.887   5.179 -0.2792  0.0641 -0.4090
18865TIP3    H178086   6.743   3.928   5.200 -0.9435  1.1966  0.1335
18865TIP3    H278087   6.630   3.932   5.099 -0.6060  0.0319 -0.3088
18866TIP3   OH278088   3.253   5.326   4.695 -0.0515 -0.0104  0.0299
18866TIP3    H178089   3.268   5.319   4.601  1.2278 -0.2120  0.2259
18866TIP3    H278090   3.247   5.420   4.712  0.6084  0.0672 -0.1381
18867TIP3   OH278091   0.684   1.748  12.524  0.2638 -0.3227  0.5370
18867TIP3    H178092   0.720   1.767  12.437 -2.0939 -1.4328 -0.7674
18867TIP3    H278093   0.757   1.764  12.584  2.4354 -0.9384 -1.7706
18868TIP3   OH278094   4.819   3.648  12.104  0.5860  0.0872  0.4024
18868TIP3    H178095   4.865   3.710  12.047  1.5197 -1.4989 -0.6498
18868TIP3    H278096   4.782   3.702  12.173  1.4832  1.7957 -0.3932
18869TIP3   OH278097   0.489   0.040   5.322 -0.1215 -0.1079  0.2351
18869TIP3    H178098   0.425  -0.017   5.278  1.0576 -0.8082 -0.6330
18869TIP3    H278099   0.439   0.084   5.390 -1.6512 -0.2072 -0.7865
18870TIP3   OH278100   6.823   2.883  13.884  0.0485  0.0152  0.5197
18870TIP3    H178101   6.804   2.894  13.977 -1.0015  0.0353  0.3115
18870TIP3    H278102   6.841   2.971  13.852  1.3130 -0.0978  0.8845
18871TIP3   OH278103   2.394   4.318  16.152  0.1918 -0.3428 -0.5377
18871TIP3    H178104   2.433   4.249  16.203 -1.2435  0.4849  1.8452
18871TIP3    H278105   2.463   4.383  16.141  1.0767 -1.3933 -1.4310
18872TIP3   OH278106   4.810   2.067   4.538 -0.4274 -0.2269  0.2055
18872TIP3    H178107   4.897   2.045   4.570 -0.5947 -1.6026 -0.2429
18872TIP3    H278108   4.819   2.068   4.442 -0.8651 -0.2426  0.1586
18873TIP3   OH278109   2.408   5.703  10.828 -0.3122  0.6937 -0.8982
18873TIP3    H178110   2.344   5.756  10.780  0.0177  1.1725 -0.8131
18873TIP3    H278111   2.485   5.701  10.772  0.2379  1.6360 -0.2161
18874TIP3   OH278112   3.456   5.169   4.809 -0.3035  0.3753  0.1299
18874TIP3    H178113   3.389   5.226   4.771 -0.2481 -1.3696 -2.8846
18874TIP3    H278114   3.539   5.204   4.777 -0.2148 -0.8061 -1.0103
18875TIP3   OH278115   3.336   1.962  13.532  0.4045 -0.1886  0.6013
18875TIP3    H178116   3.408   1.988  13.590 -0.5436 -0.3708  1.8886
18875TIP3    H278117   3.277   2.037  13.534  1.4336  0.8133 -2.0296
18876TIP3   OH278118   4.512   3.838  14.871  0.3492 -0.3642  0.4805
18876TIP3    H178119   4.437   3.796  14.829  0.4450 -1.1542  1.0902
18876TIP3    H278120   4.478   3.867  14.956  0.6260 -0.3685  0.5938
18877TIP3   OH278121   2.004   5.842  13.436 -0.2832 -0.1393 -0.1457
18877TIP3    H178122   1.928   5.800  13.476  0.2522 -0.4593  0.5590
18877TIP3    H278123   2.024   5.787  13.360  0.3064 -1.0986  0.6712
18878TIP3   OH278124   4.338   5.074   3.028  0.0776  0.5472  0.1546
18878TIP3    H178125   4.371   5.004   3.084 -1.0411 -0.8344 -0.8550
18878TIP3    H278126   4.253   5.043   2.998  0.1962  1.7082 -1.5117
18879TIP3   OH278127   6.496   4.426  15.822  0.1734 -0.1786 -0.2171
18879TIP3    H178128   6.501   4.489  15.895 -0.3995  0.8811 -1.0686
18879TIP3    H278129   6.528   4.474  15.746  1.5834 -1.5376 -0.5407
18880TIP3   OH278130   4.791   0.775   0.657 -0.4331 -0.4208  0.6324
18880TIP3    H178131   4.731   0.743   0.590  0.7829 -0.3525 -0.5350
18880TIP3    H278132   4.798   0.869   0.641 -0.7903 -0.2483  1.4152
18881TIP3   OH278133   4.733   0.335  15.105 -0.4462  0.1506  0.3153
18881TIP3    H178134   4.734   0.383  15.188 -1.0196 -1.3134  1.2049
18881TIP3    H278135   4.661   0.375  15.055 -0.5647  0.5656  0.8110
18882TIP3   OH278136   4.889   4.722   3.220  0.4697  0.3883 -0.0021
18882TIP3    H178137   4.868   4.798   3.166 -0.7680 -0.0566 -0.1728
18882TIP3    H278138   4.852   4.648   3.173  0.1760 -0.1196  0.9934
18883TIP3   OH278139   6.351   3.567  15.328 -0.0097  0.4715  0.2188
18883TIP3    H178140   6.301   3.514  15.266  0.5272 -1.7703  1.5888
18883TIP3    H278141   6.293   3.640  15.350 -2.3808 -1.5141  1.0413
18884TIP3   OH278142   2.547   6.770   2.170 -0.5321  0.3620 -0.2356
18884TIP3    H178143   2.471   6.735   2.123  1.7657  1.2547 -5.3798
18884TIP3    H278144   2.594   6.692   2.201 -1.4207 -0.4568 -0.8827
18885TIP3   OH278145   6.828   3.064  11.987 -0.2685  0.1037  0.0674
18885TIP3    H178146   6.814   2.972  11.967  0.9820 -0.0295 -0.2609
18885TIP3    H278147   6.838   3.106  11.902  2.1605  0.0204  0.2628
18886TIP3   OH278148   5.811   2.999   2.114  0.4997 -0.3829 -0.4069
18886TIP3    H178149   5.767   3.030   2.194  0.2920  0.3279 -0.7883
18886TIP3    H278150   5.796   2.904   2.114 -1.7978 -0.0756 -0.9582
18887TIP3   OH278151   6.686   5.377   1.394 -0.0277  0.2244 -0.6816
18887TIP3    H178152   6.629   5.326   1.337 -0.8980 -0.5389  0.8038
18887TIP3    H278153   6.722   5.313   1.455 -1.4971  1.3600  1.5282
18888TIP3   OH278154   0.138   5.940   3.373 -0.1478 -0.3463 -0.0338
18888TIP3    H178155   0.075   6.001   3.334  1.0497  0.5393 -0.6443
18888TIP3    H278156   0.087   5.891   3.438 -1.1141  1.4041  0.5923
18889TIP3   OH278157   5.912   4.083   2.294 -0.3729 -0.5383  0.1217
18889TIP3    H178158   5.861   4.156   2.260 -0.2839 -0.1776  0.7447
18889TIP3    H278159   5.876   4.068   2.382  0.3113 -0.5476  0.4088
18890TIP3   OH278160   0.062   1.169  11.214 -0.4463  0.0362  0.0250
18890TIP3    H178161   0.042   1.076  11.215  2.1572 -0.6054 -0.0095
18890TIP3    H278162   0.106   1.185  11.297  1.7585  0.5160 -1.1569
18891TIP3   OH278163   3.546   2.933  11.217  0.3562  0.5217 -0.1018
18891TIP3    H178164   3.594   2.975  11.289  0.2132  0.6433 -0.0774
18891TIP3    H278165   3.537   3.001  11.151  2.0357 -0.0695 -0.9952
18892TIP3   OH278166   2.231   4.084  16.924  0.4887 -0.1182  0.1108
18892TIP3    H178167   2.230   4.136  17.004 -3.8462  0.4561 -0.0367
18892TIP3    H278168   2.228   3.993  16.955  0.6892  0.0313  0.5774
18893TIP3   OH278169   3.544   0.234   0.407 -0.4809 -0.1014  0.1888
18893TIP3    H178170   3.506   0.147   0.418  1.6357 -1.2271 -0.8249
18893TIP3    H278171   3.637   0.222   0.424 -0.0392  1.8577 -0.5280
18894TIP3   OH278172   4.714   4.047   2.258  0.2557 -0.0624  0.2145
18894TIP3    H178173   4.772   3.971   2.255  0.8642  0.4128 -1.7634
18894TIP3    H278174   4.755   4.107   2.320  0.7896 -0.5872  0.3716
18895TIP3   OH278175   4.082   4.750   1.047 -0.1144 -0.7626 -0.3113
18895TIP3    H178176   4.161   4.775   1.094 -0.0740 -2.6124  0.7431
18895TIP3    H278177   4.073   4.656   1.064 -2.5928 -0.6005 -0.2867
18896TIP3   OH278178   1.732   4.678  11.759 -0.2105 -0.6159  0.5161
18896TIP3    H178179   1.642   4.659  11.732 -0.4791  0.0372  0.9407
18896TIP3    H278180   1.724   4.719  11.844  0.5427 -1.2000  0.8864
18897TIP3   OH278181   2.751   3.393  16.283 -1.0475 -0.5412  0.3596
18897TIP3    H178182   2.695   3.460  16.244 -1.9085 -1.6544 -0.4070
18897TIP3    H278183   2.760   3.419  16.374 -0.0288  1.4556 -0.2554
18898TIP3   OH278184   0.680   2.100  13.176  0.0677 -0.1898 -0.0306
18898TIP3    H178185   0.635   2.026  13.218 -0.2229  0.4185  0.7360
18898TIP3    H278186   0.741   2.058  13.115  1.1404 -1.1358  1.6197
18899TIP3   OH278187   0.057   0.389  10.317  0.3916 -0.4014  0.7233
18899TIP3    H178188   0.029   0.398  10.409  0.9519  1.2128  0.7712
18899TIP3    H278189   0.144   0.428  10.315 -0.4732  1.6653 -0.8964
18900TIP3   OH278190   6.702   5.756  10.924  0.1094  0.5911  0.5492
18900TIP3    H178191   6.773   5.816  10.900  0.2492 -0.2061 -1.1610
18900TIP3    H278192   6.747   5.680  10.962  0.0876  0.5248  0.4399
18901TIP3   OH278193   3.399   0.796  12.870 -0.3187  0.4505 -0.0919
18901TIP3    H178194   3.403   0.702  12.853 -0.5750  0.2967  0.6582
18901TIP3    H278195   3.321   0.808  12.924 -1.0278  1.2681 -1.2439
18902TIP3   OH278196   3.674   3.308  13.012 -0.1324 -0.3131  0.3917
18902TIP3    H178197   3.727   3.256  13.073  0.0038 -0.7516 -0.1009
18902TIP3    H278198   3.593   3.326  13.061  1.1944  2.0328  1.9039
18903TIP3   OH278199   0.681   2.345   0.728 -0.2539 -0.0057 -0.0988
18903TIP3    H178200   0.618   2.286   0.767 -0.4416 -0.2072 -0.6946
18903TIP3    H278201   0.675   2.425   0.780  0.9048 -0.9042  1.5187
18904TIP3   OH278202   5.961   6.129   3.159 -0.6121 -0.4379  0.0890
18904TIP3    H178203   5.958   6.084   3.243 -0.4466 -0.0618  0.2986
18904TIP3    H278204   5.870   6.156   3.143 -0.8411 -1.4518 -0.3749
18905TIP3   OH278205   1.849   6.258  10.843  0.3694  0.1524 -0.0063
18905TIP3    H178206   1.807   6.177  10.871 -2.2737  1.1739 -0.6970
18905TIP3    H278207   1.906   6.283  10.916 -0.0915 -1.4117  0.9311
18906TIP3   OH278208   1.755   0.365  16.942  0.1260 -0.1754 -0.1608
18906TIP3    H178209   1.703   0.359  17.021 -1.5336 -0.6879 -1.2412
18906TIP3    H278210   1.762   0.459  16.924 -2.6159 -0.0954 -1.3151
18907TIP3   OH278211   5.797   0.801   4.288 -0.3898  0.0314 -0.3264
18907TIP3    H178212   5.728   0.743   4.256 -1.5669 -0.2972  2.4546
18907TIP3    H278213   5.759   0.889   4.282 -0.3587  0.0377 -0.4314
18908TIP3   OH278214   5.885   3.740  12.533 -0.1072 -0.2857 -0.3938
18908TIP3    H178215   5.974   3.719  12.505  0.7190 -0.5481  2.1669
18908TIP3    H278216   5.883   3.718  12.626 -2.1299  1.9875  0.2090
18909TIP3   OH278217   5.046   3.520   3.444 -0.6590 -0.0080 -0.8504
18909TIP3    H178218   5.112   3.584   3.419 -0.6158 -0.6429 -2.4816
18909TIP3    H278219   5.096   3.446   3.479 -0.5865  0.0870 -0.7555
18910TIP3   OH278220   4.647   2.174   2.559  0.2806 -0.4347  0.0656
18910TIP3    H178221   4.699   2.216   2.491 -0.8111 -0.6621 -0.9340
18910TIP3    H278222   4.651   2.235   2.633  0.8233  0.2021 -0.4740
18911TIP3   OH278223   1.457   3.284   5.830 -0.2095  0.1324 -0.1513
18911TIP3    H178224   1.427   3.370   5.858 -0.9168 -0.0259 -0.3951
18911TIP3    H278225   1.429   3.224   5.899  0.1188  0.0712 -0.0698
18912TIP3   OH278226   1.378   0.078  16.007 -0.5171 -0.1981  0.1786
18912TIP3    H178227   1.448   0.024  15.970 -1.0865 -1.1744  0.4836
18912TIP3    H278228   1.385   0.065  16.101  1.0483  2.4231  0.5352
18913TIP3   OH278229   1.308   4.369   0.512  0.2722 -0.0418 -0.3119
18913TIP3    H178230   1.345   4.447   0.554  0.5968  0.4545 -1.4784
18913TIP3    H278231   1.377   4.339   0.452 -0.0593 -0.9137 -0.2749
18914TIP3   OH278232   3.627   2.520  16.186  0.0934 -0.3269 -0.6939
18914TIP3    H178233   3.613   2.459  16.113 -0.3318 -0.0291 -0.8590
18914TIP3    H278234   3.639   2.605  16.144  0.7380 -0.2999 -0.4623
18915TIP3   OH278235   1.013   6.542   5.248  0.3885 -0.3360 -0.9356
18915TIP3    H178236   0.924   6.559   5.279  1.0945  1.3014  0.3141
18915TIP3    H278237   1.043   6.467   5.300  0.3393  0.2208 -0.0844
18916TIP3   OH278238   1.100   4.000  13.096  0.5770  0.1153 -0.5072
18916TIP3    H178239   1.178   3.976  13.145 -1.7568 -0.3229  3.4284
18916TIP3    H278240   1.096   4.095  13.102  0.1175  0.0424  0.5955
18917TIP3   OH278241   0.743   0.796   2.325  0.1139 -0.1182  0.6517
18917TIP3    H178242   0.662   0.772   2.368 -0.9553 -0.0209 -1.1838
18917TIP3    H278243   0.753   0.890   2.341  0.9280 -0.4798  2.4939
18918TIP3   OH278244   4.692   0.820   5.435  0.6496 -0.1294 -0.3328
18918TIP3    H178245   4.752   0.847   5.504  0.4336 -1.8584  0.5889
18918TIP3    H278246   4.661   0.733   5.462 -1.5442  0.2857 -1.2432
18919TIP3   OH278247   2.708   3.206  14.395 -0.0989 -0.0860  0.6925
18919TIP3    H178248   2.734   3.298  14.404 -1.9979  0.4792  0.9543
18919TIP3    H278249   2.727   3.168  14.481  0.4905  0.1097  0.6543
18920TIP3   OH278250   2.989   1.939   5.554  0.4730  0.4888 -0.0875
18920TIP3    H178251   2.966   1.935   5.462  1.0156  0.6998 -0.2388
18920TIP3    H278252   2.940   1.868   5.595  1.9019 -1.0187 -0.9103
18921TIP3   OH278253   4.693   5.950  16.371 -0.1785  0.1466  0.1954
18921TIP3    H178254   4.751   5.884  16.334 -0.2623  0.2533 -0.1356
18921TIP3    H278255   4.746   5.994  16.438  1.1956  2.2715 -2.1254
18922TIP3   OH278256   6.494   1.716   5.512 -0.3405 -0.0636 -0.1355
18922TIP3    H178257   6.435   1.791   5.516 -0.1637  0.0562  0.2062
18922TIP3    H278258   6.544   1.729   5.432  0.4433  0.7430  0.4742
18923TIP3   OH278259   6.284   6.365  14.750  0.2460 -0.5086 -0.0159
18923TIP3    H178260   6.255   6.435  14.810  0.4354 -0.0818 -0.4157
18923TIP3    H278261   6.207   6.347  14.696  0.6818  0.6044 -1.0583
18924TIP3   OH278262   3.082   0.662  13.000  0.3980  0.4346  0.5646
18924TIP3    H178263   3.061   0.661  12.907  0.4797 -0.2274  0.5521
18924TIP3    H278264   3.029   0.733  13.036 -1.9835 -1.2442  0.5512
18925TIP3   OH278265   4.579   4.713  14.823  0.3166 -0.1893 -0.7644
18925TIP3    H178266   4.545   4.791  14.867 -1.2591 -1.7699  1.0412
18925TIP3    H278267   4.603   4.654  14.895  0.1536 -1.8971 -2.0452
18926TIP3   OH278268   4.077   3.261  16.685 -0.5516 -0.0887  0.9487
18926TIP3    H178269   3.997   3.282  16.733 -1.1398 -2.2273  1.0179
18926TIP3    H278270   4.080   3.165  16.686  0.2248 -0.1686 -1.9351
18927TIP3   OH278271   4.119   6.094  11.907 -0.2478 -0.2192 -0.2546
18927TIP3    H178272   4.209   6.126  11.912  0.6962 -2.6901  0.2341
18927TIP3    H278273   4.126   5.999  11.919 -2.9209 -0.5289 -0.3334
18928TIP3   OH278274   2.297   5.187   1.438  0.4064 -0.4476  0.4715
18928TIP3    H178275   2.264   5.276   1.447 -0.3760 -0.6767 -0.0600
18928TIP3    H278276   2.393   5.197   1.435  0.4066  0.2455  1.7943
18929TIP3   OH278277   1.773   1.464   2.778  0.4010 -0.1907 -0.0830
18929TIP3    H178278   1.824   1.412   2.716  1.7984 -1.3299  1.9060
18929TIP3    H278279   1.837   1.523   2.819 -0.5664  0.8603 -0.0314
18930TIP3   OH278280   1.929   3.021   5.536  0.7391 -0.3044  0.7663
18930TIP3    H178281   1.871   2.945   5.536  0.0681  0.1907  0.0324
18930TIP3    H278282   1.879   3.090   5.581 -0.4230  0.9499 -2.2095
18931TIP3   OH278283   0.386   2.184  14.586  0.6490  0.3966 -0.0768
18931TIP3    H178284   0.329   2.211  14.658 -0.8677 -1.5816 -0.4608
18931TIP3    H278285   0.440   2.115  14.624  1.7727  1.2040 -0.1463
18932TIP3   OH278286   3.129   0.361   0.597 -0.0802  0.5060 -0.3043
18932TIP3    H178287   3.205   0.327   0.644  0.1863  1.8720  0.3071
18932TIP3    H278288   3.084   0.284   0.564 -0.1210 -0.5016  1.9683
18933TIP3   OH278289   0.873   5.677  16.550  0.1691  0.6630  0.4264
18933TIP3    H178290   0.797   5.714  16.595 -1.5208 -2.6269  0.6045
18933TIP3    H278291   0.885   5.591  16.592  0.2353 -1.4072 -3.4409
18934TIP3   OH278292   2.739   5.402  14.186 -0.6241 -0.5490  0.6021
18934TIP3    H178293   2.671   5.422  14.122 -0.3162 -0.8141  0.1950
18934TIP3    H278294   2.788   5.330  14.148 -1.0047 -1.3321  1.5554
18935TIP3   OH278295   2.607   3.855   1.142  0.2093 -0.0631 -0.2676
18935TIP3    H178296   2.608   3.809   1.226  1.0094 -0.6455 -0.5970
18935TIP3    H278297   2.632   3.789   1.077  1.9447  0.9502 -0.6768
18936TIP3   OH278298   0.585   1.030   0.600 -0.7038 -0.0694 -0.2440
18936TIP3    H178299   0.663   1.066   0.558 -1.4511 -0.5529 -2.1834
18936TIP3    H278300   0.519   1.099   0.590 -1.4303 -0.9200 -1.6942
18937TIP3   OH278301   4.390   0.512   1.195 -0.4524  0.3008 -0.8632
18937TIP3    H178302   4.473   0.480   1.229 -0.5596  0.4123 -0.4996
18937TIP3    H278303   4.405   0.605   1.176 -0.8097  0.5924  0.2289
18938TIP3   OH278304   6.082   1.477  14.759  0.0175  0.4204 -1.1148
18938TIP3    H178305   6.162   1.440  14.720  0.3534 -0.5719  0.4215
18938TIP3    H278306   6.107   1.567  14.782  0.9950 -0.1072  0.0486
18939TIP3   OH278307   2.469   2.156   2.990  0.1032 -0.3755 -0.1032
18939TIP3    H178308   2.525   2.089   2.950  1.5090 -0.5587  2.0232
18939TIP3    H278309   2.514   2.239   2.972  0.4529 -0.4056  0.6294
18940TIP3   OH278310   3.004   6.788  15.981 -0.3678  0.4980  0.6428
18940TIP3    H178311   2.910   6.796  15.999 -0.7789  0.3688 -1.3070
18940TIP3    H278312   3.027   6.701  16.015 -0.9820  0.4571  0.9667
18941TIP3   OH278313   6.335   1.452   1.034  0.4542  0.3869 -0.9630
18941TIP3    H178314   6.370   1.405   1.110 -1.7432 -2.4312 -1.5191
18941TIP3    H278315   6.411   1.465   0.977  1.8544  1.1655  0.9680
18942TIP3   OH278316   0.162   2.223   4.732  0.0312 -0.1924 -0.4237
18942TIP3    H178317   0.089   2.266   4.776 -0.3331 -0.1833 -1.0249
18942TIP3    H278318   0.206   2.174   4.801  0.0283  0.5701  0.1293
18943TIP3   OH278319   4.366   1.024  16.397 -0.2294 -0.4755  0.3056
18943TIP3    H178320   4.460   1.016  16.409 -0.1305 -0.7599 -0.6080
18943TIP3    H278321   4.345   0.964  16.325 -0.6277  1.6950 -1.5257
18944TIP3   OH278322   5.311   3.011  10.545 -0.0271  0.0184 -0.2290
18944TIP3    H178323   5.364   3.087  10.573 -0.1918  0.2277 -0.4849
18944TIP3    H278324   5.230   3.049  10.512 -0.2126 -0.2870 -0.1297
18945TIP3   OH278325   4.974   4.629  14.319  0.4788 -1.0377 -0.0124
18945TIP3    H178326   4.940   4.716  14.339  0.4811 -0.9252 -0.4748
18945TIP3    H278327   5.060   4.645  14.282 -0.2806 -1.0772 -1.9304
18946TIP3   OH278328   6.603   1.943   4.235 -0.2744 -0.3802 -0.3803
18946TIP3    H178329   6.644   2.003   4.298  0.0491  2.3018 -2.9520
18946TIP3    H278330   6.676   1.913   4.180 -1.0142  0.2844 -1.7597
18947TIP3   OH278331   0.293   0.514  13.609 -0.3872  0.3733  0.2709
18947TIP3    H178332   0.229   0.511  13.538  0.9761  0.3891 -1.0097
18947TIP3    H278333   0.378   0.514  13.565  0.5090  1.7577  1.8534
18948TIP3   OH278334   5.568   6.380  13.969  0.3099 -0.2382 -0.7491
18948TIP3    H178335   5.573   6.455  13.909 -1.6480 -0.4880 -1.2924
18948TIP3    H278336   5.586   6.418  14.055  1.3749  0.4620 -1.2528
18949TIP3   OH278337   0.427   5.117   4.029  0.4167 -0.1387 -0.6621
18949TIP3    H178338   0.344   5.070   4.029  1.0085 -1.2746  1.3584
18949TIP3    H278339   0.486   5.061   3.978  0.4099 -0.2008 -0.6007
18950TIP3   OH278340   3.546   5.721   3.614  0.3088  0.5648 -0.2964
18950TIP3    H178341   3.565   5.797   3.558  0.6553 -1.4884 -3.1679
18950TIP3    H278342   3.456   5.697   3.591 -0.2979  0.8580  1.6225
18951TIP3   OH278343   6.281   2.959   5.560  0.0218 -0.2142 -0.2702
18951TIP3    H178344   6.340   3.014   5.612  1.2689 -0.9834 -0.8179
18951TIP3    H278345   6.262   3.011   5.483  1.7940 -0.7577 -1.1439
18952TIP3   OH278346   4.263   5.670  16.596 -0.6836 -0.4005 -0.2750
18952TIP3    H178347   4.274   5.711  16.510  0.4742 -0.3421 -0.1229
18952TIP3    H278348   4.212   5.591  16.579 -0.1744 -0.5695 -1.0841
18953TIP3   OH278349   6.568   1.620  11.885 -0.1763 -0.1590 -0.8842
18953TIP3    H178350   6.489   1.630  11.937 -0.2750 -0.9580 -0.8631
18953TIP3    H278351   6.636   1.667  11.934 -0.5102  0.0285 -0.6015
18954TIP3   OH278352   3.719   0.241  11.216  0.3339 -0.0080  0.2030
18954TIP3    H178353   3.749   0.293  11.141  0.2336  0.8248  0.7327
18954TIP3    H278354   3.752   0.288  11.293  0.8932 -1.1344  0.6772
18955TIP3   OH278355   4.469   4.893  16.858  0.2198  0.3245 -0.3519
18955TIP3    H178356   4.550   4.918  16.902  0.0970 -0.1517  0.1644
18955TIP3    H278357   4.420   4.974  16.848  1.5233  0.9326 -2.3048
18956TIP3   OH278358   2.999   1.278   2.029 -0.3030  0.3562  0.1721
18956TIP3    H178359   3.030   1.201   1.982 -1.7047 -0.0534 -0.1241
18956TIP3    H278360   3.062   1.347   2.008  1.0438 -0.7236  0.5481
18957TIP3   OH278361   1.324   3.726   0.873  0.2652  0.0107 -0.3933
18957TIP3    H178362   1.261   3.654   0.872  1.0180 -0.7432  1.4509
18957TIP3    H278363   1.384   3.706   0.801 -1.1742  0.3747 -1.7344
18958TIP3   OH278364   6.457   2.982   5.810  0.0090 -0.1288 -0.0884
18958TIP3    H178365   6.449   3.055   5.871  2.0445 -0.6738  0.9163
18958TIP3    H278366   6.397   2.915   5.843 -0.1176  0.2084  0.3694
18959TIP3   OH278367   5.904   0.641  11.585 -0.3721 -0.3914 -0.0682
18959TIP3    H178368   5.994   0.617  11.607 -0.3689 -0.7791 -0.4969
18959TIP3    H278369   5.897   0.626  11.491 -0.8107 -0.1151 -0.0816
18960TIP3   OH278370   1.634   4.402  11.477  0.1173  0.0985 -0.3046
18960TIP3    H178371   1.579   4.369  11.406  0.7341  0.5855 -1.0287
18960TIP3    H278372   1.613   4.495  11.482 -1.3677 -0.2761  1.4956
18961TIP3   OH278373   3.491   0.856   2.785  0.0144 -0.1028 -0.1470
18961TIP3    H178374   3.538   0.915   2.726 -0.8231  3.2840  2.2328
18961TIP3    H278375   3.400   0.861   2.755 -0.2262  0.7298  0.6753
18962TIP3   OH278376   1.132   0.107  14.858  0.7762 -0.4068 -0.4030
18962TIP3    H178377   1.179   0.024  14.864 -1.6124 -1.7654  2.9866
18962TIP3    H278378   1.043   0.082  14.832  0.0858  1.0880  0.3973
18963TIP3   OH278379   5.277   5.219   2.491 -0.3021  0.0980  0.7689
18963TIP3    H178380   5.269   5.309   2.521 -0.4045  0.5046 -0.4059
18963TIP3    H278381   5.218   5.214   2.415  1.5301 -0.2262 -0.7195
18964TIP3   OH278382   0.318   2.740   3.423  0.6279 -0.2583 -0.2172
18964TIP3    H178383   0.322   2.826   3.464 -2.2141  0.6642 -1.5673
18964TIP3    H278384   0.352   2.754   3.334  0.0393 -0.4721 -0.4828
18965TIP3   OH278385   1.047   2.993  12.470  0.1671  0.1865 -0.6435
18965TIP3    H178386   1.141   2.981  12.482  0.3535  1.5276 -0.6693
18965TIP3    H278387   1.010   2.977  12.556  0.4458 -0.0722 -0.5701
18966TIP3   OH278388   4.572   4.907   5.421  0.1443  0.5217  0.0905
18966TIP3    H178389   4.625   4.980   5.454 -2.2996  2.2442  0.4711
18966TIP3    H278390   4.520   4.946   5.351 -1.4361 -0.7555  0.5016
18967TIP3   OH278391   4.294   5.353  16.704 -0.1886 -0.2256  0.0507
18967TIP3    H178392   4.348   5.420  16.662 -0.0612 -0.0378  0.4986
18967TIP3    H278393   4.234   5.324  16.636  2.5261 -2.7834 -1.4650
18968TIP3   OH278394   2.259   0.736   2.375  0.4176  0.0382  0.1503
18968TIP3    H178395   2.198   0.801   2.339 -0.3638 -0.9417 -0.3567
18968TIP3    H278396   2.244   0.740   2.470 -0.8693 -0.5793 -0.0050
18969TIP3   OH278397   1.403   3.579  15.686 -0.3952 -0.7734 -0.2418
18969TIP3    H178398   1.372   3.524  15.614 -0.8525 -0.3523 -0.3778
18969TIP3    H278399   1.449   3.519  15.744 -0.3043 -1.1776 -0.7220
18970TIP3   OH278400   0.269   4.964   4.863  0.1428 -0.0971 -0.2635
18970TIP3    H178401   0.219   4.948   4.943 -0.6803  0.7488 -0.5889
18970TIP3    H278402   0.361   4.966   4.891  0.1427 -2.8131  0.1707
18971TIP3   OH278403   6.370   5.135   3.358 -0.0570 -0.9640 -0.0800
18971TIP3    H178404   6.373   5.039   3.359 -2.5859 -1.1316  1.7503
18971TIP3    H278405   6.439   5.162   3.418  0.2960 -1.6733 -0.1646
18972TIP3   OH278406   1.225   1.538  15.681  0.5323  0.5684 -0.0900
18972TIP3    H178407   1.151   1.497  15.637  0.6228  1.4223 -1.0717
18972TIP3    H278408   1.186   1.593  15.748  0.4059 -1.0082  1.1874
18973TIP3   OH278409   4.455   6.356   0.278 -0.0375  0.2326 -0.1938
18973TIP3    H178410   4.375   6.309   0.301  0.4429 -2.0918 -2.7135
18973TIP3    H278411   4.526   6.303   0.314  0.4363  0.8417 -0.2132
18974TIP3   OH278412   4.272   3.682  12.026  0.5340  0.1341  0.6965
18974TIP3    H178413   4.230   3.768  12.027 -2.2807 -1.1297  0.8998
18974TIP3    H278414   4.315   3.675  12.111 -0.8902  0.6301  1.5050
18975TIP3   OH278415   3.950   0.793   1.156 -0.4953 -0.1506 -0.0527
18975TIP3    H178416   3.981   0.836   1.235 -2.2352 -0.7984  1.0450
18975TIP3    H278417   3.888   0.856   1.118 -1.6700 -0.8869  0.5778
18976TIP3   OH278418   0.289   3.034  11.969  0.0101 -0.1033  0.0199
18976TIP3    H178419   0.212   3.091  11.964  0.5224  0.8058  1.8688
18976TIP3    H278420   0.259   2.951  11.932 -0.6963  1.3327 -2.9804
18977TIP3   OH278421   2.765   5.272   5.587  0.0275 -0.0668  0.3127
18977TIP3    H178422   2.791   5.275   5.495 -0.0403 -0.3185  0.2863
18977TIP3    H278423   2.797   5.355   5.623 -1.5147  0.8734 -0.3564
18978TIP3   OH278424   1.072   6.079  15.769  0.4621  0.0011 -0.2858
18978TIP3    H178425   1.161   6.048  15.749  0.6355  0.8589 -0.9543
18978TIP3    H278426   1.086   6.152  15.830  0.1346 -0.5837  0.4953
18979TIP3   OH278427   0.497   1.939   0.594 -0.2464 -0.2466 -0.0607
18979TIP3    H178428   0.479   1.858   0.548 -0.6025 -0.1542 -0.0826
18979TIP3    H278429   0.553   1.989   0.534 -0.3968 -0.2843 -0.2323
18980TIP3   OH278430   6.256   5.514  14.133  0.2381 -0.3896 -0.7675
18980TIP3    H178431   6.286   5.465  14.056  0.4389 -0.6343 -0.5357
18980TIP3    H278432   6.165   5.488  14.144  0.2425 -0.4428 -0.8545
18981TIP3   OH278433   1.301   1.433  11.260  0.5447  0.2522  0.2949
18981TIP3    H178434   1.376   1.384  11.295  0.3999 -0.8645 -0.8600
18981TIP3    H278435   1.325   1.450  11.169  0.0264  1.2132  0.3323
18982TIP3   OH278436   3.832   1.322  12.576 -0.7783  0.5120  0.0311
18982TIP3    H178437   3.766   1.271  12.528 -0.4279 -1.0686  1.1310
18982TIP3    H278438   3.898   1.344  12.510 -0.5581 -1.1793 -0.3833
18983TIP3   OH278439   2.825   2.946   0.470  0.1706  0.5348  0.2955
18983TIP3    H178440   2.850   2.978   0.384 -1.3126  1.6866  0.2628
18983TIP3    H278441   2.774   2.867   0.452 -1.0248  1.3421  0.0240
18984TIP3   OH278442   1.505   6.304   4.904 -0.6583 -1.0010 -0.1789
18984TIP3    H178443   1.504   6.273   4.813  0.4837 -0.8677 -0.2529
18984TIP3    H278444   1.598   6.312   4.925 -0.9081  0.8016  0.3867
18985TIP3   OH278445   6.816   4.061   1.015  0.6291 -0.3205  0.0317
18985TIP3    H178446   6.910   4.063   1.029  0.3562  0.7615  2.0808
18985TIP3    H278447   6.790   4.153   1.017 -0.5956 -0.6576  0.5006
18986TIP3   OH278448   4.440   2.705   6.505 -0.2990 -0.3379  0.1003
18986TIP3    H178449   4.480   2.667   6.426  0.3841  0.0892  0.2297
18986TIP3    H278450   4.347   2.681   6.499 -0.0819 -1.0977 -0.3587
18987TIP3   OH278451   6.403   5.072   3.668 -0.4143 -0.2456  0.1561
18987TIP3    H178452   6.379   5.120   3.747 -0.9780 -0.2727  0.0063
18987TIP3    H278453   6.475   5.015   3.695 -0.9330 -0.6169  0.7705
18988TIP3   OH278454   4.532   5.313  15.218  0.1775 -0.0898 -0.1753
18988TIP3    H178455   4.561   5.222  15.226 -1.5088 -0.8069 -1.4844
18988TIP3    H278456   4.454   5.308  15.163 -1.8896  1.7944  2.3593
18989TIP3   OH278457   5.405   5.136   0.152  0.1805 -0.1714  0.7689
18989TIP3    H178458   5.393   5.154   0.246 -0.5049  0.2186  0.6176
18989TIP3    H278459   5.348   5.061   0.135 -1.4382  1.1359  0.2212
18990TIP3   OH278460   5.590   1.111   1.811  0.0393  0.4019  0.7708
18990TIP3    H178461   5.520   1.057   1.775  0.2733  0.0980  0.7683
18990TIP3    H278462   5.670   1.060   1.797  0.6977  1.9369 -1.8249
18991TIP3   OH278463   3.931   2.580  13.305  0.0323 -0.0890 -0.5491
18991TIP3    H178464   3.966   2.545  13.387 -0.5278 -0.0532 -0.2923
18991TIP3    H278465   3.971   2.525  13.237  3.2731  2.0198 -0.5707
18992TIP3   OH278466   2.732   3.940  15.016 -0.0294 -0.4411  0.0597
18992TIP3    H178467   2.758   3.893  15.095  0.1155  0.1381  0.3592
18992TIP3    H278468   2.699   4.024  15.047  0.4354 -0.0335 -0.5265
18993TIP3   OH278469   1.665   1.342  13.288  0.0065 -0.1855  0.4183
18993TIP3    H178470   1.634   1.284  13.218 -1.2279  1.4568 -0.4687
18993TIP3    H278471   1.621   1.310  13.367 -1.0975 -0.1370 -0.1579
18994TIP3   OH278472   5.233   2.072  12.688 -0.3499  0.1375  0.7357
18994TIP3    H178473   5.232   2.051  12.595 -0.3266 -0.1232  0.7942
18994TIP3    H278474   5.294   2.146  12.695  1.3116 -1.1657  0.8141
18995TIP3   OH278475   2.878   4.436   1.895  0.1020 -0.0649  0.8475
18995TIP3    H178476   2.839   4.353   1.920  0.0751  0.1456  1.5265
18995TIP3    H278477   2.892   4.482   1.978 -2.6609  1.8773  0.3625
18996TIP3   OH278478   2.240   4.922   2.360  0.1337 -0.4304 -0.6643
18996TIP3    H178479   2.316   4.976   2.338 -0.0527 -1.6254 -5.2600
18996TIP3    H278480   2.276   4.852   2.414  1.3401  1.3597  0.9898
18997TIP3   OH278481   3.316   0.027  11.481  0.2268  0.3486 -0.7806
18997TIP3    H178482   3.287  -0.059  11.450 -1.3423  1.7088 -3.3810
18997TIP3    H278483   3.362   0.065  11.406  2.3462  1.2202  0.8539
18998TIP3   OH278484   3.915   4.548  17.027  0.7143  0.7281  0.2042
18998TIP3    H178485   3.847   4.520  16.966  1.2705  0.4267 -0.2785
18998TIP3    H278486   3.948   4.630  16.990  3.2284 -1.0048 -1.6452
18999TIP3   OH278487   6.347   2.227   3.698 -0.1350 -0.5748  0.1263
18999TIP3    H178488   6.441   2.243   3.706 -0.0120 -1.0015 -0.3772
18999TIP3    H278489   6.325   2.255   3.609 -0.4691 -0.5430  0.2164
19000TIP3   OH278490   3.767   2.089  12.947 -0.1024  0.1606 -0.0733
19000TIP3    H178491   3.755   2.000  12.979 -1.2262  0.2318 -0.2871
19000TIP3    H278492   3.765   2.081  12.852  1.6022  0.1847 -0.1562
19001TIP3   OH278493   4.056   3.571   2.640  0.3411  0.1535  0.1178
19001TIP3    H178494   4.001   3.552   2.564  0.9407 -0.6219 -0.1418
19001TIP3    H278495   4.005   3.542   2.715  1.6500 -3.8906 -0.3059
19002TIP3   OH278496   6.710   0.485   4.507  0.0693  0.6345  0.0479
19002TIP3    H178497   6.623   0.504   4.543  0.6805  4.1265  0.0244
19002TIP3    H278498   6.771   0.531   4.566  1.6827  0.3900 -1.3584
19003TIP3   OH278499   2.055   1.662  14.417 -0.3251 -1.1881  0.2450
19003TIP3    H178500   1.997   1.641  14.343  1.1328 -2.7289 -0.5603
19003TIP3    H278501   2.143   1.661  14.378  0.3117  0.1656  1.5946
19004TIP3   OH278502   4.797   1.840  16.995  0.4026  0.5830  0.2414
19004TIP3    H178503   4.869   1.885  16.950  0.8146  1.5720  1.7870
19004TIP3    H278504   4.839   1.765  17.038  0.3230  0.5651  0.2872
19005TIP3   OH278505   0.018   0.020  10.792  0.0712 -0.0918  0.4227
19005TIP3    H178506  -0.069  -0.018  10.780  0.0079  0.5259 -1.2418
19005TIP3    H278507   0.077  -0.045  10.755 -0.0025  1.0981 -1.9864
19006TIP3   OH278508   2.557   3.344  13.235 -0.2963 -0.2179  0.1305
19006TIP3    H178509   2.531   3.368  13.146 -0.9529  0.1040  0.4045
19006TIP3    H278510   2.608   3.263  13.224  1.1219  0.7433 -0.7024
19007TIP3   OH278511   1.271   6.631  10.974  0.3526 -0.7528 -0.2720
19007TIP3    H178512   1.306   6.584  10.899 -0.3716  0.0742 -1.1712
19007TIP3    H278513   1.176   6.615  10.970 -0.0343  1.3573 -1.1001
19008TIP3   OH278514   0.743   1.824   2.148  0.2141  0.7276  0.1631
19008TIP3    H178515   0.733   1.744   2.200  0.7738  1.2586  1.1066
19008TIP3    H278516   0.837   1.841   2.148  0.1907  0.8949 -0.7985
19009TIP3   OH278517   4.187   4.585  16.034 -0.7509 -0.1782 -0.0249
19009TIP3    H178518   4.212   4.551  16.120  0.8946 -1.4280 -0.9234
19009TIP3    H278519   4.153   4.673  16.051 -0.0280 -0.2203  1.8437
19010TIP3   OH278520   0.423   2.240  15.044 -0.0065 -0.2168  0.4855
19010TIP3    H178521   0.369   2.297  14.989 -0.0024 -0.5828  0.0926
19010TIP3    H278522   0.438   2.291  15.124 -1.7054 -0.4768  1.0048
19011TIP3   OH278523   6.331   0.874  15.894 -0.3861  0.1970  0.6606
19011TIP3    H178524   6.262   0.819  15.932 -0.0872  0.6049  1.8322
19011TIP3    H278525   6.296   0.899  15.808 -0.8045 -1.2643  0.3697
19012TIP3   OH278526   6.282   3.380   1.429 -0.2405 -0.1063  0.0659
19012TIP3    H178527   6.191   3.401   1.406 -0.6822 -2.1540 -0.1853
19012TIP3    H278528   6.289   3.286   1.418  1.7433 -0.0889  0.7732
19013TIP3   OH278529   2.206   6.162  16.063  0.5869  0.1179  0.2237
19013TIP3    H178530   2.211   6.147  15.968  1.5607  0.8198  0.1596
19013TIP3    H278531   2.296   6.173  16.091  0.4868 -1.9423  1.5720
19014TIP3   OH278532   6.796   5.314  12.948  0.0756 -0.3113 -0.1968
19014TIP3    H178533   6.833   5.398  12.920 -0.1003 -0.2667 -0.2960
19014TIP3    H278534   6.858   5.281  13.013 -0.1328  0.1579  0.2507
19015TIP3   OH278535   1.682   1.076  15.628  0.2693  0.5424 -0.5582
19015TIP3    H178536   1.697   1.111  15.716  2.9198 -0.3355 -0.5922
19015TIP3    H278537   1.590   1.051  15.627  0.3136  0.0787  2.1490
19016TIP3   OH278538   5.291   3.860  15.413 -0.2140 -0.0490 -0.3074
19016TIP3    H178539   5.290   3.815  15.497 -0.5697  0.5112 -0.0033
19016TIP3    H278540   5.209   3.832  15.370 -1.8363  2.3414  1.0121
19017TIP3   OH278541   3.484   2.248   3.697 -0.7399  0.6179  0.0248
19017TIP3    H178542   3.498   2.198   3.777 -1.0678  1.8088  0.8655
19017TIP3    H278543   3.482   2.183   3.627  0.4738 -0.3674  0.8721
19018TIP3   OH278544   1.142   3.285  16.644 -0.0257 -0.0601  0.2747
19018TIP3    H178545   1.176   3.291  16.555  0.3739 -1.0661  0.3441
19018TIP3    H278546   1.159   3.195  16.670 -2.9306 -0.6964  0.2633
19019TIP3   OH278547   2.879   3.829  13.846 -0.1917 -0.6965 -0.6567
19019TIP3    H178548   2.915   3.900  13.793  0.4335 -0.2958  0.2930
19019TIP3    H278549   2.931   3.752  13.821  0.4047 -0.4137 -0.3171
19020TIP3   OH278550   3.011   6.871   2.190  0.5252  0.0554 -0.1665
19020TIP3    H178551   3.032   6.903   2.278 -0.8410  0.6769 -0.0415
19020TIP3    H278552   3.030   6.944   2.132 -1.2918  0.6970 -0.0325
19021TIP3   OH278553   1.037   3.050  13.845 -0.2019 -0.3935 -0.4321
19021TIP3    H178554   0.945   3.073  13.847 -0.1506 -0.1403 -0.9970
19021TIP3    H278555   1.065   3.056  13.937 -0.3141  1.2866 -0.4820
19022TIP3   OH278556   3.132   5.202   2.343  0.0553 -0.2002  0.6053
19022TIP3    H178557   3.123   5.283   2.395 -0.7962 -1.3831  2.4046
19022TIP3    H278558   3.227   5.187   2.339  0.1620 -1.0942  3.6448
19023TIP3   OH278559   4.984   0.669  15.334 -0.1244  0.4085  0.4476
19023TIP3    H178560   4.981   0.690  15.427  1.2136 -0.4101  0.7176
19023TIP3    H278561   5.077   0.672  15.312 -0.5247  1.9817 -1.2197
19024TIP3   OH278562   2.180   6.738  12.052  0.1184 -0.2102  0.1858
19024TIP3    H178563   2.093   6.751  12.089  0.1667  0.5666  0.0537
19024TIP3    H278564   2.169   6.666  11.990 -0.5515  0.1999 -0.1896
19025TIP3   OH278565   2.507   5.193   1.949 -0.4660 -0.6821  0.3959
19025TIP3    H178566   2.483   5.117   1.897 -0.2783 -0.3261 -0.2235
19025TIP3    H278567   2.455   5.265   1.912  2.0251  0.2784 -1.5044
19026TIP3   OH278568   0.535   1.315   5.018  0.3890 -0.0106  0.3780
19026TIP3    H178569   0.574   1.385   4.965  1.8316  0.3760  1.8681
19026TIP3    H278570   0.479   1.361   5.081 -0.9100 -0.4308 -0.4296
19027TIP3   OH278571   3.459   0.135  13.458 -0.0505 -0.1245  0.5872
19027TIP3    H178572   3.428   0.163  13.372  0.1179  2.9794  1.3987
19027TIP3    H278573   3.538   0.084  13.440  0.5798  1.3615 -1.1051
19028TIP3   OH278574   0.119   5.663  12.022 -0.1333 -0.0570 -0.1841
19028TIP3    H178575   0.047   5.727  12.016 -0.4980 -0.5363 -1.0479
19028TIP3    H278576   0.139   5.659  12.116 -0.0912  1.3316 -0.1111
19029TIP3   OH278577   4.301   5.172   5.783  0.0930 -0.7004  0.0942
19029TIP3    H178578   4.335   5.251   5.741 -0.4190 -0.8317 -0.5831
19029TIP3    H278579   4.267   5.203   5.867  0.6070 -0.3393  0.1794
19030TIP3   OH278580   2.837   3.479  14.061 -0.0730 -0.1955 -0.5986
19030TIP3    H178581   2.861   3.411  13.998  0.3012  0.6379 -1.3802
19030TIP3    H278582   2.898   3.552  14.043 -1.2093  0.7940 -0.5639
19031TIP3   OH278583   5.576   6.665   5.644 -0.2853 -0.3727 -0.4666
19031TIP3    H178584   5.541   6.625   5.724  0.9520  0.5500  0.5741
19031TIP3    H278585   5.660   6.701   5.670  0.1551 -0.0461 -2.2091
19032TIP3   OH278586   0.597   2.163   5.377  0.0729  0.5246 -0.2462
19032TIP3    H178587   0.544   2.226   5.426 -0.3927  1.3692 -1.7774
19032TIP3    H278588   0.647   2.217   5.316  2.1521 -0.3268  0.6282
19033TIP3   OH278589   4.572   5.860   0.695 -0.2773  0.3157 -0.2667
19033TIP3    H178590   4.560   5.800   0.622 -1.0487  0.7003 -0.4779
19033TIP3    H278591   4.610   5.807   0.765 -0.2411 -0.2326 -0.6982
19034TIP3   OH278592   5.580   3.249  11.992 -0.0433  0.4296 -0.3975
19034TIP3    H178593   5.644   3.178  11.998 -0.6630 -0.0725  0.5592
19034TIP3    H278594   5.576   3.270  11.899 -0.3779 -1.3041 -0.8060
19035TIP3   OH278595   0.280   0.484   0.812 -0.5551  0.3796 -0.3588
19035TIP3    H178596   0.334   0.512   0.739 -1.2708  0.6108 -0.8162
19035TIP3    H278597   0.228   0.562   0.834 -1.7667 -0.2417 -0.9191
19036TIP3   OH278598   0.164   5.912   1.057 -0.1588  0.8189  0.3626
19036TIP3    H178599   0.205   5.991   1.092 -0.0425  0.5713  0.7788
19036TIP3    H278600   0.184   5.843   1.120 -1.4030  0.7421  0.7099
19037TIP3   OH278601   4.041   4.775  16.857 -0.1640 -0.0867 -0.5749
19037TIP3    H178602   4.131   4.743  16.866 -0.0687  0.4191  0.3945
19037TIP3    H278603   4.046   4.868  16.879 -1.1094 -0.3139  0.7348
19038TIP3   OH278604   5.845   2.835  12.202 -0.3108 -0.1746  0.0349
19038TIP3    H178605   5.781   2.767  12.178 -1.1140  0.6328 -0.1779
19038TIP3    H278606   5.922   2.786  12.230 -1.0819 -1.1854  0.4803
19039TIP3   OH278607   4.319   5.310  16.083  0.1269 -0.4648 -0.3307
19039TIP3    H178608   4.267   5.232  16.063  0.8686 -1.2874  0.7869
19039TIP3    H278609   4.379   5.319  16.009  0.4494 -1.3370 -0.1863
19040TIP3   OH278610   0.420   0.575  14.875 -0.4205  0.0776 -0.5224
19040TIP3    H178611   0.434   0.646  14.812  0.0931 -0.8490 -1.4681
19040TIP3    H278612   0.407   0.621  14.959 -1.7162  1.3573 -1.3645
19041TIP3   OH278613   3.340   6.092  12.174 -0.1183  0.7307  0.3643
19041TIP3    H178614   3.434   6.075  12.167 -0.1568  1.0873 -1.4027
19041TIP3    H278615   3.334   6.187  12.183 -0.3520  0.9688 -1.7815
19042TIP3   OH278616   3.108   6.304   3.126 -0.5012  0.5125  0.1771
19042TIP3    H178617   3.097   6.389   3.168  0.3403  0.8452 -0.2556
19042TIP3    H278618   3.050   6.245   3.175 -2.1485  1.6074 -0.3701
19043TIP3   OH278619   0.672   3.263  14.961 -0.9387 -0.2815  0.0057
19043TIP3    H178620   0.666   3.182  15.011 -0.0220 -1.1978 -1.3392
19043TIP3    H278621   0.696   3.236  14.873  1.9113  1.5942  0.0997
19044TIP3   OH278622   0.364   3.938  16.170  0.2990  0.0955  0.3936
19044TIP3    H178623   0.337   4.024  16.203 -1.8526 -0.9725  1.6432
19044TIP3    H278624   0.409   3.897  16.244  2.8219  0.6714 -0.7089
19045TIP3   OH278625   4.976   5.850  16.948  0.1604  0.1984 -0.0272
19045TIP3    H178626   4.938   5.924  16.901 -0.5038 -0.2782 -0.2467
19045TIP3    H278627   5.030   5.890  17.017  2.5337  0.9696 -2.1898
19046TIP3   OH278628   5.743   1.608  10.636  0.2396 -0.0094 -0.1522
19046TIP3    H178629   5.757   1.549  10.563  0.9781  0.4528 -0.3949
19046TIP3    H278630   5.784   1.691  10.608 -1.2599  0.8013 -0.0699
19047TIP3   OH278631   6.034   3.047  16.755 -0.2585 -0.3665  0.0779
19047TIP3    H178632   6.003   3.135  16.731  0.2839 -0.2979 -0.3987
19047TIP3    H278633   6.057   3.055  16.848 -1.1315 -0.2734  0.2933
19048TIP3   OH278634   3.759   3.269   5.201  0.0337  0.2252 -0.5671
19048TIP3    H178635   3.793   3.272   5.111 -0.2031  0.6658 -0.6470
19048TIP3    H278636   3.837   3.276   5.256  0.2709 -0.9990 -0.7199
19049TIP3   OH278637   2.184   5.636   5.877  0.0463  0.2627  0.6338
19049TIP3    H178638   2.207   5.546   5.853  0.4327 -0.2103  2.6072
19049TIP3    H278639   2.109   5.657   5.822  1.6383 -0.1935 -1.9132
19050TIP3   OH278640   5.996   2.323   6.589  0.2080 -0.4350  0.0553
19050TIP3    H178641   5.974   2.412   6.560  3.7147 -0.0277 -1.8480
19050TIP3    H278642   6.021   2.333   6.680  1.0133  0.6710 -0.2680
19051TIP3   OH278643   6.515   3.678   1.722  0.0499 -0.3742 -0.3944
19051TIP3    H178644   6.468   3.669   1.805 -0.9342  1.5998 -0.6733
19051TIP3    H278645   6.509   3.592   1.681 -0.0369 -1.1926  1.2473
19052TIP3   OH278646   4.849   1.300  16.676  0.2713 -0.1209  0.4323
19052TIP3    H178647   4.862   1.283  16.583 -2.4596  1.1597 -0.2969
19052TIP3    H278648   4.914   1.246  16.720  1.3681 -1.0874 -2.1880
19053TIP3   OH278649   1.646   2.450   3.131  0.2771  0.4528 -0.0947
19053TIP3    H178650   1.647   2.540   3.165 -1.4840  0.1688  0.8440
19053TIP3    H278651   1.641   2.395   3.209 -0.5795 -0.3670 -0.7084
19054TIP3   OH278652   0.193   6.016  14.151 -0.1056  0.6256  0.3542
19054TIP3    H178653   0.222   6.081  14.087  0.8026 -0.3821 -0.2884
19054TIP3    H278654   0.232   6.044  14.233 -0.5905  1.4634  0.3097
19055TIP3   OH278655   1.848   1.803  12.562 -0.1759 -0.1284 -0.3636
19055TIP3    H178656   1.773   1.789  12.620 -0.8882  0.9662 -0.9836
19055TIP3    H278657   1.902   1.867  12.608  0.7967 -1.4738  0.4299
19056TIP3   OH278658   1.231   5.929  14.891  0.0284 -0.2045  0.2011
19056TIP3    H178659   1.170   5.888  14.830  0.1358 -0.8597  0.5165
19056TIP3    H278660   1.177   5.985  14.946  0.1705  1.8709 -1.6685
19057TIP3   OH278661   2.467   0.100   5.828  0.1181 -0.1550  0.6235
19057TIP3    H178662   2.516   0.106   5.746 -0.5859  0.9930  0.2661
19057TIP3    H278663   2.469   0.007   5.850  0.4883 -0.4543 -0.5802
19058TIP3   OH278664   1.318   3.189  11.099  0.2648 -0.5427 -0.1115
19058TIP3    H178665   1.381   3.140  11.045  0.0468  0.2113 -1.0801
19058TIP3    H278666   1.267   3.122  11.143  2.4293 -1.2057  1.5690
19059TIP3   OH278667   2.663   1.281  12.922 -0.0585 -0.2962 -0.5358
19059TIP3    H178668   2.634   1.212  12.862 -0.0815  0.2696 -1.1808
19059TIP3    H278669   2.649   1.244  13.009  1.2680 -1.6649 -0.8744
19060TIP3   OH278670   2.230   1.955  16.050 -0.2191 -0.3609 -0.0527
19060TIP3    H178671   2.239   1.945  15.955 -1.6988 -0.6908 -0.1739
19060TIP3    H278672   2.150   2.006  16.061 -1.5305 -2.5269  1.0611
19061TIP3   OH278673   1.359   4.544   6.797 -0.5484  0.0329 -0.3022
19061TIP3    H178674   1.357   4.589   6.882 -0.4323  0.8210 -0.7052
19061TIP3    H278675   1.377   4.614   6.734 -0.2281 -0.6147 -0.9335
19062TIP3   OH278676   2.557   4.090   4.641 -0.6757 -0.1771  0.6082
19062TIP3    H178677   2.593   4.024   4.581  0.8303  0.0349  1.2368
19062TIP3    H278678   2.533   4.163   4.585  0.6628 -0.0066  0.2097
19063TIP3   OH278679   5.719   3.674   6.257  0.3962  0.5934 -0.5956
19063TIP3    H178680   5.686   3.699   6.344  1.1218 -0.2905 -0.0549
19063TIP3    H278681   5.797   3.728   6.245  1.5461 -0.7933  0.2628
19064TIP3   OH278682   1.579   6.456   2.609 -0.5321 -0.1840  0.0770
19064TIP3    H178683   1.618   6.536   2.573 -1.1350  0.0546 -0.0538
19064TIP3    H278684   1.589   6.391   2.539  0.5051 -0.3988  0.4108
19065TIP3   OH278685   3.635   3.429   0.934 -0.4580  0.2488 -0.3788
19065TIP3    H178686   3.557   3.393   0.891 -0.2027 -0.6063 -0.1594
19065TIP3    H278687   3.667   3.357   0.988 -0.5815  1.1945  1.0065
19066TIP3   OH278688   6.652   4.560   1.170 -0.2121 -0.1420  0.1545
19066TIP3    H178689   6.719   4.578   1.236  0.6134 -0.8435 -0.4645
19066TIP3    H278690   6.580   4.619   1.192  0.9237  1.2158  0.3681
19067TIP3   OH278691   1.572   1.434  15.356 -0.2462  0.0696  0.6927
19067TIP3    H178692   1.646   1.462  15.302  1.6030  1.1508  3.5398
19067TIP3    H278693   1.546   1.512  15.404 -2.3090 -0.6542  0.8646
19068TIP3   OH278694   3.066   3.191  15.105 -0.2342 -0.0095  0.3475
19068TIP3    H178695   3.079   3.099  15.084  3.8390  0.4171  0.3010
19068TIP3    H278696   3.045   3.232  15.021 -1.0753 -0.7086  0.2031
19069TIP3   OH278697   1.604   4.680  13.245 -0.0527  0.2416  0.3368
19069TIP3    H178698   1.660   4.666  13.322 -0.1043 -2.1811  0.0183
19069TIP3    H278699   1.660   4.656  13.171 -0.9707 -0.5470 -0.1171
19070TIP3   OH278700   2.795   2.183   4.060 -0.1481  0.3097  0.2501
19070TIP3    H178701   2.880   2.197   4.020 -0.9143 -0.5782 -1.8257
19070TIP3    H278702   2.736   2.241   4.013 -0.9458 -0.1156  0.7043
19071TIP3   OH278703   1.073   0.446   2.140 -0.1950 -0.0217 -0.3786
19071TIP3    H178704   1.013   0.447   2.214 -1.3817  1.4774 -1.3172
19071TIP3    H278705   1.158   0.421   2.179 -1.1896 -1.2918  1.1078
19072TIP3   OH278706   5.233   1.378  14.138 -0.3350 -0.1396 -0.4738
19072TIP3    H178707   5.239   1.284  14.154 -0.5032  0.0179  0.5856
19072TIP3    H278708   5.298   1.395  14.071  1.1848 -0.6887  0.7987
19073TIP3   OH278709   6.188   6.867   2.513  0.3059  0.0610 -0.6027
19073TIP3    H178710   6.151   6.945   2.473 -1.1111  0.4681  1.3564
19073TIP3    H278711   6.281   6.888   2.525  0.7395  0.0127 -3.2677
19074TIP3   OH278712   2.300   3.442  12.863  0.1400 -0.4206 -0.3581
19074TIP3    H178713   2.222   3.490  12.836  0.0905  0.0072  0.4897
19074TIP3    H278714   2.321   3.478  12.950  1.7703  0.0792 -0.9166
19075TIP3   OH278715   2.782   5.076   0.280  0.1890  0.3251  0.1477
19075TIP3    H178716   2.832   4.998   0.253  1.4091  1.0128  0.3512
19075TIP3    H278717   2.837   5.119   0.345 -0.0544  1.8437 -0.6025
19076TIP3   OH278718   5.318   5.421   0.231 -0.5690  0.6315 -0.6243
19076TIP3    H178719   5.275   5.476   0.296 -0.8043 -0.5852  0.2910
19076TIP3    H278720   5.350   5.482   0.165  1.4460  2.1782  1.5873
19077TIP3   OH278721   6.653   2.093  16.532 -0.1290 -0.4230 -0.0159
19077TIP3    H178722   6.659   2.067  16.624 -0.3417  0.7942  0.3658
19077TIP3    H278723   6.735   2.140  16.515 -0.8180  0.8496  0.0657
19078TIP3   OH278724   4.295   1.827   0.499  0.3529 -0.3407 -0.2511
19078TIP3    H178725   4.380   1.871   0.492  0.1622  0.1178  0.2335
19078TIP3    H278726   4.247   1.852   0.421 -0.2570  1.4298  0.6349
19079TIP3   OH278727   0.243   4.227  10.083 -0.7224  0.2468 -0.5683
19079TIP3    H178728   0.332   4.258  10.098 -1.3779  3.4657 -2.5854
19079TIP3    H278729   0.206   4.219  10.171  0.6882  1.6291  0.1935
19080TIP3   OH278730   6.236   3.597   5.133 -0.7085  0.3187  0.0906
19080TIP3    H178731   6.181   3.573   5.208  1.5067 -2.1817  1.0679
19080TIP3    H278732   6.226   3.524   5.072  1.1965 -0.0299  0.1470
19081TIP3   OH278733   0.021   5.444  15.662  0.0295  0.2137 -0.0564
19081TIP3    H178734   0.013   5.348  15.661  0.4531  0.1184  1.8047
19081TIP3    H278735   0.077   5.464  15.588 -1.8459 -0.7559 -1.8463
19082TIP3   OH278736   3.439   4.781   4.459  0.2414 -0.0682 -0.1868
19082TIP3    H178737   3.428   4.686   4.457 -0.7730  0.0281  0.2860
19082TIP3    H278738   3.529   4.795   4.430  0.4203 -1.1751 -0.2117
19083TIP3   OH278739   4.680   0.860  15.596 -0.0258 -0.7028  0.1071
19083TIP3    H178740   4.774   0.841  15.590 -0.0207 -0.6041 -0.1278
19083TIP3    H278741   4.661   0.856  15.690  0.0131 -1.6843  0.0849
19084TIP3   OH278742   3.505   2.274   4.189 -0.3439 -0.1894  0.4817
19084TIP3    H178743   3.446   2.349   4.180  0.5546  0.5820  0.7840
19084TIP3    H278744   3.532   2.276   4.281  0.5287 -0.2191  0.2385
19085TIP3   OH278745   3.694   5.698   0.873 -0.4682  0.1850  0.0989
19085TIP3    H178746   3.719   5.779   0.917 -0.5075 -0.1896  0.8322
19085TIP3    H278747   3.777   5.651   0.861 -0.2094  1.0696 -1.8897
19086TIP3   OH278748   0.082   1.522   0.291 -0.7275 -0.5512 -0.5449
19086TIP3    H178749  -0.006   1.535   0.256 -2.1600  0.3627  2.8984
19086TIP3    H278750   0.074   1.446   0.349  0.3830  0.2365  0.7090
19087TIP3   OH278751   0.792   6.002  11.097  0.1261 -0.3662  0.4563
19087TIP3    H178752   0.830   5.917  11.119 -0.8093 -0.1312  3.5005
19087TIP3    H278753   0.795   6.006  11.001  0.7967 -3.5182  0.2381
19088TIP3   OH278754   0.721   6.173   3.617 -0.0580 -0.1634 -0.0272
19088TIP3    H178755   0.766   6.103   3.570  1.7789 -1.9292  3.8446
19088TIP3    H278756   0.631   6.143   3.624  0.1814 -1.0074 -0.4396
19089TIP3   OH278757   0.872   3.408   5.390 -0.3091  0.2726 -0.0354
19089TIP3    H178758   0.870   3.318   5.357  1.1983  0.5470 -0.9993
19089TIP3    H278759   0.810   3.408   5.462 -1.9756 -0.9836 -1.3661
19090TIP3   OH278760   4.831   5.391   6.265 -0.9988 -0.2153  1.1373
19090TIP3    H178761   4.808   5.309   6.310 -2.1433 -0.1977  0.6187
19090TIP3    H278762   4.877   5.442   6.331  1.8385 -2.1565  0.8323
19091TIP3   OH278763   3.618   5.642  10.203 -0.2390  0.3615  0.2222
19091TIP3    H178764   3.523   5.652  10.207 -0.2842 -0.1519  0.4176
19091TIP3    H278765   3.651   5.727  10.233 -0.6326  0.5210  0.2172
19092TIP3   OH278766   0.216   3.613  11.328  0.2574  0.1658  0.3033
19092TIP3    H178767   0.260   3.582  11.249  0.2857 -1.0135  0.7669
19092TIP3    H278768   0.288   3.638  11.387  0.2786 -0.3044  0.4817
19093TIP3   OH278769   4.368   2.629   2.686 -0.2463 -0.3721 -0.0866
19093TIP3    H178770   4.302   2.597   2.747  0.2311 -1.9645 -0.3825
19093TIP3    H278771   4.447   2.639   2.739  0.5289 -2.9874 -0.6094
19094TIP3   OH278772   3.249   1.935  10.747 -0.0398  0.8037 -0.6849
19094TIP3    H178773   3.154   1.946  10.745 -0.2445 -0.2186  0.8727
19094TIP3    H278774   3.262   1.840  10.751  1.0467  0.9281 -0.8740
19095TIP3   OH278775   2.222   0.282  11.175  0.2234  0.6603 -0.0052
19095TIP3    H178776   2.249   0.329  11.097  0.6179  2.1415  0.9860
19095TIP3    H278777   2.181   0.349  11.230  1.3403 -0.0027  1.7027
19096TIP3   OH278778   4.396   6.250   1.434  0.2779 -0.3788 -0.2416
19096TIP3    H178779   4.413   6.169   1.385  1.9430  0.4843 -1.1764
19096TIP3    H278780   4.386   6.317   1.366 -0.7425  0.2714  0.5296
19097TIP3   OH278781   1.027   6.529  14.429  0.0187  0.3304 -1.0918
19097TIP3    H178782   1.054   6.477  14.505  2.2549  0.0643 -1.9868
19097TIP3    H278783   1.072   6.612  14.440 -1.7376  1.2891 -0.8351
19098TIP3   OH278784   4.992   4.187   4.468 -0.5175 -0.0090  0.1046
19098TIP3    H178785   4.939   4.150   4.539 -0.8333 -1.8647 -1.0544
19098TIP3    H278786   5.034   4.112   4.427 -0.1512  1.0424 -1.5484
19099TIP3   OH278787   3.347   3.578   1.577 -0.3357 -0.1469  0.5202
19099TIP3    H178788   3.405   3.571   1.500  0.7284 -2.0281  1.4105
19099TIP3    H278789   3.267   3.618   1.543  0.4245 -0.1319 -1.3863
19100TIP3   OH278790   1.681   0.071   0.708 -0.0302 -0.0510 -0.1164
19100TIP3    H178791   1.741  -0.000   0.686 -0.0401  0.8798 -3.6736
19100TIP3    H278792   1.595   0.028   0.713  0.3577 -0.7449  0.9653
19101TIP3   OH278793   3.378   0.797   5.505 -0.3310  0.6422 -0.1814
19101TIP3    H178794   3.365   0.890   5.519  4.5600  1.4814  0.6490
19101TIP3    H278795   3.441   0.791   5.433  1.8385 -1.7080  1.6954
19102TIP3   OH278796   3.460   2.986  11.582  0.2717  0.7811 -0.6095
19102TIP3    H178797   3.376   2.960  11.545  0.3514 -0.2000 -0.1390
19102TIP3    H278798   3.519   2.913  11.561  0.9177  1.3109 -0.6485
19103TIP3   OH278799   3.642   3.046   6.145  0.5423 -0.1176  0.8102
19103TIP3    H178800   3.595   3.113   6.194 -0.2590 -1.1763  1.5356
19103TIP3    H278801   3.609   2.963   6.179  1.3859 -0.8958 -0.1748
19104TIP3   OH278802   6.157   5.281  13.483  0.2257  0.3838 -0.1947
19104TIP3    H178803   6.167   5.349  13.416 -0.0177 -0.1148 -0.7432
19104TIP3    H278804   6.217   5.308  13.553  0.2754  1.0593 -0.4885
19105TIP3   OH278805   0.894   5.558  11.034  0.4600  0.1153 -0.0075
19105TIP3    H178806   0.964   5.544  10.970 -0.0323 -0.0392 -0.5160
19105TIP3    H278807   0.817   5.578  10.981  0.0688  0.0755  0.5428
19106TIP3   OH278808   0.612   6.467  11.083  0.0769 -0.4128 -0.8161
19106TIP3    H178809   0.610   6.393  11.143  0.4855  0.2735  0.0834
19106TIP3    H278810   0.521   6.481  11.058 -0.1742 -0.3792  0.0929
19107TIP3   OH278811   3.139   0.325  12.361 -0.8614  0.0381  0.0251
19107TIP3    H178812   3.049   0.300  12.381 -0.8400 -1.0155 -1.0623
19107TIP3    H278813   3.180   0.338  12.446 -1.0540 -3.1458  0.7269
19108TIP3   OH278814   0.242   3.229  14.679 -0.2517 -0.0879  0.0674
19108TIP3    H178815   0.299   3.276  14.619 -0.7599  0.2524 -0.1524
19108TIP3    H278816   0.278   3.248  14.766  0.7758 -0.9789 -0.1513
19109TIP3   OH278817   3.300   3.480   3.443 -0.2452  0.0769 -0.4089
19109TIP3    H178818   3.333   3.421   3.511  0.9578  1.2931  0.1093
19109TIP3    H278819   3.351   3.458   3.365 -0.3863 -0.1256 -0.4449
19110TIP3   OH278820   0.735   0.521  13.333  0.0171  0.1721  0.5627
19110TIP3    H178821   0.810   0.471  13.367 -1.4578 -1.8969  1.0201
19110TIP3    H278822   0.763   0.550  13.247  2.0165  1.1291  1.4520
19111TIP3   OH278823   4.683   1.133   3.011  0.1464  0.2329 -0.2365
19111TIP3    H178824   4.666   1.222   3.041  0.3733  0.1677  0.0887
19111TIP3    H278825   4.623   1.078   3.060 -1.1645  0.3679 -1.6209
19112TIP3   OH278826   6.830   2.443  11.269  0.0111 -0.3716 -0.0012
19112TIP3    H178827   6.789   2.386  11.205 -2.1233  0.4451  0.5202
19112TIP3    H278828   6.767   2.515  11.280  2.3363  1.8191 -0.2659
19113TIP3   OH278829   6.289   6.507   1.203 -0.0661  0.3198  0.3446
19113TIP3    H178830   6.284   6.462   1.119 -0.4303 -0.2235  0.6534
19113TIP3    H278831   6.380   6.537   1.208 -0.1239  0.6445 -0.3871
19114TIP3   OH278832   4.449   2.227  13.789 -0.0499  0.4264 -0.0480
19114TIP3    H178833   4.531   2.275  13.793  1.5983 -2.2757  1.9877
19114TIP3    H278834   4.462   2.151  13.846 -2.9022 -1.7366 -1.9526
19115TIP3   OH278835   2.551   1.913  14.286 -0.1977 -0.7605 -0.3627
19115TIP3    H178836   2.609   1.871  14.223 -0.9107  0.2678 -1.7804
19115TIP3    H278837   2.481   1.950  14.232 -1.6202 -1.0933  1.2026
19116TIP3   OH278838   5.235   4.254  10.321 -0.1486 -0.0883 -0.5300
19116TIP3    H178839   5.292   4.223  10.250 -0.8885  0.3723 -1.3503
19116TIP3    H278840   5.207   4.341  10.293 -1.3946 -0.3683 -0.2516
19117TIP3   OH278841   5.171   5.846  13.550  0.5739 -0.1977 -0.2783
19117TIP3    H178842   5.126   5.763  13.534  0.4629 -0.6497  2.0595
19117TIP3    H278843   5.150   5.900  13.473  1.2311 -2.5156 -2.2209
19118TIP3   OH278844   6.840   4.704   0.881 -0.2091  0.1482  0.1333
19118TIP3    H178845   6.896   4.706   0.803  0.3577 -2.4471  0.3651
19118TIP3    H278846   6.888   4.650   0.943 -2.1058 -0.5455  1.0778
19119TIP3   OH278847   4.459   0.723  16.333 -0.0025  0.2106  0.1344
19119TIP3    H178848   4.538   0.743  16.383 -0.0455 -0.5958  0.5478
19119TIP3    H278849   4.458   0.627  16.326 -1.9184  0.0287  1.8076
19120TIP3   OH278850   0.094   5.006  14.974  0.2645  0.8548  0.4663
19120TIP3    H178851   0.119   4.913  14.976 -0.3668  0.6886  1.3873
19120TIP3    H278852   0.172   5.053  15.002  0.2655  0.5104  1.0709
19121TIP3   OH278853   1.665   4.227   4.432  0.0609  0.1103 -0.4183
19121TIP3    H178854   1.686   4.152   4.376 -1.9321  0.4912 -1.7832
19121TIP3    H278855   1.659   4.301   4.371 -0.4248  0.8893  0.5547
19122TIP3   OH278856   5.720   4.322   2.423  0.5091 -0.4286  0.4006
19122TIP3    H178857   5.625   4.330   2.422  0.4201 -0.3589 -2.9235
19122TIP3    H278858   5.748   4.375   2.497 -1.9191  2.6287 -0.6468
19123TIP3   OH278859   2.422   4.355  13.562  0.5575 -0.2684  0.0004
19123TIP3    H178860   2.454   4.294  13.629  1.0745 -1.4102 -1.2255
19123TIP3    H278861   2.502   4.385  13.517  0.1669 -0.3396 -0.7618
19124TIP3   OH278862   0.137   1.534   5.128 -0.1394 -0.5780 -0.2317
19124TIP3    H178863   0.048   1.502   5.143 -0.5139  0.4517 -0.1968
19124TIP3    H278864   0.137   1.562   5.037 -0.2579  0.6594  0.1335
19125TIP3   OH278865   5.996   5.743   1.219  0.5161 -0.0044  0.5579
19125TIP3    H178866   5.908   5.704   1.220  1.0804 -1.3089  0.9262
19125TIP3    H278867   6.045   5.693   1.284  1.8305 -0.0131 -0.4087
19126TIP3   OH278868   5.853   4.962  16.622  0.1663  0.4886  0.1615
19126TIP3    H178869   5.863   4.911  16.703  1.8258 -0.7056 -0.7574
19126TIP3    H278870   5.927   4.937  16.568 -1.1304  0.9250 -1.9370
19127TIP3   OH278871   4.035   1.116   4.722  0.3528 -0.0721 -0.0580
19127TIP3    H178872   4.007   1.182   4.785 -0.7611 -0.5983  0.0197
19127TIP3    H278873   4.127   1.100   4.744 -0.4153 -1.4667  2.5820
19128TIP3   OH278874   5.785   6.780   3.513 -0.5647 -0.1292  0.5129
19128TIP3    H178875   5.723   6.724   3.465  0.6781 -0.5980 -0.5974
19128TIP3    H278876   5.758   6.869   3.492 -0.1477 -0.3313 -0.9237
19129TIP3   OH278877   3.735   5.689   5.345  0.0222 -0.5084  0.7125
19129TIP3    H178878   3.831   5.686   5.344  0.0317 -0.1932  0.5387
19129TIP3    H278879   3.711   5.708   5.254 -0.1892 -0.2331  0.8228
19130TIP3   OH278880   5.480   1.142   6.141  0.0404 -0.0726 -0.3274
19130TIP3    H178881   5.525   1.150   6.056 -0.8021  2.4258 -0.6347
19130TIP3    H278882   5.390   1.168   6.122 -0.3321 -0.1837  1.2190
19131TIP3   OH278883   2.789   3.951  16.602  0.7727 -0.0997 -0.1196
19131TIP3    H178884   2.866   4.008  16.599  1.3399 -0.8348 -0.1564
19131TIP3    H278885   2.804   3.887  16.532  0.0705 -0.1862 -0.1993
19132TIP3   OH278886   1.930   4.559   0.519  0.3099 -0.0972  0.7279
19132TIP3    H178887   1.951   4.561   0.425  0.4042  0.1656  0.7546
19132TIP3    H278888   1.909   4.467   0.536  3.9708 -0.9759  1.2636
19133TIP3   OH278889   0.815   0.899   4.474  0.2464  0.2931  0.1095
19133TIP3    H178890   0.831   0.804   4.468 -0.4262 -0.2398  4.0051
19133TIP3    H278891   0.719   0.906   4.481  0.3791  1.0342  1.5213
19134TIP3   OH278892   4.692   3.859  13.229 -0.0591  0.2672  0.0822
19134TIP3    H178893   4.695   3.954  13.225 -0.3059  0.3660  1.6126
19134TIP3    H278894   4.774   3.834  13.272  1.8507 -0.5287 -3.6148
19135TIP3   OH278895   0.957   4.657   4.692  0.2989 -0.4655  0.6421
19135TIP3    H178896   0.932   4.566   4.672 -0.4149 -1.0185  3.5805
19135TIP3    H278897   1.052   4.659   4.681  0.4075 -1.7714  1.2033
19136TIP3   OH278898   4.738   0.678   0.257  0.0429 -0.3877 -0.5089
19136TIP3    H178899   4.678   0.676   0.332  0.8832  0.1060  0.1996
19136TIP3    H278900   4.823   0.699   0.296  0.3989  0.3676 -1.6584
19137TIP3   OH278901   3.353   2.727   4.759  0.0271  0.2053  0.2767
19137TIP3    H178902   3.446   2.728   4.784  0.1908 -0.7805 -0.2414
19137TIP3    H278903   3.354   2.709   4.665 -0.7158 -1.3811  0.5442
19138TIP3   OH278904   5.032   4.198   6.296  0.4506 -0.0242  1.1940
19138TIP3    H178905   5.123   4.180   6.319  0.9023 -0.7239 -0.8810
19138TIP3    H278906   5.036   4.275   6.239 -0.1798 -0.3831  0.6499
19139TIP3   OH278907   2.968   4.047   4.117 -0.1657 -0.5003 -0.3519
19139TIP3    H178908   2.994   4.064   4.027  1.3090 -0.8058 -0.0121
19139TIP3    H278909   2.943   3.954   4.118  1.9600 -1.1028 -0.0060
19140TIP3   OH278910   1.345   3.041   3.887 -0.3554  0.0681  0.3304
19140TIP3    H178911   1.350   3.108   3.955  1.1938  0.6191 -0.2608
19140TIP3    H278912   1.312   3.088   3.810  0.3137  0.0837  0.0369
19141TIP3   OH278913   2.181   0.846  10.672 -0.4399  0.2167 -0.1256
19141TIP3    H178914   2.155   0.936  10.692 -1.5538 -0.2775  0.7524
19141TIP3    H278915   2.242   0.855  10.599  0.4007  1.7754  0.7168
19142TIP3   OH278916   1.722   4.321  16.927  0.1236  0.0908 -0.4538
19142TIP3    H178917   1.778   4.369  16.866 -1.3852 -0.8135 -2.6704
19142TIP3    H278918   1.746   4.229  16.914  4.5391 -0.1302  5.2450
19143TIP3   OH278919   2.726   2.572  16.362 -0.0743 -0.0183 -0.2841
19143TIP3    H178920   2.752   2.563  16.270 -1.9615 -3.1106 -0.6433
19143TIP3    H278921   2.797   2.533  16.412  0.1410  0.0436 -0.5388
19144TIP3   OH278922   0.116   0.550  12.162 -0.5449 -0.6770  0.4138
19144TIP3    H178923   0.085   0.470  12.205 -0.4458 -2.1228 -2.0226
19144TIP3    H278924   0.211   0.540  12.156 -0.6003 -0.7413 -0.5309
19145TIP3   OH278925   6.529   4.038  10.560 -0.3741  0.3504  0.8868
19145TIP3    H178926   6.518   4.131  10.542  2.5164  0.8060  0.9534
19145TIP3    H278927   6.598   4.010  10.499  0.7825 -1.0301  2.7097
19146TIP3   OH278928   0.039   6.474   1.901 -0.3152 -0.0774 -0.2488
19146TIP3    H178929  -0.050   6.439   1.897 -0.6893  0.8430 -0.3191
19146TIP3    H278930   0.091   6.412   1.850 -1.3990  0.7088 -2.4661
19147TIP3   OH278931   1.436   1.827   3.129  0.3395  0.1573  0.1600
19147TIP3    H178932   1.344   1.802   3.135  0.5380 -0.6647 -0.1202
19147TIP3    H278933   1.482   1.745   3.114  1.2391  0.4081  1.4347
19148TIP3   OH278934   4.357   4.626   5.744 -0.0815 -0.4307  0.1475
19148TIP3    H178935   4.364   4.572   5.823  0.3431  1.4898  1.4702
19148TIP3    H278936   4.311   4.570   5.681 -4.6689 -0.5187  3.1362
19149TIP3   OH278937   0.683   6.684   4.906  0.5495 -0.7309  0.3911
19149TIP3    H178938   0.760   6.634   4.934 -0.3086 -2.1821  0.2529
19149TIP3    H278939   0.611   6.650   4.959 -0.3749 -0.7923 -0.8543
19150TIP3   OH278940   1.673   5.971  16.763 -0.3196 -0.2563 -0.2013
19150TIP3    H178941   1.600   6.026  16.735 -0.2090 -1.0168 -2.1211
19150TIP3    H278942   1.632   5.903  16.816 -0.7645  0.2824  0.1679
19151TIP3   OH278943   5.663   5.476  11.095 -0.1917  0.1995  0.3707
19151TIP3    H178944   5.624   5.401  11.140  1.0698 -0.1864  0.8561
19151TIP3    H278945   5.723   5.514  11.159  2.0234 -0.6493 -1.0971
19152TIP3   OH278946   4.892   4.774  12.241  0.0805 -0.4526 -0.3142
19152TIP3    H178947   4.962   4.839  12.243  1.5203 -1.9311 -0.0365
19152TIP3    H278948   4.874   4.760  12.148 -0.0005  0.0815 -0.3817
19153TIP3   OH278949   0.749   4.041   3.751  0.4699 -0.7488 -0.1540
19153TIP3    H178950   0.821   4.101   3.771 -0.4753  0.5348 -0.5143
19153TIP3    H278951   0.707   4.078   3.673 -0.5226 -1.5352 -0.0191
19154TIP3   OH278952   3.652   4.120  13.834 -0.3872  0.4175  0.0896
19154TIP3    H178953   3.694   4.200  13.866  1.6122 -0.5691  0.0910
19154TIP3    H278954   3.655   4.061  13.909 -2.0226  0.3712  0.1455
19155TIP3   OH278955   0.603   2.481  12.912  0.5461 -0.1663  0.3571
19155TIP3    H178956   0.693   2.450  12.905  0.4848 -0.0610 -1.2355
19155TIP3    H278957   0.553   2.404  12.937  0.7953 -0.7281 -0.8231
19156TIP3   OH278958   0.042   0.225  13.940 -1.1164  0.0057 -0.5140
19156TIP3    H178959   0.065   0.292  14.004 -1.6485 -0.0192 -0.2869
19156TIP3    H278960   0.112   0.229  13.875 -0.5957  0.0634  0.0424
19157TIP3   OH278961   0.967   1.340   2.830  0.2529  0.2346 -0.6482
19157TIP3    H178962   1.058   1.354   2.857  0.2592  0.0227 -0.5563
19157TIP3    H278963   0.951   1.247   2.848 -0.0006  0.2859 -0.6077
19158TIP3   OH278964   0.488   1.254  12.092 -0.2247  0.3177  0.2698
19158TIP3    H178965   0.487   1.262  12.188  0.6763  1.8881  0.1805
19158TIP3    H278966   0.579   1.238  12.070 -0.5906 -1.1652 -0.2869
19159TIP3   OH278967   5.641   6.481   4.265  0.4475  0.0501  1.3999
19159TIP3    H178968   5.618   6.567   4.302  0.4686  0.5818  0.2330
19159TIP3    H278969   5.695   6.440   4.332 -0.2227  0.6104  2.3195
19160TIP3   OH278970   4.899   2.163   0.978  0.6113 -0.5709  0.0079
19160TIP3    H178971   4.990   2.141   0.955  0.4429 -0.4669 -0.7765
19160TIP3    H278972   4.886   2.251   0.944  0.2064 -0.5934  0.0998
19161TIP3   OH278973   4.089   0.933   1.366  0.5034 -0.1154  0.3688
19161TIP3    H178974   4.037   0.975   1.435  3.1007  0.4481  2.1208
19161TIP3    H278975   4.172   0.912   1.408  2.0846 -0.1191 -2.5146
19162TIP3   OH278976   3.434   2.714   2.561 -0.2370 -0.0522  0.0049
19162TIP3    H178977   3.465   2.737   2.649 -0.0399  1.0067 -0.3248
19162TIP3    H278978   3.427   2.798   2.515 -0.2349 -0.5977 -1.0301
19163TIP3   OH278979   5.281   5.886   3.841  0.6514 -0.0198  0.4895
19163TIP3    H178980   5.262   5.859   3.931  0.8557  0.7479  0.7708
19163TIP3    H278981   5.376   5.895   3.838  0.5523  1.4394  0.6561
19164TIP3   OH278982   1.019   0.641  12.324  0.4157  0.0979 -0.3499
19164TIP3    H178983   1.031   0.694  12.402  0.3061  0.3631 -0.5097
19164TIP3    H278984   1.083   0.676  12.261  0.7695 -0.3673 -0.2520
19165TIP3   OH278985   5.543   6.191   1.655  0.1317  0.5943  0.0433
19165TIP3    H178986   5.580   6.276   1.628  0.8260  0.4537  0.5266
19165TIP3    H278987   5.529   6.201   1.749 -0.8578  0.5625 -0.0992
19166TIP3   OH278988   0.478   2.601   5.372  0.3654  0.0586  0.4407
19166TIP3    H178989   0.486   2.670   5.305 -2.0888 -0.1277 -0.1074
19166TIP3    H278990   0.483   2.648   5.455  1.9467  0.4675  0.1557
19167TIP3   OH278991   2.328   3.658   0.647 -0.2350 -0.0896  0.6501
19167TIP3    H178992   2.413   3.669   0.605 -0.6471 -1.5410 -0.6413
19167TIP3    H278993   2.347   3.616   0.731  0.2850 -0.6832  0.2334
19168TIP3   OH278994   3.054   0.642   4.186  0.5279 -0.2907  0.7241
19168TIP3    H178995   3.099   0.562   4.160 -0.2225 -0.0047 -1.7185
19168TIP3    H278996   2.962   0.616   4.196  0.0845  0.3736 -1.1065
19169TIP3   OH278997   3.924   6.427   0.153  0.8743 -0.0355 -0.0511
19169TIP3    H178998   3.868   6.448   0.228 -0.6816 -1.1918 -0.8123
19169TIP3    H278999   3.927   6.331   0.153  0.1740 -0.0886 -1.8901
19170TIP3   OH279000   4.876   3.169  15.323  0.1941 -0.1765  0.7189
19170TIP3    H179001   4.961   3.208  15.343  0.1679  0.3212 -0.0858
19170TIP3    H279002   4.822   3.242  15.293 -0.9563 -0.2492  2.4788
19171TIP3   OH279003   5.567   3.657   6.488  0.0547  0.7093 -0.6276
19171TIP3    H179004   5.532   3.674   6.575  0.1703  0.7855 -0.5958
19171TIP3    H279005   5.583   3.563   6.486  1.4659  0.9175 -0.0385
19172TIP3   OH279006   5.375   2.375  16.830  0.0311 -0.1619  0.4297
19172TIP3    H179007   5.414   2.378  16.743 -0.7439 -0.5243  0.0629
19172TIP3    H279008   5.285   2.404  16.817  0.4030  1.5873  1.4076
19173TIP3   OH279009   5.009   6.445   2.833 -0.0064  0.1597 -0.3744
19173TIP3    H179010   5.055   6.430   2.750  1.8992  0.8279  0.5267
19173TIP3    H279011   4.967   6.530   2.822  1.4537  0.9244 -0.1396
19174TIP3   OH279012   1.243   3.391  13.687  0.5060  0.5105 -0.5637
19174TIP3    H179013   1.295   3.436  13.753  0.6440  0.9586 -0.9707
19174TIP3    H279014   1.163   3.365  13.733  1.5684 -1.2449  0.3849
19175TIP3   OH279015   2.281   6.144   5.745 -0.7602 -0.3656 -0.1101
19175TIP3    H179016   2.250   6.065   5.700 -0.5358  0.0491 -1.0201
19175TIP3    H279017   2.267   6.214   5.681  0.3100  0.1200  0.1697
19176TIP3   OH279018   5.958   6.247  14.951  0.2828 -0.6997  0.5159
19176TIP3    H179019   5.975   6.211  15.038 -0.6968 -1.5806  0.3616
19176TIP3    H279020   5.952   6.170  14.894  2.1328 -0.0950 -0.5847
19177TIP3   OH279021   6.276   1.163  12.789  0.2757  0.1831 -0.4896
19177TIP3    H179022   6.349   1.215  12.824  0.0651 -0.6560  1.2762
19177TIP3    H279023   6.264   1.092  12.852 -1.0568 -0.6071 -1.5708
19178TIP3   OH279024   6.822   4.152   1.306  0.4944 -0.4967 -0.0353
19178TIP3    H179025   6.917   4.164   1.306  0.3597  0.7125  0.3223
19178TIP3    H279026   6.790   4.217   1.244 -0.1115 -0.8540 -0.0991
19179TIP3   OH279027   3.878   0.613  10.388 -0.3847 -0.3094 -0.0178
19179TIP3    H179028   3.904   0.678  10.323 -0.7333 -2.4983 -2.5032
19179TIP3    H279029   3.958   0.595  10.437  0.8286 -0.9378 -2.0739
19180TIP3   OH279030   5.920   3.777   4.477 -0.1209 -0.3867 -0.2231
19180TIP3    H179031   5.886   3.733   4.399 -0.4794 -1.4634  0.5053
19180TIP3    H279032   6.014   3.781   4.463 -0.1304 -0.9981 -0.5082
19181TIP3   OH279033   3.939   1.520  12.401 -0.2675  0.6060  0.1346
19181TIP3    H179034   3.847   1.525  12.375 -0.3075  0.8968  0.3197
19181TIP3    H279035   3.988   1.545  12.323 -0.3898  1.5648  0.3468
19182TIP3   OH279036   6.155   5.727  13.361  0.4925  0.1314 -0.1793
19182TIP3    H179037   6.103   5.661  13.315  0.2760 -0.1530  0.4541
19182TIP3    H279038   6.093   5.798  13.377  0.4984  0.1178 -0.0974
19183TIP3   OH279039   0.995   3.666   3.274 -0.2892  0.7501 -0.6014
19183TIP3    H179040   1.072   3.636   3.322 -0.4452  0.4416 -0.5388
19183TIP3    H279041   0.942   3.587   3.263 -1.7807  1.4040  1.4951
19184TIP3   OH279042   6.384   2.887  15.846  0.2278 -0.0777  0.3752
19184TIP3    H179043   6.456   2.904  15.785 -0.8161  3.1636 -0.1478
19184TIP3    H279044   6.336   2.815  15.807  1.9232 -0.8359 -0.4143
19185TIP3   OH279045   4.784   6.215  15.749  0.4181 -0.8403  0.4538
19185TIP3    H179046   4.830   6.161  15.685  0.2428  0.8877 -1.2210
19185TIP3    H279047   4.853   6.265  15.792  0.5659 -2.2030  1.8991
19186TIP3   OH279048   3.257   6.818  16.754 -0.2423 -0.0474 -0.2253
19186TIP3    H179049   3.223   6.777  16.675 -0.8973  2.6462 -1.4133
19186TIP3    H279050   3.350   6.832  16.735 -0.2966  0.1766 -0.3237
19187TIP3   OH279051   0.160   4.936   0.133 -0.1249 -0.5623  0.6983
19187TIP3    H179052   0.192   5.021   0.165 -0.0542  0.2122 -1.2642
19187TIP3    H279053   0.101   4.905   0.201 -2.7957  2.6623  0.0947
19188TIP3   OH279054   3.811   2.709   2.083 -0.1241 -0.3878  0.6524
19188TIP3    H179055   3.744   2.688   2.148  0.8988 -0.3476  1.7461
19188TIP3    H279056   3.865   2.630   2.077 -0.3218 -0.4659 -0.3110
19189TIP3   OH279057   4.388   5.888  12.388  0.2353  0.7867 -0.7010
19189TIP3    H179058   4.373   5.820  12.323 -3.0360 -0.3640  1.0275
19189TIP3    H279059   4.335   5.962  12.358  1.3885  1.5366 -0.9935
19190TIP3   OH279060   4.696   6.174  12.152  0.3801 -0.0950 -0.5691
19190TIP3    H179061   4.717   6.081  12.150 -0.0666 -0.1965 -2.3008
19190TIP3    H279062   4.671   6.192  12.243  1.3045 -1.4578 -0.0192
19191TIP3   OH279063   2.593   4.661  10.323  0.0881  0.0086 -0.8004
19191TIP3    H179064   2.627   4.578  10.356 -0.5052 -0.5588 -1.5909
19191TIP3    H279065   2.629   4.670  10.235 -0.5007  0.1865 -1.0322
19192TIP3   OH279066   5.664   1.077  11.161 -0.7187 -0.0079 -0.8677
19192TIP3    H179067   5.624   1.001  11.203  0.5932 -0.8945 -1.1633
19192TIP3    H279068   5.659   1.058  11.067 -0.4556  0.3076 -0.9463
19193TIP3   OH279069   6.382   5.732  12.381 -0.1467  0.4436  0.0815
19193TIP3    H179070   6.299   5.776  12.362 -0.3508 -0.4607 -1.2651
19193TIP3    H279071   6.382   5.655  12.324  1.9574  0.8358 -0.5301
19194TIP3   OH279072   0.364   0.244   6.008 -0.0855  0.2718  0.4030
19194TIP3    H179073   0.349   0.264   6.100  0.5738  0.1869  0.5393
19194TIP3    H279074   0.439   0.298   5.984 -0.1695  0.1935 -0.0453
19195TIP3   OH279075   6.574   3.715   6.166 -0.8397  0.1422  0.1065
19195TIP3    H179076   6.583   3.810   6.163  2.8479 -0.0713 -0.2187
19195TIP3    H279077   6.560   3.695   6.258  2.8415  0.9181  1.0006
19196TIP3   OH279078   5.696   6.003  12.667  0.2177 -0.5896 -0.8528
19196TIP3    H179079   5.676   6.076  12.610  0.3942  0.0845 -0.0714
19196TIP3    H279080   5.791   5.991  12.659 -0.0627 -2.0962 -2.5592
19197TIP3   OH279081   6.329   5.970   4.378 -0.3580 -0.0864 -0.3999
19197TIP3    H179082   6.242   5.999   4.349 -0.2989 -1.1783 -1.7985
19197TIP3    H279083   6.327   5.875   4.366  1.4961  0.0056 -1.8690
19198TIP3   OH279084   0.280   6.594   4.691 -0.2201 -0.2904 -0.1160
19198TIP3    H179085   0.266   6.657   4.762 -0.1983  1.0913 -1.2965
19198TIP3    H279086   0.223   6.520   4.713 -0.3955  0.2105  1.2020
19199TIP3   OH279087   3.048   1.562   2.009  0.1005  0.0988  0.6443
19199TIP3    H179088   3.041   1.658   2.006 -2.1965 -0.0448 -0.9386
19199TIP3    H279089   2.986   1.536   2.077 -0.1344 -0.3190  0.2721
19200TIP3   OH279090   6.035   2.720   2.744  0.1693 -0.3768  0.1845
19200TIP3    H179091   6.111   2.718   2.802 -1.1694 -1.7887  2.0197
19200TIP3    H279092   6.060   2.664   2.670  1.6366  0.8531 -0.2958
19201TIP3   OH279093   6.061   5.396   0.416  0.1878  0.3510 -0.0306
19201TIP3    H179094   6.066   5.337   0.341 -0.2088 -1.3116  1.1894
19201TIP3    H279095   5.981   5.447   0.402  0.6828  0.8499 -1.2324
19202TIP3   OH279096   5.303   6.032   2.379  0.1335  0.6227 -0.4680
19202TIP3    H179097   5.352   5.965   2.331  1.0588  0.5859  0.4704
19202TIP3    H279098   5.362   6.057   2.451 -1.2634  0.5184  0.7664
19203TIP3   OH279099   1.226   4.056  10.798 -0.5745 -0.2960  0.3568
19203TIP3    H179100   1.179   4.011  10.727  0.0821  0.7738 -0.8121
19203TIP3    H279101   1.197   4.147  10.791  1.8654  0.4745 -0.6316
19204TIP3   OH279102   2.486   6.567  13.205 -0.0106  0.2994 -0.0009
19204TIP3    H179103   2.527   6.506  13.144  1.5081  1.6416 -0.3858
19204TIP3    H279104   2.410   6.601  13.158 -0.1997 -0.4155 -0.2208
19205TIP3   OH279105   5.631   6.344   2.806  0.6850 -0.4363 -0.5670
19205TIP3    H179106   5.717   6.320   2.770  0.9605  1.2112 -1.1048
19205TIP3    H279107   5.645   6.347   2.901  1.5605  0.9039 -0.7039
19206TIP3   OH279108   0.484   3.460   0.812 -0.4019 -0.1357 -0.2099
19206TIP3    H179109   0.444   3.461   0.899 -1.8499  0.0094 -0.8369
19206TIP3    H279110   0.411   3.480   0.753  0.2893 -1.4004 -1.5536
19207TIP3   OH279111   0.245   4.770   4.210 -0.0827 -0.2118  0.1319
19207TIP3    H179112   0.239   4.860   4.244 -1.2177  0.5716 -1.9815
19207TIP3    H279113   0.339   4.756   4.199  0.1199  0.6982  0.5216
19208TIP3   OH279114   0.200   2.725   0.795  0.0302 -0.1069 -0.2587
19208TIP3    H179115   0.269   2.700   0.856 -0.0591  0.0917 -0.0743
19208TIP3    H279116   0.207   2.821   0.789  0.3356 -0.1669 -0.9142
19209TIP3   OH279117   1.019   0.918  15.562  0.0995 -0.4420  0.2926
19209TIP3    H179118   1.100   0.932  15.513 -0.1838  0.8002  0.1361
19209TIP3    H279119   0.968   0.859  15.507  0.8243 -1.0860  0.3051
19210TIP3   OH279120   0.136   2.941   1.188 -0.0679  0.4939 -0.2668
19210TIP3    H179121   0.086   2.893   1.254  1.4501 -0.2057  0.4198
19210TIP3    H279122   0.082   2.936   1.109 -0.7358 -0.8695  0.2442
19211TIP3   OH279123   3.108   6.220   3.716 -0.3540 -0.6036  0.0427
19211TIP3    H179124   3.162   6.298   3.703 -0.1615 -0.5727  0.9126
19211TIP3    H279125   3.033   6.232   3.658  0.4271 -0.5128 -0.9816
19212TIP3   OH279126   0.393   6.830   2.800 -0.3531  0.2816  0.2687
19212TIP3    H179127   0.453   6.762   2.831  0.0446  0.3819 -0.2596
19212TIP3    H279128   0.437   6.912   2.823  0.3114  0.3633 -1.1975
19213TIP3   OH279129   1.599   2.626  14.303  0.3629  0.3857  0.4275
19213TIP3    H179130   1.551   2.707  14.316  0.3865  0.3719  0.6096
19213TIP3    H279131   1.600   2.584  14.389 -1.0790 -0.6094 -0.0089
19214TIP3   OH279132   6.683   1.226   4.550 -0.0965 -0.2096  0.5603
19214TIP3    H179133   6.763   1.203   4.597  0.4270  2.5353  1.1749
19214TIP3    H279134   6.694   1.186   4.463  1.5265 -0.6216  0.9224
19215TIP3   OH279135   3.939   4.701   1.955  0.2424  0.2136 -0.3198
19215TIP3    H179136   3.911   4.679   2.044 -0.0943 -2.0386 -0.9070
19215TIP3    H279137   4.034   4.690   1.956  0.1024 -1.3112 -0.5477
19216TIP3   OH279138   6.490   6.834  12.521 -0.7063  0.0703  0.0786
19216TIP3    H179139   6.493   6.837  12.426 -0.7940 -0.0398  0.0716
19216TIP3    H279140   6.476   6.925  12.547 -0.8678  0.0745 -0.0216
19217TIP3   OH279141   1.557   0.490   1.564 -0.1100 -0.4673 -0.2606
19217TIP3    H179142   1.485   0.506   1.503 -0.7866  0.0257  0.6463
19217TIP3    H279143   1.515   0.485   1.650  0.8880 -0.6408  0.2314
19218TIP3   OH279144   2.531   0.846  17.027  0.2948 -0.0241 -0.6150
19218TIP3    H179145   2.529   0.839  16.932  3.6215  0.8504 -0.8712
19218TIP3    H279146   2.576   0.766  17.056  0.3030  0.2288  0.1029
19219TIP3   OH279147   5.987   3.509  16.977 -0.2275  0.2881 -0.2472
19219TIP3    H179148   5.915   3.464  17.020  0.0512  0.6331  0.6039
19219TIP3    H279149   5.954   3.598  16.962 -0.6476 -0.0656 -1.5966
19220TIP3   OH279150   5.736   0.677  11.080  0.6150 -0.7197 -0.0173
19220TIP3    H179151   5.672   0.688  11.010  0.8320 -1.2828 -0.3109
19220TIP3    H279152   5.724   0.587  11.110 -0.4394 -0.0788  1.6464
19221TIP3   OH279153   5.533   4.612  16.471  0.0559 -0.3772 -0.2101
19221TIP3    H179154   5.625   4.639  16.469  0.2816 -1.1401 -1.0113
19221TIP3    H279155   5.536   4.517  16.477 -0.6844 -0.4221 -0.4044
19222TIP3   OH279156   4.358   5.232  15.044  0.2077  0.2432  0.3857
19222TIP3    H179157   4.390   5.256  14.957  0.9397  0.3126  0.6606
19222TIP3    H279158   4.361   5.137  15.046 -0.9269  0.1879 -0.0631
19223TIP3   OH279159   2.310   6.601  12.523 -0.0621  0.2637  0.1213
19223TIP3    H179160   2.368   6.541  12.569 -3.8052 -4.0594 -0.0686
19223TIP3    H279161   2.335   6.592  12.431 -0.9809 -1.7718  0.0081
19224TIP3   OH279162   3.627   2.541  16.468 -0.2388 -0.1376 -0.3898
19224TIP3    H179163   3.625   2.553  16.373 -1.9877  2.1152 -0.1642
19224TIP3    H279164   3.657   2.451  16.481  1.0787 -0.1503 -3.0121
19225TIP3   OH279165   3.757   5.979   5.102  0.1548 -0.4291  0.8017
19225TIP3    H179166   3.813   5.907   5.072  1.3776  1.0083 -0.5373
19225TIP3    H279167   3.670   5.941   5.107  0.7442 -1.9662 -0.0372
19226TIP3   OH279168   3.637   3.087  14.668  0.1598  0.6050  0.0250
19226TIP3    H179169   3.599   2.999  14.667  1.7981 -0.1410 -0.6956
19226TIP3    H279170   3.574   3.140  14.717 -1.3738 -0.7229 -0.4118
19227TIP3   OH279171   5.413   4.041   1.715 -0.5050  0.0758  0.1064
19227TIP3    H179172   5.351   4.095   1.666 -1.3187 -1.9382 -1.2456
19227TIP3    H279173   5.423   3.962   1.661  1.7274 -0.5253  1.2667
19228TIP3   OH279174   4.337   5.123  16.860 -0.0844  0.4165  0.0383
19228TIP3    H179175   4.343   5.190  16.791  0.3359 -0.5592 -0.8988
19228TIP3    H279176   4.389   5.159  16.932 -2.1674  2.3723  0.6830
19229TIP3   OH279177   4.098   3.489   0.657 -0.2124 -0.1209 -0.3928
19229TIP3    H179178   4.007   3.487   0.687 -0.4962  0.4626 -1.2077
19229TIP3    H279179   4.149   3.503   0.737 -0.8868  0.3447 -0.0397
19230TIP3   OH279180   3.163   4.190   1.873 -0.5614 -0.1560  0.5467
19230TIP3    H179181   3.238   4.164   1.819 -1.2275 -1.8262  0.3724
19230TIP3    H279182   3.104   4.235   1.813 -0.6028 -0.6428  0.2202
19231TIP3   OH279183   5.658   5.958  11.500 -0.1513  0.3845  0.6992
19231TIP3    H179184   5.601   5.902  11.448 -0.2428  0.7973  0.3551
19231TIP3    H279185   5.638   6.047  11.471  0.6781  0.5320  0.5557
19232TIP3   OH279186   5.812   3.304  15.655  0.5945  0.1639  0.3881
19232TIP3    H179187   5.886   3.359  15.629  2.1703 -1.7960  0.4734
19232TIP3    H279188   5.822   3.293  15.750 -0.8090  1.2119  0.6940
19233TIP3   OH279189   4.863   6.529  14.574  0.5326 -0.4002  0.3357
19233TIP3    H179190   4.848   6.623  14.564 -2.7890 -0.8381 -0.1490
19233TIP3    H279191   4.894   6.500  14.488 -1.8867 -0.1794 -0.6938
19234TIP3   OH279192   2.200   4.007  13.602 -0.3196  0.4268 -0.2521
19234TIP3    H179193   2.138   4.015  13.676  0.2950  1.3794  0.1890
19234TIP3    H279194   2.235   3.919  13.609  0.6350  0.8905  1.3626
19235TIP3   OH279195   5.681   1.380   2.513  0.2251 -0.0559  0.5033
19235TIP3    H179196   5.661   1.320   2.443 -0.6129 -0.1354  0.8029
19235TIP3    H279197   5.687   1.466   2.471 -1.8121  0.1425  0.5322
19236TIP3   OH279198   0.379   5.366   2.241 -0.2983 -0.7916  0.5197
19236TIP3    H179199   0.359   5.419   2.164 -0.4810 -0.0985  1.0430
19236TIP3    H279200   0.347   5.278   2.218  0.0698 -0.6996 -0.3721
19237TIP3   OH279201   2.073   2.510  10.693 -0.2732 -0.4202 -0.6567
19237TIP3    H179202   1.983   2.481  10.707 -0.9244  0.7955 -2.0286
19237TIP3    H279203   2.117   2.433  10.656 -0.7410 -1.0258  0.0234
19238TIP3   OH279204   0.285   4.092   2.350 -0.1549  0.0837 -0.2188
19238TIP3    H179205   0.368   4.140   2.344 -0.0706  0.0108  0.3095
19238TIP3    H279206   0.280   4.065   2.442 -1.5066  1.4348  0.1634
19239TIP3   OH279207   1.733   6.741   5.932  0.5825 -0.9626 -0.1571
19239TIP3    H179208   1.703   6.671   5.990  0.1185 -1.8198 -1.3725
19239TIP3    H279209   1.721   6.821   5.982 -1.4240 -1.5037  0.3409
19240TIP3   OH279210   4.248   1.793   2.887  0.4248  0.1928  0.1107
19240TIP3    H179211   4.246   1.888   2.888  0.7505  0.2017 -0.0007
19240TIP3    H279212   4.317   1.771   2.825  0.7218 -0.1086  0.5424
19241TIP3   OH279213   1.056   0.400  13.622  0.3395 -0.1503 -0.6558
19241TIP3    H179214   1.119   0.328  13.615 -0.2190 -0.6749 -0.4220
19241TIP3    H279215   1.039   0.426  13.531  0.7395 -0.1391 -0.7291
19242TIP3   OH279216   4.225   0.714   2.403 -0.1387 -0.5665 -0.4206
19242TIP3    H179217   4.130   0.729   2.412  0.1780  3.2697 -1.3585
19242TIP3    H279218   4.265   0.782   2.457  2.1432 -2.2914  0.1900
19243TIP3   OH279219   0.735   6.747   3.778  0.0483  0.5143 -0.3043
19243TIP3    H179220   0.679   6.676   3.811 -1.1802  0.7523 -1.7815
19243TIP3    H279221   0.803   6.702   3.727  0.6721  0.2825  0.7010
19244TIP3   OH279222   2.177   0.753   2.660 -0.2463  0.1259 -0.6857
19244TIP3    H179223   2.088   0.717   2.655 -0.6225  1.1823 -3.0926
19244TIP3    H279224   2.163   0.847   2.674  0.3849  0.5106 -2.3865
19245TIP3   OH279225   0.648   2.858   5.917 -0.3861  1.3891 -0.0371
19245TIP3    H179226   0.580   2.790   5.913 -0.9693  1.8491  1.4269
19245TIP3    H279227   0.599   2.940   5.917  0.2735  1.7939 -0.8139
19246TIP3   OH279228   1.866   2.799  15.098  0.2693  0.4130 -0.0200
19246TIP3    H179229   1.772   2.782  15.101  0.3618  0.0003  0.9986
19246TIP3    H279230   1.899   2.770  15.183  0.8977  3.0254  0.7269
19247TIP3   OH279231   0.927   5.706  15.364 -0.0592 -0.9657  0.1459
19247TIP3    H179232   0.975   5.627  15.338 -1.0338 -1.5055 -0.0793
19247TIP3    H279233   0.913   5.696  15.458 -0.5037 -1.2517  0.0530
19248TIP3   OH279234   4.241   3.147   1.189  0.0727 -0.2457 -0.2233
19248TIP3    H179235   4.318   3.163   1.135  0.7248 -0.5187  0.5993
19248TIP3    H279236   4.253   3.205   1.265 -0.0756 -0.9361  0.3407
19249TIP3   OH279237   6.205   4.665  16.769 -0.0556 -0.1070 -1.1063
19249TIP3    H179238   6.275   4.729  16.778 -1.1393  1.0893 -0.7366
19249TIP3    H279239   6.145   4.685  16.841 -0.1279 -1.9531 -0.6130
19250TIP3   OH279240   0.727   3.010   5.132 -0.0886  0.1224 -0.3562
19250TIP3    H179241   0.660   3.077   5.117  1.1405  1.2339 -1.1184
19250TIP3    H279242   0.810   3.057   5.123  0.8145 -1.4966 -0.8367
19251TIP3   OH279243   0.313   6.688  11.075  0.3862 -0.0356 -0.8490
19251TIP3    H179244   0.312   6.782  11.094 -0.1738 -0.0874 -0.6125
19251TIP3    H279245   0.386   6.677  11.014  0.6762  0.4996 -0.6070
19252TIP3   OH279246   3.851   1.664  13.206 -0.1627 -0.2582 -0.0034
19252TIP3    H179247   3.915   1.730  13.178 -0.6565 -1.0666 -3.5261
19252TIP3    H279248   3.901   1.583  13.208 -0.8385 -0.8189 -2.3466
19253TIP3   OH279249   1.974   6.141  15.507 -0.1249 -0.0732 -0.3442
19253TIP3    H179250   1.926   6.159  15.587  0.0728  0.0707 -0.2565
19253TIP3    H279251   2.063   6.122  15.536 -0.1675 -0.5021 -0.4920
19254TIP3   OH279252   4.095   2.508  12.042  0.4215  1.0037  0.2367
19254TIP3    H179253   4.173   2.551  12.006  0.0547  0.2778 -1.5264
19254TIP3    H279254   4.023   2.541  11.988 -0.1690 -0.0750  0.3548
19255TIP3   OH279255   2.117   3.281   4.021  0.6052  0.3005 -0.2132
19255TIP3    H179256   2.049   3.348   4.019  0.0825 -0.2312 -1.8613
19255TIP3    H279257   2.199   3.329   4.018  0.2344  0.8934 -1.5795
19256TIP3   OH279258   0.651   1.044   0.175 -0.1118 -0.3814  0.6722
19256TIP3    H179259   0.578   1.084   0.128 -0.2560  0.1837  1.3570
19256TIP3    H279260   0.650   0.952   0.147  0.5702  0.1656 -1.3544
19257TIP3   OH279261   5.249   1.691  10.340 -0.5193 -0.9077  0.2641
19257TIP3    H179262   5.207   1.723  10.420 -0.7164 -0.2008 -0.1231
19257TIP3    H279263   5.180   1.694  10.274  0.1695  0.4483 -0.4284
19258TIP3   OH279264   0.309   1.539  15.755 -0.1372  0.3382 -0.7240
19258TIP3    H179265   0.235   1.574  15.805 -1.3730 -0.6546 -1.7916
19258TIP3    H279266   0.334   1.460  15.803  1.2985  1.4950  0.5170
19259TIP3   OH279267   6.019   4.812  14.646 -0.0001 -0.6722  0.3343
19259TIP3    H179268   6.101   4.779  14.609 -0.5794 -1.1233 -0.5875
19259TIP3    H279269   6.005   4.760  14.724  0.5737 -0.6168  0.4783
19260TIP3   OH279270   4.422   2.348  15.770 -0.3519  0.0113  0.4985
19260TIP3    H179271   4.380   2.263  15.782  1.2039 -1.0669 -1.1236
19260TIP3    H279272   4.350   2.407  15.747 -1.4691 -0.8279  1.7109
19261TIP3   OH279273   6.352   1.206  11.462  0.0178 -0.6888 -0.0790
19261TIP3    H179274   6.329   1.181  11.552 -3.3531  0.1204 -0.5900
19261TIP3    H279275   6.324   1.132  11.408 -0.7413  0.0379 -0.7026
19262TIP3   OH279276   4.134   0.566   1.243 -0.5699 -0.4311 -0.0972
19262TIP3    H179277   4.132   0.616   1.324 -0.3210 -0.5649 -0.0082
19262TIP3    H279278   4.223   0.532   1.238 -1.2797 -2.6229  0.9029
19263TIP3   OH279279   4.739   0.345   3.454 -0.5934  0.0049  0.3603
19263TIP3    H179280   4.821   0.393   3.444 -0.9589  0.4746 -0.5505
19263TIP3    H279281   4.696   0.354   3.369 -2.0351  0.5943  1.1169
19264TIP3   OH279282   4.862   1.067  14.093  0.1052 -0.2082 -0.3587
19264TIP3    H179283   4.789   1.027  14.046 -0.7753 -0.8325  1.4385
19264TIP3    H279284   4.835   1.065  14.185  1.5734  1.3278  0.1478
19265TIP3   OH279285   3.544   4.524   5.423 -0.2660 -0.8098 -0.0918
19265TIP3    H179286   3.496   4.443   5.407 -0.9001 -1.2920  3.4258
19265TIP3    H279287   3.621   4.497   5.472  0.1615  0.5967  0.0539
19266TIP3   OH279288   1.669   4.945   4.247 -0.2771 -0.4436 -0.4376
19266TIP3    H179289   1.656   5.033   4.282 -2.0912 -0.9737  0.3222
19266TIP3    H279290   1.763   4.929   4.256 -0.0473  1.1151  0.1229
19267TIP3   OH279291   0.990   2.772   0.948 -0.2029 -0.4943  0.4251
19267TIP3    H179292   1.079   2.805   0.960 -0.1966  0.7675 -2.2073
19267TIP3    H279293   0.999   2.677   0.949  0.9522 -0.4007  1.4063
19268TIP3   OH279294   2.063   0.300  14.023  0.0868  0.0378  0.2299
19268TIP3    H179295   2.112   0.263  14.095  1.4263 -0.2480 -0.7911
19268TIP3    H279296   2.091   0.391  14.018 -2.7216  1.1486  2.3254
19269TIP3   OH279297   5.427   0.299  15.209 -0.6135 -0.1492 -0.1773
19269TIP3    H179298   5.497   0.246  15.171 -1.2770 -0.2635 -1.2609
19269TIP3    H279299   5.445   0.388  15.179  0.0636  0.1485  1.0168
19270TIP3   OH279300   6.378   3.248  14.259 -0.2886 -0.4565  0.0448
19270TIP3    H179301   6.289   3.224  14.284 -1.0168  0.1574 -1.7942
19270TIP3    H279302   6.368   3.301  14.180  1.7082 -0.2793 -0.1569
19271TIP3   OH279303   3.915   0.981  12.777  0.5895 -0.3398 -0.0837
19271TIP3    H179304   3.975   1.042  12.821 -1.7734  0.9460  1.5729
19271TIP3    H279305   3.957   0.963  12.693  2.2979  2.1167  0.1303
19272TIP3   OH279306   3.596   1.423  16.843 -0.2297  0.4197  0.0788
19272TIP3    H179307   3.584   1.361  16.915  0.0756 -0.5201 -0.6689
19272TIP3    H279308   3.512   1.423  16.797  0.0727 -0.1926 -0.4941
19273TIP3   OH279309   3.916   5.692  11.139  0.2383 -0.8266  0.7780
19273TIP3    H179310   3.973   5.627  11.098 -0.2382 -0.0784 -1.1992
19273TIP3    H279311   3.924   5.770  11.083 -3.3436 -0.9415 -0.1768
19274TIP3   OH279312   4.808   6.156   1.542  0.0497  0.0244 -0.2031
19274TIP3    H179313   4.884   6.101   1.561  0.0687  0.4308  0.9623
19274TIP3    H279314   4.845   6.244   1.533 -0.4546  0.5554  2.2531
19275TIP3   OH279315   5.696   1.461  12.450 -0.6137 -0.8249 -0.4987
19275TIP3    H179316   5.712   1.466  12.544  2.3702  0.7994 -0.9801
19275TIP3    H279317   5.737   1.379  12.422 -1.8790 -1.5274 -0.3853
19276TIP3   OH279318   5.468   1.268  13.406 -0.5514  0.4517  0.4110
19276TIP3    H179319   5.535   1.205  13.432 -1.9279 -1.2083  0.1752
19276TIP3    H279320   5.510   1.322  13.339  0.1063 -1.6151 -0.9514
19277TIP3   OH279321   4.691   4.896   2.102 -1.0315 -0.1321  0.3279
19277TIP3    H179322   4.640   4.863   2.028  0.2186 -0.1686 -0.5475
19277TIP3    H279323   4.657   4.848   2.178 -2.9951  0.6039 -0.0316
19278TIP3   OH279324   0.133   6.044   4.725 -0.1262  0.1621 -0.2307
19278TIP3    H179325   0.208   6.054   4.667 -1.1348  1.8832 -1.3394
19278TIP3    H279326   0.090   5.963   4.696  0.6696 -0.2363 -0.3100
19279TIP3   OH279327   4.825   2.542  13.056 -0.4033 -0.1770  0.7524
19279TIP3    H179328   4.826   2.570  12.964  0.9438 -0.4233  0.6749
19279TIP3    H279329   4.901   2.585  13.095  1.0253 -2.6800  0.9411
19280TIP3   OH279330   3.172   4.180  14.813  0.5605 -0.1916  0.1628
19280TIP3    H179331   3.198   4.182  14.905  1.2168 -0.3257 -0.0112
19280TIP3    H279332   3.091   4.129  14.811  1.0893 -1.0782  0.5456
19281TIP3   OH279333   5.083   4.944   1.643  0.0556 -0.3334  0.0585
19281TIP3    H179334   5.054   4.854   1.630  0.8453 -0.7990  1.3568
19281TIP3    H279335   5.094   4.953   1.738  0.1554  1.0780 -0.0600
19282TIP3   OH279336   2.301   2.707   4.216  0.1922  0.1309  0.0515
19282TIP3    H179337   2.358   2.657   4.275  1.9299  1.4162 -0.4511
19282TIP3    H279338   2.223   2.653   4.206  0.6412 -0.9771  2.0349
19283TIP3   OH279339   5.036   5.147   5.298  0.5320 -0.2685  0.2262
19283TIP3    H179340   5.129   5.129   5.291  0.4238 -0.5834 -0.3868
19283TIP3    H279341   4.995   5.061   5.307  0.1007 -0.3164 -1.7980
19284TIP3   OH279342   1.203   5.483  15.642  0.3973  0.7776 -0.0876
19284TIP3    H179343   1.127   5.426  15.654  0.1584  1.1326  0.0899
19284TIP3    H279344   1.193   5.552  15.707 -0.0940  1.8482 -1.2548
19285TIP3   OH279345   0.025   2.235  16.603 -0.0421  0.2195  0.3237
19285TIP3    H179346   0.014   2.330  16.596  0.2475  0.2380  0.0858
19285TIP3    H279347   0.109   2.225  16.647 -1.2030  0.0898  2.6655
19286TIP3   OH279348   2.231   0.578  12.350  0.2894 -0.0377 -0.3200
19286TIP3    H179349   2.282   0.659  12.355  1.1618 -0.5742 -0.4836
19286TIP3    H279350   2.293   0.512  12.319 -0.9416 -0.3084 -2.4297
19287TIP3   OH279351   0.865   4.973   5.596  0.0590 -0.6523  0.0203
19287TIP3    H179352   0.935   4.945   5.538 -1.0808 -1.0368 -1.2289
19287TIP3    H279353   0.898   4.954   5.684  2.5755  1.6444 -0.3025
19288TIP3   OH279354   1.882   5.825   0.432 -0.0507  0.1937 -0.3207
19288TIP3    H179355   1.899   5.782   0.516  0.7149  0.7974 -0.1549
19288TIP3    H279356   1.816   5.891   0.452 -0.6709 -0.3737 -0.4265
19289TIP3   OH279357   4.324   6.729  11.152 -0.2378 -0.1871  0.4383
19289TIP3    H179358   4.401   6.682  11.185  2.3442  1.7677 -2.2935
19289TIP3    H279359   4.315   6.804  11.210 -0.1008 -0.4335  0.7814
19290TIP3   OH279360   1.983   5.346   2.343 -0.1007 -0.2957  0.3476
19290TIP3    H179361   1.910   5.371   2.400 -2.7765 -0.2071 -2.8020
19290TIP3    H279362   1.980   5.250   2.342 -1.8535 -0.2903 -1.5641
19291TIP3   OH279363   3.542   4.296  11.652 -0.1760  0.2264 -0.0342
19291TIP3    H179364   3.526   4.215  11.605 -1.3376 -0.0947  0.8829
19291TIP3    H279365   3.521   4.365  11.589 -2.5147 -0.1853  0.2197
19292TIP3   OH279366   0.253   5.441  13.727  0.2907 -0.0607  0.5528
19292TIP3    H179367   0.339   5.481  13.713 -0.0294  0.1292 -1.0830
19292TIP3    H279368   0.264   5.350  13.702 -0.2756  0.2603 -0.9689
19293TIP3   OH279369   5.126   4.708  16.111 -0.6886  0.4169 -0.3429
19293TIP3    H179370   5.136   4.727  16.018 -2.2092  0.2052 -0.5807
19293TIP3    H279371   5.205   4.659  16.135 -0.1613  0.7066 -1.4520
19294TIP3   OH279372   4.278   1.279   4.216  0.2748 -0.2634 -0.2425
19294TIP3    H179373   4.261   1.198   4.167  0.7897  0.1436 -1.1148
19294TIP3    H279374   4.192   1.304   4.250  0.3190 -1.8793  1.1843
19295TIP3   OH279375   5.854   1.531   1.373 -0.0617  0.2481  0.2331
19295TIP3    H179376   5.814   1.617   1.368 -1.2558 -0.2798  0.4780
19295TIP3    H279377   5.824   1.494   1.456 -0.4777 -0.8378 -0.3731
19296TIP3   OH279378   1.848   1.169   5.465 -0.3932  0.2518 -0.3386
19296TIP3    H179379   1.753   1.159   5.457 -0.3353 -0.6085 -0.0968
19296TIP3    H279380   1.871   1.120   5.544  0.1757  0.9822 -0.0441
19297TIP3   OH279381   4.403   4.014  16.331  0.0232  0.3418  0.1913
19297TIP3    H179382   4.468   3.970  16.386  0.9866 -0.2692 -1.3642
19297TIP3    H279383   4.341   3.945  16.307  1.3747 -0.2002 -2.0134
19298TIP3   OH279384   1.965   2.928   4.638 -0.1775 -0.2556 -0.2603
19298TIP3    H179385   1.945   2.847   4.685 -1.0011  0.2221  0.2356
19298TIP3    H279386   1.889   2.944   4.583 -0.5638  0.8021  0.5429
19299TIP3   OH279387   1.662   2.888   2.853  0.7099 -0.6961 -0.3993
19299TIP3    H179388   1.652   2.795   2.837  2.2137 -0.6343 -2.0292
19299TIP3    H279389   1.737   2.894   2.913  0.1375 -0.5382  0.3249
19300TIP3   OH279390   4.619   6.480   0.014 -0.5521 -0.7227  0.3583
19300TIP3    H179391   4.709   6.447   0.024 -0.3809 -0.2067  0.5374
19300TIP3    H279392   4.603   6.478  -0.080  1.6312  4.2950 -0.4159
19301TIP3   OH279393   0.264   5.480   1.958  0.1019  0.3053  0.0901
19301TIP3    H179394   0.326   5.553   1.963 -0.7948  1.2258 -1.3495
19301TIP3    H279395   0.263   5.457   1.865 -2.6639  1.2180 -0.2093
19302TIP3   OH279396   4.718   5.900   0.384  0.3055  0.7522 -0.0193
19302TIP3    H179397   4.736   5.935   0.471  1.9365  1.1880 -0.4862
19302TIP3    H279398   4.768   5.819   0.379  1.5813  1.5468 -1.0677
19303TIP3   OH279399   1.538   1.455   3.446  0.4115  0.2523  1.1167
19303TIP3    H179400   1.467   1.391   3.447  1.4845 -0.9696  2.1354
19303TIP3    H279401   1.551   1.475   3.353 -2.2369  1.6822  0.9418
19304TIP3   OH279402   3.969   4.664   4.003  0.3047 -0.4438 -0.3750
19304TIP3    H179403   4.033   4.652   4.073 -1.1691  0.2971  1.1869
19304TIP3    H279404   3.914   4.585   4.008 -0.0432 -0.2072 -0.4026
19305TIP3   OH279405   4.083   0.714  15.565 -0.5370  0.1502 -0.3706
19305TIP3    H179406   4.159   0.661  15.540  0.4061  1.6807 -0.8456
19305TIP3    H279407   4.061   0.763  15.486 -1.6032  0.2424 -0.0341
19306TIP3   OH279408   0.829   0.478   1.928 -0.3277 -0.4831 -0.0391
19306TIP3    H179409   0.832   0.570   1.953 -0.5433 -0.3253 -0.5853
19306TIP3    H279410   0.888   0.434   1.989 -2.6123 -0.4921  2.3633
19307TIP3   OH279411   0.165   1.924  13.186 -0.4973  0.2452  0.3895
19307TIP3    H179412   0.088   1.956  13.139 -0.7511  0.8235  1.1830
19307TIP3    H279413   0.129   1.874  13.259 -0.1226 -2.4290 -1.1293
19308TIP3   OH279414   6.021   6.445  13.332  0.1710 -0.0263  0.1175
19308TIP3    H179415   5.993   6.400  13.412  0.1455 -0.4004 -0.1050
19308TIP3    H279416   6.082   6.512  13.363  0.1749 -0.1816  0.4500
19309TIP3   OH279417   4.355   2.505  10.863 -0.7933 -0.1404  0.3102
19309TIP3    H179418   4.322   2.568  10.800  0.3057  1.5121  1.2946
19309TIP3    H279419   4.345   2.420  10.820 -0.3830  0.8762 -1.9481
19310TIP3   OH279420   6.733   0.667   6.019  0.2156  0.1860 -0.1028
19310TIP3    H179421   6.802   0.720   6.059  0.6580 -0.1412 -0.4139
19310TIP3    H279422   6.674   0.645   6.091 -0.8101  2.3387 -0.2263
19311TIP3   OH279423   1.774   3.559  13.482 -0.1847  0.1814  0.3832
19311TIP3    H179424   1.846   3.621  13.495 -0.2895  0.4889 -0.4229
19311TIP3    H279425   1.699   3.615  13.462 -0.1780 -0.2132 -0.7963
19312TIP3   OH279426   4.427   4.467  16.564 -0.1356 -0.6595 -0.2934
19312TIP3    H179427   4.479   4.536  16.604  0.3881 -1.0125 -0.3596
19312TIP3    H279428   4.339   4.481  16.599 -0.2451  0.5903 -1.0154
19313TIP3   OH279429   4.152   6.522  15.697 -0.2425  0.1591  1.0156
19313TIP3    H179430   4.234   6.569  15.707  0.2659 -0.6274  0.6385
19313TIP3    H279431   4.172   6.450  15.637 -1.0234 -0.4804  1.4959
19314TIP3   OH279432   6.844   4.538  16.121 -0.4142 -0.2296  0.4434
19314TIP3    H179433   6.917   4.525  16.181 -0.4537 -1.5946  0.2286
19314TIP3    H279434   6.829   4.452  16.082 -1.4059  0.2802 -0.3585
19315TIP3   OH279435   1.483   2.931   0.917 -0.9031  0.3841  0.5642
19315TIP3    H179436   1.514   3.014   0.882 -2.0710 -0.0377 -1.6493
19315TIP3    H279437   1.551   2.868   0.895 -0.7682  0.4520  0.7815
19316TIP3   OH279438   3.927   4.280  13.604 -0.0375  0.1935  0.4920
19316TIP3    H179439   3.985   4.354  13.619  0.6525  0.3016 -2.2560
19316TIP3    H279440   3.952   4.215  13.670  0.3983  1.7758  1.9333
19317TIP3   OH279441   4.972   4.965  12.568 -0.6448 -0.3997 -0.0906
19317TIP3    H179442   4.953   4.926  12.482 -1.0143  0.3992 -0.3750
19317TIP3    H279443   5.045   5.024  12.552  0.2500 -1.3263  0.4453
19318TIP3   OH279444   4.715   4.328   3.437 -0.1931  0.6816 -0.3799
19318TIP3    H179445   4.767   4.265   3.387 -1.5163  0.5139 -1.5922
19318TIP3    H279446   4.658   4.370   3.373 -2.6132 -0.1852  1.0498
19319TIP3   OH279447   6.564   3.445  13.407 -0.0002 -0.2475  0.3815
19319TIP3    H179448   6.534   3.398  13.484  1.4362 -0.6584  0.7245
19319TIP3    H279449   6.487   3.491  13.375 -0.5912  0.0665  2.1475
19320TIP3   OH279450   0.820   5.257   1.675  0.0132  0.1660  0.0006
19320TIP3    H179451   0.860   5.259   1.762 -1.0371  0.0517  0.4963
19320TIP3    H279452   0.781   5.170   1.669 -1.9937  0.9729  0.3947
19321TIP3   OH279453   0.593   6.512  12.723  0.0534  0.2165  0.0503
19321TIP3    H179454   0.657   6.484  12.657 -0.9186 -1.2004 -0.3322
19321TIP3    H279455   0.646   6.555  12.791  1.2804  0.0012 -0.7351
19322TIP3   OH279456   5.228   6.815   1.161  0.5745 -0.5431  0.5152
19322TIP3    H179457   5.225   6.720   1.170  0.0254 -0.9723 -2.9094
19322TIP3    H279458   5.319   6.834   1.136  0.2507 -0.4620 -0.6855
19323TIP3   OH279459   5.898   1.012   5.574  0.2368  0.3138 -0.3124
19323TIP3    H179460   5.861   1.006   5.486 -0.5658  0.9657 -0.0317
19323TIP3    H279461   5.972   0.951   5.573 -0.4727 -0.5714 -1.0776
19324TIP3   OH279462   6.838   2.476   3.687  0.0307  0.8794 -0.3011
19324TIP3    H179463   6.799   2.444   3.605 -0.9266  0.5639  0.2665
19324TIP3    H279464   6.921   2.430   3.693 -0.7083 -0.4961 -0.1873
19325TIP3   OH279465   2.762   3.870  11.474 -0.0401 -0.2291  0.3742
19325TIP3    H179466   2.745   3.926  11.550 -0.2033 -0.3142  0.4009
19325TIP3    H279467   2.676   3.852  11.437 -0.0205 -0.7377  0.5660
19326TIP3   OH279468   2.599   1.582  16.892 -0.5741 -0.2866 -0.0291
19326TIP3    H179469   2.622   1.506  16.945 -1.2497 -1.2591 -1.0854
19326TIP3    H279470   2.571   1.648  16.956  1.8731 -0.1972  1.0484
19327TIP3   OH279471   1.108   0.713  10.630  0.1934 -0.3620 -0.1724
19327TIP3    H179472   1.099   0.764  10.710  1.7753 -0.8571  0.3665
19327TIP3    H279473   1.021   0.714  10.590 -0.0705  1.8321  0.3619
19328TIP3   OH279474   2.870   1.819  14.661 -0.5363  0.1666  0.4778
19328TIP3    H179475   2.811   1.797  14.590  0.7671 -0.0089 -0.5865
19328TIP3    H279476   2.931   1.745  14.666  0.6468  1.1007  0.3762
19329TIP3   OH279477   4.276   0.726   4.988  0.2401  0.6210 -0.2962
19329TIP3    H179478   4.299   0.651   5.042  0.6278  1.3600  0.5856
19329TIP3    H279479   4.344   0.791   5.006  0.4191  0.8651 -1.7317
19330TIP3   OH279480   4.917   3.420  16.479 -0.2202  0.2635 -0.0221
19330TIP3    H179481   4.981   3.353  16.453 -0.0853  0.2204  0.4254
19330TIP3    H279482   4.893   3.462  16.396 -1.5940 -1.4734 -0.5893
19331TIP3   OH279483   1.905   4.927   2.018  0.0539 -0.1789  0.0704
19331TIP3    H179484   1.919   5.020   2.002 -0.2921 -0.5023 -2.5238
19331TIP3    H279485   1.969   4.904   2.086  0.7738  1.7334  0.0950
19332TIP3   OH279486   6.509   6.627   5.417  0.6534 -0.0100 -0.4189
19332TIP3    H179487   6.523   6.675   5.498 -0.9135 -1.7262  0.9495
19332TIP3    H279488   6.433   6.670   5.377  0.2252 -0.3577  0.0127
19333TIP3   OH279489   4.826   6.196  12.535  0.1673  0.5928 -0.2312
19333TIP3    H179490   4.874   6.129  12.486 -1.6732  0.2051 -1.6184
19333TIP3    H279491   4.799   6.260  12.469 -1.2091  0.7771  0.4698
19334TIP3   OH279492   3.302   4.882  14.563  0.3412  0.1185  0.0657
19334TIP3    H179493   3.293   4.976  14.550  0.2504  0.1941  0.6863
19334TIP3    H279494   3.241   4.861  14.634  0.1357 -0.4573 -0.2697
19335TIP3   OH279495   5.811   3.064  11.448 -0.3345  0.4313  0.1248
19335TIP3    H179496   5.794   2.971  11.429 -0.2775 -0.0428  2.1481
19335TIP3    H279497   5.759   3.082  11.527 -0.4486  2.1766 -0.3132
19336TIP3   OH279498   5.981   5.745  11.066  0.7410 -0.2101  0.2248
19336TIP3    H179499   5.912   5.810  11.055  0.0863 -1.0128 -0.4740
19336TIP3    H279500   6.034   5.752  10.986 -0.1952 -1.5292 -0.5439
19337TIP3   OH279501   3.977   6.800   3.048  0.4530  0.5000  0.4310
19337TIP3    H179502   3.995   6.751   2.968  0.8239  1.0195  0.1899
19337TIP3    H279503   4.064   6.818   3.086  0.3424  1.2468  0.3416
19338TIP3   OH279504   4.401   5.498  14.092  0.4284  0.1860  0.3415
19338TIP3    H179505   4.371   5.559  14.159 -0.3498  1.1221 -0.8078
19338TIP3    H279506   4.488   5.528  14.069  0.3317  0.4283  0.2887
19339TIP3   OH279507   0.129   2.757  13.746  0.6347 -0.5129 -0.0205
19339TIP3    H179508   0.058   2.706  13.709 -0.2513  1.1898 -0.7566
19339TIP3    H279509   0.091   2.800  13.823  0.7961  0.4982 -0.4814
19340TIP3   OH279510   2.817   5.577   5.115  0.4099  0.1238  0.5720
19340TIP3    H179511   2.880   5.548   5.180  0.3855 -0.4628  0.3418
19340TIP3    H279512   2.759   5.501   5.102  0.0097  0.4596  0.3630
19341TIP3   OH279513   4.633   6.348  12.913  0.2729  0.1024 -0.1920
19341TIP3    H179514   4.609   6.343  13.005 -0.1180  0.6071 -0.2645
19341TIP3    H279515   4.601   6.266  12.875  2.4694 -1.1839  0.5685
19342TIP3   OH279516   5.976   3.781  11.730  0.2959 -0.5353  0.2273
19342TIP3    H179517   5.987   3.779  11.825 -0.6244 -0.4974  0.3436
19342TIP3    H279518   5.984   3.874  11.707 -1.9450 -0.2075  0.6006
19343TIP3   OH279519   2.721   0.374   1.182 -0.1733  0.2153  0.3188
19343TIP3    H179520   2.773   0.428   1.241 -0.4491 -1.1051  1.8407
19343TIP3    H279521   2.631   0.385   1.212 -0.6794  1.4054 -1.4295
19344TIP3   OH279522   4.005   6.466   0.590 -0.1804  0.2598  0.5729
19344TIP3    H179523   3.989   6.378   0.557  1.5934  0.0716  0.0896
19344TIP3    H279524   3.961   6.523   0.527 -0.6958 -0.2474  0.4636
19345TIP3   OH279525   0.152   0.198  14.601  0.2565 -0.1599 -0.1256
19345TIP3    H179526   0.243   0.224  14.616  0.8528 -0.4516 -2.7825
19345TIP3    H279527   0.151   0.103  14.612 -0.0134 -0.0394  1.0226
19346TIP3   OH279528   3.650   6.758   0.884  0.3510 -0.0670  0.1589
19346TIP3    H179529   3.726   6.783   0.832  1.7584 -0.5098  1.8794
19346TIP3    H279530   3.615   6.840   0.917 -1.7052  0.4094 -2.8294
19347TIP3   OH279531   5.138   4.278   3.319 -0.3078  0.0881  0.0292
19347TIP3    H179532   5.233   4.268   3.326 -0.4583 -1.6004  0.1664
19347TIP3    H279533   5.125   4.371   3.305  1.4240  0.2655 -0.7509
19348TIP3   OH279534   3.838   2.269   5.375  0.3026  0.2989 -0.9090
19348TIP3    H179535   3.765   2.330   5.380  1.5487  1.7633  0.6322
19348TIP3    H279536   3.856   2.246   5.467  1.6417 -0.1790 -1.2690
19349TIP3   OH279537   2.494   2.715   5.276  0.1258  0.4603  0.5490
19349TIP3    H179538   2.539   2.797   5.297  0.0214  0.5167  0.5536
19349TIP3    H279539   2.407   2.726   5.314 -0.1092  0.6141 -0.0222
19350TIP3   OH279540   0.512   4.792   6.577 -0.1294  0.3097 -0.0612
19350TIP3    H179541   0.555   4.731   6.518 -1.6033 -1.1251  0.2965
19350TIP3    H279542   0.556   4.876   6.562 -0.3785 -0.0209 -3.0930
19351TIP3   OH279543   2.589   6.403   5.515  0.3804 -0.4278 -0.3383
19351TIP3    H179544   2.583   6.317   5.557  0.4383 -1.0900 -1.6329
19351TIP3    H279545   2.628   6.385   5.429  0.5490  0.9205 -0.5695
19352TIP3   OH279546   0.447   4.179  12.132 -0.0618  0.6272 -0.1761
19352TIP3    H179547   0.422   4.266  12.098 -0.5294  0.0239 -1.4662
19352TIP3    H279548   0.375   4.156  12.191 -0.0124  1.0530  0.0559
19353TIP3   OH279549   3.547   4.005   2.622 -1.5778  0.5901  0.1442
19353TIP3    H179550   3.498   4.085   2.637 -0.7706  1.1005  0.1311
19353TIP3    H279551   3.527   3.980   2.532 -1.0116  1.3702 -0.2129
19354TIP3   OH279552   5.475   0.046  14.671  0.5539  0.0153 -0.1633
19354TIP3    H179553   5.404   0.013  14.725 -1.0074  3.3001  0.0429
19354TIP3    H279554   5.512  -0.032  14.629 -0.6797 -2.2234  2.5966
19355TIP3   OH279555   0.390   5.163  13.733  0.4285  0.2846  1.3447
19355TIP3    H179556   0.467   5.108  13.743  0.2081  0.0055  1.5443
19355TIP3    H279557   0.343   5.127  13.658  1.8372  2.0917 -0.5258
19356TIP3   OH279558   3.459   2.907  13.456  0.1168 -0.1959  0.0755
19356TIP3    H179559   3.433   2.947  13.374 -2.2060  0.3450  0.9996
19356TIP3    H279560   3.406   2.951  13.522  0.2899 -2.1362  1.6034
19357TIP3   OH279561   2.427   4.427  12.426  0.0752 -0.2212 -0.0828
19357TIP3    H179562   2.412   4.516  12.395  0.0165 -0.3552 -0.4395
19357TIP3    H279563   2.520   4.411  12.406 -0.1686 -0.5986 -0.9289
19358TIP3   OH279564   5.959   1.396  13.800 -0.5504  0.3176  0.0731
19358TIP3    H179565   5.979   1.479  13.843  2.0404 -0.3991  0.4157
19358TIP3    H279566   5.878   1.366  13.842  0.0801  1.2628  2.1032
19359TIP3   OH279567   6.727   2.254  13.201 -0.1694  0.4110 -0.1615
19359TIP3    H179568   6.775   2.194  13.257 -0.9416  0.0684  0.1481
19359TIP3    H279569   6.658   2.200  13.162 -2.4589  1.5772  2.0347
19360TIP3   OH279570   1.825   1.048   1.541 -0.4503  0.0266  0.2287
19360TIP3    H179571   1.771   0.984   1.587 -0.5823 -0.5127 -0.6471
19360TIP3    H279572   1.789   1.050   1.452 -0.9289  1.8868  0.4262
19361TIP3   OH279573   3.908   6.679   5.199  0.0698 -0.2136  0.0131
19361TIP3    H179574   3.963   6.622   5.252  0.4923 -0.6338 -0.8694
19361TIP3    H279575   3.862   6.734   5.263  0.8730 -0.4321  0.7893
19362TIP3   OH279576   3.230   3.957   4.710  0.3095 -0.0041 -0.4229
19362TIP3    H179577   3.146   3.917   4.688  0.6750 -0.5821 -0.7819
19362TIP3    H279578   3.275   3.966   4.626  1.7171 -2.2297  0.0182
19363TIP3   OH279579   4.431   2.059   0.566 -0.1575  0.1203 -0.6246
19363TIP3    H179580   4.490   2.129   0.535  0.6877  0.2587  1.1408
19363TIP3    H279581   4.353   2.069   0.513  0.8741  0.8542 -2.0862
19364TIP3   OH279582   3.668   6.444   0.328 -0.4778  0.0711  0.3209
19364TIP3    H179583   3.618   6.525   0.326 -2.9095 -1.1718 -4.0081
19364TIP3    H279584   3.618   6.386   0.387 -2.6453 -0.1964 -1.6449
19365TIP3   OH279585   4.584   4.865   0.792  0.2954  0.2425 -0.0600
19365TIP3    H179586   4.504   4.820   0.764  0.6915  0.1659 -1.1376
19365TIP3    H279587   4.652   4.830   0.734  0.9841  0.7876  0.4039
19366TIP3   OH279588   6.538   0.759  10.807  0.3006  0.0274  0.2960
19366TIP3    H179589   6.628   0.794  10.805 -0.1914  1.3628  0.5969
19366TIP3    H279590   6.531   0.714  10.891  0.2862  1.0557  0.8543
19367TIP3   OH279591   3.921   1.736  10.120  0.5350 -0.0503  0.1064
19367TIP3    H179592   3.860   1.777  10.059  0.3880  1.2897  1.1040
19367TIP3    H279593   3.869   1.670  10.166  0.4507 -0.5199 -0.6410
19368TIP3   OH279594   4.446   5.634  12.544  0.2843 -0.1485 -0.4478
19368TIP3    H179595   4.379   5.693  12.509  0.6331 -0.8319 -2.4091
19368TIP3    H279596   4.429   5.551  12.501  2.3596 -0.3402 -0.9822
19369TIP3   OH279597   2.670   5.015   5.351  0.0435  0.4737 -0.3867
19369TIP3    H179598   2.704   4.982   5.268 -0.1125  0.0456 -0.2797
19369TIP3    H279599   2.726   5.090   5.371  1.2522 -0.5090  0.0209
19370TIP3   OH279600   3.464   1.377   2.285 -0.1959  0.0619  0.5714
19370TIP3    H179601   3.541   1.434   2.291  0.0390 -0.1974  0.1213
19370TIP3    H279602   3.391   1.438   2.273  0.2809  0.2590 -2.0349
19371TIP3   OH279603   3.410   0.866   3.609  0.3950  0.1578  0.1652
19371TIP3    H179604   3.331   0.816   3.631  0.2196  0.1508 -0.4694
19371TIP3    H279605   3.480   0.801   3.608  0.1410 -0.1175 -0.8134
19372TIP3   OH279606   6.801   0.318  14.803  0.2805 -0.6772 -0.1049
19372TIP3    H179607   6.816   0.264  14.881 -0.0415 -0.5340  0.0595
19372TIP3    H279608   6.888   0.348  14.778  0.3242 -0.2052  0.5798
19373TIP3   OH279609   5.597   0.018   2.397  0.7444  0.4861  0.4158
19373TIP3    H179610   5.564  -0.055   2.345  1.6443 -0.0892  0.6226
19373TIP3    H279611   5.561   0.096   2.355 -0.6222 -0.0832  0.4765
19374TIP3   OH279612   1.083   3.429   2.153  0.3423  0.0387 -0.4664
19374TIP3    H179613   1.161   3.474   2.187 -1.0704  1.9302  0.4487
19374TIP3    H279614   1.051   3.487   2.084  0.0901 -1.0621 -1.2897
19375TIP3   OH279615   0.489   0.884   6.419  0.0439  0.2268 -0.1367
19375TIP3    H179616   0.481   0.871   6.514  0.3371  2.6918  0.2772
19375TIP3    H279617   0.418   0.944   6.397  1.3275  1.4457 -1.0800
19376TIP3   OH279618   6.304   3.492  14.912 -0.5287  0.4313  0.5983
19376TIP3    H179619   6.281   3.494  14.819 -0.0639 -3.4318  0.2588
19376TIP3    H279620   6.347   3.576  14.927 -1.4109  1.5752 -2.4101
19377TIP3   OH279621   5.284   3.050  16.200 -0.2635 -0.5104 -0.5481
19377TIP3    H179622   5.256   2.978  16.145 -0.9368  0.5943 -1.6987
19377TIP3    H279623   5.212   3.113  16.196  0.8497  0.7975 -0.6368
19378TIP3   OH279624   4.419   4.242   0.450  0.3362 -0.0015 -0.0846
19378TIP3    H179625   4.487   4.268   0.511  0.4598  0.1515 -0.2850
19378TIP3    H279626   4.340   4.287   0.480  0.4293  0.1861 -0.1204
19379TIP3   OH279627   1.889   1.366  12.207 -0.0009  0.4332  0.1987
19379TIP3    H179628   1.903   1.414  12.289  0.2573  0.7927 -0.0520
19379TIP3    H279629   1.973   1.323  12.191 -0.5010 -0.8400  0.8898
19380TIP3   OH279630   3.023   5.086   1.313  0.4084  0.0006  0.2278
19380TIP3    H179631   2.996   5.101   1.403 -2.3777  0.5921 -0.6235
19380TIP3    H279632   3.081   5.010   1.318 -3.7947 -3.5110  2.0416
19381TIP3   OH279633   4.096   1.609  15.907  0.3432  0.7201 -0.6473
19381TIP3    H179634   4.030   1.676  15.924  0.3339  1.1150 -2.0930
19381TIP3    H279635   4.142   1.641  15.829 -0.2045 -1.3136 -1.8806
19382TIP3   OH279636   5.366   5.361   3.102  0.1731  0.4173  0.3369
19382TIP3    H179637   5.360   5.422   3.028 -1.1532 -0.0363  0.0497
19382TIP3    H279638   5.277   5.355   3.136  0.3045 -1.2206  0.4779
19383TIP3   OH279639   0.337   2.069  13.036 -0.3750  0.3446  0.8237
19383TIP3    H179640   0.315   2.001  13.099 -0.2092 -1.4297 -0.9200
19383TIP3    H279641   0.299   2.039  12.954  0.5252  1.8952 -0.2206
19384TIP3   OH279642   5.677   0.677  12.587  0.5955  0.3799 -0.9515
19384TIP3    H179643   5.616   0.605  12.605  1.2645  0.2289  0.9022
19384TIP3    H279644   5.622   0.754  12.577  0.0380  0.0749 -0.2690
19385TIP3   OH279645   4.452   6.160  15.476 -0.3819 -0.2454 -0.2856
19385TIP3    H179646   4.517   6.145  15.407  1.0631 -0.4883  1.0838
19385TIP3    H279647   4.424   6.072  15.501 -1.6495 -0.1282 -1.2118
19386TIP3   OH279648   5.017   3.387  12.355 -0.4256  0.8582  0.1720
19386TIP3    H179649   5.088   3.427  12.304  0.8846 -1.9630 -0.4047
19386TIP3    H279650   5.047   3.393  12.446  0.8095 -0.6219 -0.0944
19387TIP3   OH279651   3.550   0.479  14.720  0.5248  0.2349  0.3631
19387TIP3    H179652   3.595   0.478  14.635 -1.6474 -1.6943 -0.8588
19387TIP3    H279653   3.477   0.418  14.709 -2.1889  2.8530  2.3536
19388TIP3   OH279654   0.454   4.803  15.648  0.4690  0.1847 -0.1119
19388TIP3    H179655   0.455   4.707  15.645 -0.8442  0.1326  0.4786
19388TIP3    H279656   0.546   4.828  15.639  0.9460 -1.1691  0.6597
19389TIP3   OH279657   0.687   6.847  12.856 -0.3186  0.0997  0.0214
19389TIP3    H179658   0.709   6.765  12.901 -0.6807 -0.8149 -1.4086
19389TIP3    H279659   0.598   6.867  12.885  0.4502  1.0927  1.8985
19390TIP3   OH279660   2.213   4.031   4.654  0.7179 -0.6754  0.1999
19390TIP3    H179661   2.281   3.965   4.664  1.2563 -0.2025 -0.2238
19390TIP3    H279662   2.145   3.988   4.601  0.5796 -1.2165  0.8012
19391TIP3   OH279663   3.549   6.293  11.872  0.3553 -0.4377 -0.5255
19391TIP3    H179664   3.581   6.290  11.782 -1.1697  0.8533 -1.1702
19391TIP3    H279665   3.502   6.210  11.884 -1.6921  0.4643 -1.8736
19392TIP3   OH279666   4.351   4.223  15.836  0.0399  0.4167 -0.1613
19392TIP3    H179667   4.410   4.295  15.855  0.0480  0.1739  0.7860
19392TIP3    H279668   4.267   4.264  15.816  0.3122  0.7257 -0.6696
19393TIP3   OH279669   6.159   0.357   2.103  0.1478  0.2368  0.0080
19393TIP3    H179670   6.187   0.285   2.046  1.4488  1.6346 -1.2590
19393TIP3    H279671   6.242   0.397   2.131 -0.4057 -0.8324  3.6057
19394TIP3   OH279672   0.747   2.950   3.963 -0.5815 -0.0346 -0.2560
19394TIP3    H179673   0.821   2.907   3.921 -1.0116 -1.9185  0.7933
19394TIP3    H279674   0.764   2.939   4.057 -1.5157  0.7196  0.0132
19395TIP3   OH279675   0.691   0.059   0.807 -0.5575 -0.6430  0.2087
19395TIP3    H179676   0.722   0.031   0.893  1.9436 -0.4063 -0.5451
19395TIP3    H279677   0.626   0.127   0.826  0.1216 -0.4102  1.9189
19396TIP3   OH279678   0.105   6.788  11.324 -0.3861  0.4054 -0.2074
19396TIP3    H179679   0.025   6.765  11.276  0.1715 -0.2971 -0.8309
19396TIP3    H279680   0.155   6.841  11.262  0.0764 -0.0034 -0.1843
19397TIP3   OH279681   6.379   5.751  16.515 -0.0802  0.0958  0.5686
19397TIP3    H179682   6.296   5.737  16.469  0.3758  1.4018 -0.7404
19397TIP3    H279683   6.355   5.754  16.608 -1.0979 -2.1341  0.4417
19398TIP3   OH279684   3.840   6.805  16.293 -0.1609  0.8578 -0.3508
19398TIP3    H179685   3.895   6.869  16.248 -1.0232  0.8586 -1.4328
19398TIP3    H279686   3.759   6.803  16.243  0.0947 -1.6295 -0.8052
19399TIP3   OH279687   3.582   1.621   2.709  0.3145 -0.3463  0.5264
19399TIP3    H179688   3.524   1.622   2.785 -2.5067 -0.1323 -1.4795
19399TIP3    H279689   3.644   1.691   2.726 -1.0872  0.6137  2.0469
19400TIP3   OH279690   6.329   3.052   4.391 -0.5625 -0.0234 -0.0348
19400TIP3    H179691   6.394   3.029   4.325  0.2335  0.3905  0.5794
19400TIP3    H279692   6.342   3.145   4.406 -2.5589  0.4850 -1.2176
19401TIP3   OH279693   6.446   4.675  15.968  0.3680  0.6341 -0.2206
19401TIP3    H179694   6.373   4.659  16.028 -1.6808  1.4915 -2.3197
19401TIP3    H279695   6.502   4.738  16.014 -0.1141 -0.1068  1.4725
19402TIP3   OH279696   5.556   0.032  15.030  0.9463 -0.3141  0.3296
19402TIP3    H179697   5.494   0.002  15.097  1.9106 -1.0558  0.9289
19402TIP3    H279698   5.550  -0.033  14.960  2.6154 -1.6935  1.3739
19403TIP3   OH279699   2.580   1.761   0.649  0.3382 -0.1622  0.1036
19403TIP3    H179700   2.634   1.726   0.578 -0.8256  0.1567 -0.9628
19403TIP3    H279701   2.531   1.832   0.609  0.0111  0.3395  1.3595
19404TIP3   OH279702   1.963   5.516   1.297 -0.3134 -0.0659  0.0186
19404TIP3    H179703   1.908   5.500   1.220  0.7060  0.2399 -0.7914
19404TIP3    H279704   1.955   5.436   1.349 -2.3282  0.3744  0.4403
19405TIP3   OH279705   2.383   4.902  12.258 -0.4429  0.4660 -0.8570
19405TIP3    H179706   2.348   4.989  12.276 -0.8441 -0.0090  0.7799
19405TIP3    H279707   2.422   4.874  12.340 -3.4410 -2.3237 -0.1832
19406TIP3   OH279708   0.836   4.110   0.025  0.0753  0.1523 -0.0850
19406TIP3    H179709   0.927   4.092  -0.000  0.1940 -0.7135  0.9023
19406TIP3    H279710   0.788   4.034  -0.007 -0.1203  0.0782  0.3942
19407TIP3   OH279711   6.834   4.511  15.008 -0.1689  0.3861 -0.1390
19407TIP3    H179712   6.853   4.422  14.980  1.0300  1.3669 -2.8148
19407TIP3    H279713   6.739   4.512  15.023 -0.3706 -1.0825 -1.1471
19408TIP3   OH279714   3.751   6.217  11.450  0.2003  0.2471 -0.1016
19408TIP3    H179715   3.700   6.257  11.520  1.9979  0.8847  0.9039
19408TIP3    H279716   3.782   6.134  11.488  0.8478  0.4027 -0.2918
19409TIP3   OH279717   0.016   3.482   5.078 -0.1435 -0.0369  0.6796
19409TIP3    H179718   0.041   3.499   5.169 -0.6390  0.3584  0.7479
19409TIP3    H279719   0.080   3.530   5.026  0.0250 -0.1055  0.8224
19410TIP3   OH279720   1.464   1.129   4.493 -0.2886 -0.5010  0.4708
19410TIP3    H179721   1.487   1.163   4.579  2.9082  1.4306 -0.9442
19410TIP3    H279722   1.533   1.067   4.472 -1.1440 -1.1356 -0.6011
19411TIP3   OH279723   0.825   4.034   1.496 -0.2106  0.7921 -0.3827
19411TIP3    H179724   0.917   4.036   1.471  0.0771 -2.5649 -0.1595
19411TIP3    H279725   0.825   4.000   1.585 -1.6389  0.1353 -0.6014
19412TIP3   OH279726   1.622   0.903   4.372 -0.0737  0.5874  0.5881
19412TIP3    H179727   1.579   0.846   4.436 -0.8135  0.8836  0.3681
19412TIP3    H279728   1.715   0.884   4.381 -0.3920 -1.9768 -0.7193
19413TIP3   OH279729   2.288   0.431   1.508  0.2743  0.0764  0.3289
19413TIP3    H179730   2.326   0.496   1.567  0.8036  1.1640 -1.1600
19413TIP3    H279731   2.211   0.399   1.554  0.4102  1.2318  1.3977
19414TIP3   OH279732   3.202   3.105   5.107 -0.0119  0.3860  0.2713
19414TIP3    H179733   3.129   3.044   5.096  0.3114  0.4040 -2.5677
19414TIP3    H279734   3.172   3.186   5.065  1.3848  0.6085 -0.3374
19415TIP3   OH279735   2.410   4.693   1.406  0.2190 -0.1261  0.1868
19415TIP3    H179736   2.496   4.652   1.400 -0.0404 -0.7253  0.4483
19415TIP3    H279737   2.386   4.684   1.499  0.2303  0.7713  0.2803
19416TIP3   OH279738   1.398   2.897   3.269  0.1579  0.4234 -0.3367
19416TIP3    H179739   1.317   2.845   3.274  0.8345 -0.7467 -0.9465
19416TIP3    H279740   1.422   2.913   3.360  0.2824 -0.9274 -0.1122
19417TIP3   OH279741   5.150   6.519   4.489 -0.5419 -0.2602  0.1711
19417TIP3    H179742   5.243   6.500   4.500 -0.6035 -0.5692  0.1475
19417TIP3    H279743   5.105   6.450   4.538 -0.7931 -0.8781 -0.9055
19418TIP3   OH279744   2.916   4.347   0.834  0.0309 -0.1614  0.6965
19418TIP3    H179745   3.009   4.364   0.852 -0.2655  0.5812  1.5959
19418TIP3    H279746   2.884   4.305   0.913 -0.6081  0.4401  0.7657
19419TIP3   OH279747   1.849   0.748  12.072 -0.4385 -0.1820  0.7402
19419TIP3    H179748   1.802   0.667  12.055 -0.2640 -0.0199 -0.6209
19419TIP3    H279749   1.934   0.720  12.107 -0.0414 -0.6314 -0.5464
19420TIP3   OH279750   2.223   5.620   3.476  0.8173  0.3062  0.1422
19420TIP3    H179751   2.299   5.660   3.434  1.2589  1.4147  1.8851
19420TIP3    H279752   2.201   5.680   3.547 -0.6998 -0.8204  0.6701
19421TIP3   OH279753   0.781   3.107   5.480 -0.3156  0.0883 -0.6141
19421TIP3    H179754   0.695   3.085   5.444 -1.1081 -0.5536  1.5154
19421TIP3    H279755   0.780   3.070   5.568  2.6375 -1.0274 -0.9572
19422TIP3   OH279756   4.958   3.897  12.054 -0.1186  0.2547 -0.5517
19422TIP3    H179757   4.942   3.992  12.056 -0.1940  0.2403 -0.3971
19422TIP3    H279758   5.017   3.882  12.128 -0.1513  0.1751 -0.5409
19423TIP3   OH279759   2.949   6.595  14.115  0.0012 -0.0551 -0.2034
19423TIP3    H179760   2.883   6.526  14.125  0.4852 -0.3589  1.1229
19423TIP3    H279761   3.010   6.561  14.049 -0.8813  0.0161 -1.0778
19424TIP3   OH279762   0.122   0.632   0.271  0.7535 -0.2662  0.1865
19424TIP3    H179763   0.104   0.723   0.244  1.9439  0.2490  1.0576
19424TIP3    H279764   0.129   0.584   0.189 -0.1337  0.3693 -0.2837
19425TIP3   OH279765   2.622   1.691   2.075 -0.1695 -0.2351  0.4479
19425TIP3    H179766   2.662   1.742   2.146  1.9149 -1.0725 -0.0646
19425TIP3    H279767   2.540   1.737   2.057  0.4483  1.4800  1.6835
19426TIP3   OH279768   6.431   3.277  13.737 -0.0364  0.1035 -0.3735
19426TIP3    H179769   6.394   3.216  13.801 -0.0829 -1.2251 -1.6073
19426TIP3    H279770   6.432   3.362  13.782 -0.8146 -0.6228  1.0833
19427TIP3   OH279771   3.112   4.765  14.780 -0.4075 -0.1826 -0.2266
19427TIP3    H179772   3.177   4.743  14.847 -0.3508  0.8637  0.0689
19427TIP3    H279773   3.037   4.709  14.800 -0.4523  0.2262  0.8175
19428TIP3   OH279774   5.873   5.239  16.237 -0.4522  0.2458  0.2652
19428TIP3    H179775   5.951   5.240  16.182 -0.9048  0.2963 -0.3868
19428TIP3    H279776   5.889   5.168  16.300 -0.2457 -0.3163 -0.4015
19429TIP3   OH279777   0.606   2.749   0.542 -0.9514  0.4182  0.2843
19429TIP3    H179778   0.623   2.797   0.461 -0.2915 -1.4156 -0.7425
19429TIP3    H279779   0.691   2.744   0.585 -1.3446  1.5966  1.2654
19430TIP3   OH279780   3.341   6.154  14.206 -0.1433 -0.2830  0.2622
19430TIP3    H179781   3.269   6.200  14.249 -0.7371 -1.4462  0.5629
19430TIP3    H279782   3.316   6.061  14.210  1.4296 -0.7339  0.5062
19431TIP3   OH279783   2.486   4.533   0.114 -0.3368 -0.5115  0.2956
19431TIP3    H179784   2.483   4.556   0.021 -2.6294 -0.5666  0.2973
19431TIP3    H279785   2.456   4.612   0.159  0.4894 -0.5801  0.9971
19432TIP3   OH279786   2.133   5.398  14.522 -0.3462  0.1133 -0.5364
19432TIP3    H179787   2.111   5.308  14.546  0.3368  0.4320  1.4283
19432TIP3    H279788   2.229   5.399  14.515 -0.1215  1.1604  1.7817
19433TIP3   OH279789   4.716   5.789  12.511 -0.8170 -0.2707  0.0083
19433TIP3    H179790   4.730   5.736  12.590  0.2258 -0.1599 -0.0835
19433TIP3    H279791   4.676   5.869  12.543 -1.9414 -0.8998  0.2111
19434TIP3   OH279792   4.832   0.891  11.986 -0.0864  0.4425  0.2943
19434TIP3    H179793   4.873   0.805  11.983  1.6008  1.2428 -2.0038
19434TIP3    H279794   4.758   0.885  11.926 -1.0331  0.1520  1.4445
19435TIP3   OH279795   6.776   5.530   3.222 -0.2722  0.4532  0.1624
19435TIP3    H179796   6.696   5.539   3.273  0.3714  1.5483  1.0058
19435TIP3    H279797   6.788   5.435   3.212 -1.0163  0.2581  1.0691
19436TIP3   OH279798   2.222   4.184   5.209  0.6355 -0.0357  0.7135
19436TIP3    H179799   2.172   4.234   5.145  0.3477 -0.3118  0.7228
19436TIP3    H279800   2.223   4.240   5.287  0.4830  0.0423  0.6606
19437TIP3   OH279801   0.574   6.767   4.268  0.6674  0.2654 -0.5303
19437TIP3    H179802   0.582   6.790   4.360  1.1152  0.1449 -0.5367
19437TIP3    H279803   0.658   6.727   4.246  0.8565  0.9943 -1.1928
19438TIP3   OH279804   5.014   0.775  15.566  0.6260  0.1830  0.1522
19438TIP3    H179805   5.089   0.717  15.582  0.3409 -0.1330  0.3505
19438TIP3    H279806   5.033   0.854  15.617  1.0281  0.2804 -0.1378
19439TIP3   OH279807   1.702   2.531   3.809 -0.0413  0.2759 -0.1435
19439TIP3    H179808   1.636   2.540   3.740  0.4501  0.1563 -0.6408
19439TIP3    H279809   1.732   2.440   3.801  0.4246  0.4295 -0.1499
19440TIP3   OH279810   1.925   4.998  11.638  0.7675 -0.6077 -0.3679
19440TIP3    H179811   1.988   5.009  11.567  0.2922 -1.4932 -0.9470
19440TIP3    H279812   1.961   4.928  11.692  0.6189 -0.6404 -0.3109
19441TIP3   OH279813   5.934   0.823  12.401 -0.5097  0.1230 -0.1113
19441TIP3    H179814   5.918   0.903  12.352  2.1016  1.5805  1.1651
19441TIP3    H279815   5.861   0.816  12.462 -0.7934  1.5618 -0.2570
19442TIP3   OH279816   5.214   2.303  13.528 -0.2889  0.0905 -0.0770
19442TIP3    H179817   5.123   2.330  13.522 -0.4887 -0.3272  0.8699
19442TIP3    H279818   5.257   2.344  13.453 -1.3157  0.0368 -0.7057
19443TIP3   OH279819   3.050   3.684  13.549  0.3703  0.3830 -0.2136
19443TIP3    H179820   3.034   3.689  13.643  0.1003  0.9831 -0.2893
19443TIP3    H279821   3.114   3.613  13.540  0.9645  0.8149  0.4933
19444TIP3   OH279822   4.690   0.507   4.145 -0.0150  0.8525 -0.2325
19444TIP3    H179823   4.757   0.454   4.101 -0.6620 -0.6470  0.5180
19444TIP3    H279824   4.668   0.576   4.082  1.3253  0.6289 -0.9757
19445TIP3   OH279825   1.246   2.989  16.676 -0.3962 -0.2784  0.3494
19445TIP3    H179826   1.185   2.916  16.671 -0.0186 -0.5871  0.1836
19445TIP3    H279827   1.275   3.002  16.586 -1.3151  0.8203  0.1827
19446TIP3   OH279828   6.583   4.036   4.969 -0.1828  0.2677  0.9589
19446TIP3    H179829   6.607   4.129   4.973  0.5405  0.2839 -1.8334
19446TIP3    H279830   6.564   4.020   4.876 -0.3562 -2.3794  1.3753
19447TIP3   OH279831   3.954   0.034  15.627  0.3043  1.0209 -0.8236
19447TIP3    H179832   3.970  -0.007  15.712 -0.8504 -1.8238 -1.8643
19447TIP3    H279833   4.038   0.032  15.582  0.2044 -0.6770 -0.9920
19448TIP3   OH279834   0.953   2.012   2.400 -0.3897 -0.3881 -0.3063
19448TIP3    H179835   0.979   1.990   2.310  0.0809  0.7410 -0.4705
19448TIP3    H279836   0.951   2.108   2.401 -1.8420 -0.4000  0.4900
19449TIP3   OH279837   4.232   1.667  11.202 -0.1074  0.1224  0.5731
19449TIP3    H179838   4.315   1.638  11.241 -1.6444 -1.7319  2.7533
19449TIP3    H279839   4.214   1.601  11.134  0.0932  0.4046  0.2447
19450TIP3   OH279840   3.027   0.044  13.376 -0.1762  0.8824 -0.1487
19450TIP3    H179841   3.040   0.021  13.468  1.2035  0.2910 -0.4697
19450TIP3    H279842   3.061  -0.031  13.327  0.7016  1.8972 -1.1549
19451TIP3   OH279843   2.541   5.615  15.269 -0.6456  0.7518  0.3000
19451TIP3    H179844   2.518   5.683  15.207 -3.1961 -0.0036  0.3100
19451TIP3    H279845   2.551   5.660  15.352 -0.2283  1.3631 -0.0733
19452TIP3   OH279846   5.820   1.861   3.242  0.2320 -0.5191  0.6627
19452TIP3    H179847   5.894   1.913   3.210  0.6276 -0.7649  1.1599
19452TIP3    H279848   5.809   1.791   3.178  0.2887 -0.3579  0.4754
19453TIP3   OH279849   3.534   2.405   1.797  0.2064 -0.1341  0.5113
19453TIP3    H179850   3.535   2.413   1.893  0.8265 -0.6469  0.5470
19453TIP3    H279851   3.589   2.477   1.767  0.5094 -0.3406  0.5674
19454TIP3   OH279852   2.322   3.929   2.757  0.3649 -0.0477 -0.0049
19454TIP3    H179853   2.325   4.003   2.697  2.9650 -0.0046  0.0364
19454TIP3    H279854   2.361   3.857   2.707 -0.8192 -1.0162  0.4281
19455TIP3   OH279855   1.058   5.359   0.469  0.4205  0.1641 -0.5436
19455TIP3    H179856   1.006   5.320   0.399  0.9286  0.6007 -1.1730
19455TIP3    H279857   1.009   5.437   0.494  0.7579  0.5696 -1.1290
19456TIP3   OH279858   5.078   3.236   6.632 -0.1719  0.0766 -0.3212
19456TIP3    H179859   5.116   3.194   6.709 -0.7217  0.2611  0.0609
19456TIP3    H279860   5.149   3.238   6.568  0.7222  1.1123  0.6393
19457TIP3   OH279861   3.519   2.063  13.098 -0.2978 -0.0847  0.3523
19457TIP3    H179862   3.587   1.996  13.105  0.2668  0.3964 -0.3750
19457TIP3    H279863   3.523   2.111  13.181  0.4358  0.1143  0.2046
19458TIP3   OH279864   3.900   2.614  11.009 -0.1920 -0.0918  0.4039
19458TIP3    H179865   3.933   2.702  11.028  0.9774 -0.4158 -0.0133
19458TIP3    H279866   3.834   2.597  11.076 -0.4880  1.1327  0.4405
19459TIP3   OH279867   6.230   0.953  14.783  0.1374 -0.1027 -0.0485
19459TIP3    H179868   6.202   0.863  14.798  1.1371 -0.0935  2.4644
19459TIP3    H279869   6.220   0.996  14.868 -0.5518  2.2548 -1.2417
19460TIP3   OH279870   3.753   3.334   3.467 -0.5297 -0.3298 -0.6858
19460TIP3    H179871   3.803   3.406   3.430  0.8193 -0.7728  0.1961
19460TIP3    H279872   3.665   3.369   3.482  0.2200  1.2684  0.1456
19461TIP3   OH279873   6.622   0.980  12.633  0.0731  0.4768 -0.3589
19461TIP3    H179874   6.659   0.937  12.710 -1.1161 -0.4452 -0.2664
19461TIP3    H279875   6.635   1.074  12.650 -0.2499  0.3005  1.0278
19462TIP3   OH279876   4.688   6.821  12.694 -0.6338 -0.0340  0.2334
19462TIP3    H179877   4.643   6.831  12.779 -0.7102  0.3397  0.1513
19462TIP3    H279878   4.722   6.731  12.696 -1.3502 -0.3162  0.3165
19463TIP3   OH279879   0.655   1.559   3.953  0.3192 -0.2542 -0.6347
19463TIP3    H179880   0.602   1.635   3.929 -2.8220 -1.6519  1.3271
19463TIP3    H279881   0.613   1.485   3.909  0.2010 -1.5007  1.4619
19464TIP3   OH279882   2.401   3.958   3.066  0.5521  0.0001  0.1447
19464TIP3    H179883   2.398   4.030   3.128  0.7608 -0.4430  0.6727
19464TIP3    H279884   2.488   3.965   3.025  0.4746  0.1973  0.0129
19465TIP3   OH279885   4.309   6.253  14.128  0.3765  0.0085  0.0056
19465TIP3    H179886   4.329   6.344  14.152  4.0479 -0.2296 -1.5168
19465TIP3    H279887   4.367   6.201  14.183  0.1901 -1.2346 -0.9328
19466TIP3   OH279888   6.551   2.802  11.714 -0.1975  0.1099 -0.1864
19466TIP3    H179889   6.539   2.711  11.741  1.1587 -0.2294 -0.6513
19466TIP3    H279890   6.536   2.801  11.620  1.0088  0.1061 -0.4002
19467TIP3   OH279891   0.196   4.676  11.947 -0.4277  0.1855 -0.0791
19467TIP3    H179892   0.291   4.675  11.958 -0.5785  1.7383  1.8433
19467TIP3    H279893   0.170   4.766  11.969 -2.3706 -0.2902 -0.2672
19468TIP3   OH279894   1.407   2.556   0.613 -0.1406 -0.2102  0.0212
19468TIP3    H179895   1.496   2.540   0.580  0.4666 -0.1218  1.5654
19468TIP3    H279896   1.403   2.651   0.625 -0.3267 -0.2547  0.2986
19469TIP3   OH279897   1.284   6.571   3.127 -0.6045 -0.0736 -0.2080
19469TIP3    H179898   1.292   6.614   3.042 -2.0360  0.1470 -0.2545
19469TIP3    H279899   1.213   6.508   3.116  0.1641 -1.0753  0.4189
19470TIP3   OH279900   6.122   3.483   1.985  0.4694  0.8244  0.3400
19470TIP3    H179901   6.056   3.445   1.928  0.3237  0.8829  0.4685
19470TIP3    H279902   6.157   3.408   2.034  1.2042  0.6523 -0.4416
19471TIP3   OH279903   0.851   2.018   3.302  0.1726 -0.7242 -0.0988
19471TIP3    H179904   0.818   2.095   3.347  0.3324 -1.1964  0.8525
19471TIP3    H279905   0.924   2.050   3.249 -0.9271  0.0878 -1.1859
19472TIP3   OH279906   3.590   1.191  12.598 -0.3725 -0.1237 -0.1621
19472TIP3    H179907   3.546   1.153  12.674 -1.2122  0.8206 -0.1585
19472TIP3    H279908   3.526   1.183  12.527 -0.5430  1.1703 -0.1796
19473TIP3   OH279909   2.036   0.814   0.593  0.6965 -0.6050  0.1758
19473TIP3    H179910   2.129   0.816   0.570  0.6985 -2.2874 -0.0648
19473TIP3    H279911   1.995   0.765   0.522 -0.5524  0.8989 -0.2067
19474TIP3   OH279912   5.532   2.828  11.197 -0.1776 -0.4246  0.3540
19474TIP3    H179913   5.565   2.740  11.179  0.0532  0.1217 -2.1948
19474TIP3    H279914   5.599   2.887  11.162 -1.4583  0.7211 -0.2531
19475TIP3   OH279915   0.353   0.704   1.547  0.0361  0.0626 -0.2756
19475TIP3    H179916   0.438   0.737   1.577  0.0635  0.9390 -1.2750
19475TIP3    H279917   0.299   0.782   1.535 -0.8956 -0.4705  0.2304
19476TIP3   OH279918   0.631   5.469  12.391 -0.3790  0.0793  0.3637
19476TIP3    H179919   0.595   5.383  12.409  1.1516 -0.4140  1.2858
19476TIP3    H279920   0.630   5.476  12.295 -0.3453 -1.0451  0.2669
19477TIP3   OH279921   3.348   4.352  10.514 -0.0939  0.1146  0.3895
19477TIP3    H179922   3.331   4.376  10.605 -0.5295  0.9415  0.1069
19477TIP3    H279923   3.421   4.408  10.488  0.5714 -0.7001  0.4604
19478TIP3   OH279924   6.706   3.301  16.337  0.3472  0.4608 -0.0158
19478TIP3    H179925   6.637   3.237  16.355  0.2890  0.2472 -0.9544
19478TIP3    H279926   6.661   3.374  16.296  0.1775  1.7818  2.3446
19479TIP3   OH279927   6.215   0.185  16.898  0.1522  0.3287 -0.4744
19479TIP3    H179928   6.240   0.239  16.822  1.0034  0.8229  0.1325
19479TIP3    H279929   6.298   0.148  16.929 -0.4617 -1.7695 -1.1616
19480TIP3   OH279930   6.235   5.286   5.251 -0.7161  0.2483  0.0058
19480TIP3    H179931   6.225   5.262   5.343 -2.8280 -0.3924 -0.3213
19480TIP3    H279932   6.314   5.240   5.222 -1.7848 -2.2126  0.7325
19481TIP3   OH279933   3.326   0.401   4.551 -0.5745 -0.6073  0.6430
19481TIP3    H179934   3.232   0.420   4.540 -0.1091  1.9113  0.5474
19481TIP3    H279935   3.370   0.472   4.505  1.4085 -1.3897  1.2586
19482TIP3   OH279936   0.035   4.290  12.708 -0.4379  0.8733 -0.2009
19482TIP3    H179937  -0.006   4.204  12.699  2.6548 -0.7089 -0.4989
19482TIP3    H279938   0.038   4.324  12.618  0.8951 -0.0693 -0.5485
19483TIP3   OH279939   0.784   3.992   5.340  0.2993  0.0790  0.0499
19483TIP3    H179940   0.765   4.064   5.281 -0.1254 -0.2276 -0.1972
19483TIP3    H279941   0.718   3.999   5.409  0.0841 -0.2238 -0.1189
19484TIP3   OH279942   5.571   5.864   3.898  0.5040 -0.0532 -0.0411
19484TIP3    H179943   5.647   5.921   3.901 -0.2751  1.0256 -0.2542
19484TIP3    H279944   5.598   5.790   3.844  1.8045 -0.3137  0.9237
19485TIP3   OH279945   1.735   2.429   0.986  0.3107  0.3884 -0.0203
19485TIP3    H179946   1.758   2.338   0.969  1.4561  0.5089  0.7780
19485TIP3    H279947   1.819   2.473   1.002 -0.2230  1.5706 -0.2913
19486TIP3   OH279948   3.646   1.066  13.893 -0.5585 -0.2216 -0.1957
19486TIP3    H179949   3.568   1.120  13.880 -0.1459 -0.0901 -2.4171
19486TIP3    H279950   3.716   1.129  13.912 -0.4659 -0.1173 -0.8681
19487TIP3   OH279951   5.131   6.044  13.731 -0.0251  0.0726  0.0398
19487TIP3    H179952   5.205   6.105  13.735  0.6749 -0.7895  0.4486
19487TIP3    H279953   5.158   5.978  13.667  0.3761 -1.2862  1.5607
19488TIP3   OH279954   1.225   5.047  16.295 -0.1408 -0.1748 -0.1929
19488TIP3    H179955   1.179   4.964  16.307  0.5610 -0.7920 -1.5391
19488TIP3    H279956   1.172   5.095  16.231  0.2326 -0.2204 -0.5414
19489TIP3   OH279957   4.575   4.357  14.623 -0.0242 -0.0169 -0.0235
19489TIP3    H179958   4.551   4.373  14.714 -0.8410 -1.9462  0.1488
19489TIP3    H279959   4.625   4.275  14.625 -1.1166 -0.7788 -1.4012
19490TIP3   OH279960   5.264   0.539  15.084  0.5626  0.5788 -0.4745
19490TIP3    H179961   5.225   0.615  15.128 -0.0856 -0.6207  1.1355
19490TIP3    H279962   5.188   0.486  15.058  1.0167  0.0596 -0.7490
19491TIP3   OH279963   2.652   6.707   4.938  0.2158 -0.9306  0.3848
19491TIP3    H179964   2.653   6.770   5.010 -0.0334 -0.5977  0.1001
19491TIP3    H279965   2.703   6.749   4.869  0.1831 -1.1124  0.2502
19492TIP3   OH279966   5.788   0.502  15.032 -0.0406  0.5756 -0.2999
19492TIP3    H179967   5.734   0.496  14.954 -0.6316 -0.4574  0.1739
19492TIP3    H279968   5.878   0.493  15.001 -0.3714 -2.8952 -0.6129
19493TIP3   OH279969   4.201   1.582  13.042 -0.1947 -0.1753  0.3873
19493TIP3    H179970   4.147   1.512  13.004 -0.4145  0.8914 -1.3325
19493TIP3    H279971   4.141   1.656  13.051  0.9045  0.9887 -1.4165
19494TIP3   OH279972   3.165   1.391   4.598 -0.1327  0.7119  0.2836
19494TIP3    H179973   3.220   1.374   4.522 -0.8704  1.6771 -0.4840
19494TIP3    H279974   3.226   1.423   4.665  0.6100 -0.7264  0.3286
19495TIP3   OH279975   1.603   4.721  14.277 -0.0034  0.1963  0.1866
19495TIP3    H179976   1.635   4.810  14.291 -1.2856  0.2420  3.6280
19495TIP3    H279977   1.528   4.731  14.218 -0.3012  1.4365  0.7597
19496TIP3   OH279978   0.457   0.173   0.439 -0.3073 -0.5165 -0.0377
19496TIP3    H179979   0.420   0.261   0.446 -0.5284 -0.5521 -0.7137
19496TIP3    H279980   0.419   0.126   0.513 -0.3123 -0.0924  0.2370
19497TIP3   OH279981   0.936   2.490  13.419  0.7964 -0.0605 -0.2694
19497TIP3    H179982   0.982   2.572  13.437  0.0424  0.4164 -0.4505
19497TIP3    H279983   0.951   2.474  13.325  0.2445  0.3270 -0.4292
19498TIP3   OH279984   0.236   1.091  11.968  0.0743 -0.1690 -0.3588
19498TIP3    H179985   0.260   1.078  12.059  0.4882  1.2243 -0.2475
19498TIP3    H279986   0.315   1.070  11.919  0.6573  1.5665 -0.1997
19499TIP3   OH279987   1.725   6.836   3.868  0.7699  0.0889  0.1458
19499TIP3    H179988   1.718   6.772   3.939  0.3011 -0.1174 -0.0825
19499TIP3    H279989   1.818   6.834   3.844  0.8868 -0.0165  0.5893
19500TIP3   OH279990   4.831   0.033  16.693 -0.1503  0.5958  0.4406
19500TIP3    H179991   4.779   0.073  16.762  1.1338  0.4158  1.5453
19500TIP3    H279992   4.910   0.001  16.737 -0.0417 -1.0093 -0.8168
19501TIP3   OH279993   4.088   1.754  16.235 -0.0761 -0.6864  0.3410
19501TIP3    H179994   4.092   1.806  16.155  0.4257  0.4622  1.0639
19501TIP3    H279995   3.996   1.754  16.260 -0.0317  0.2922  0.5695
19502TIP3   OH279996   0.380   4.965   3.319  0.0085  0.0678  0.0634
19502TIP3    H179997   0.333   5.031   3.269  0.1699 -0.2494 -0.5098
19502TIP3    H279998   0.402   5.008   3.401  1.4252  1.2148 -0.8833
19503TIP3   OH279999   6.477   3.508  10.791  0.3685  0.1257  0.2470
19503TIP3    H180000   6.470   3.566  10.716  0.9084 -0.6378 -0.4058
19503TIP3    H280001   6.437   3.426  10.762  1.2542 -0.4180  0.5311
19504TIP3   OH280002   1.529   1.320   2.196 -0.0523 -0.0683 -0.3829
19504TIP3    H180003   1.445   1.354   2.226 -0.0973 -0.7058  0.2449
19504TIP3    H280004   1.515   1.300   2.103  0.0695  1.8740 -0.8498
19505TIP3   OH280005   2.192   0.421   6.145  0.5612  0.2345 -0.2431
19505TIP3    H180006   2.150   0.437   6.060 -0.5197 -0.7300  0.0862
19505TIP3    H280007   2.234   0.335   6.135 -0.8668 -0.6054  0.6539
19506TIP3   OH280008   2.141   2.060   3.441 -0.2573 -0.0678 -0.3456
19506TIP3    H180009   2.200   2.043   3.368 -0.6872 -0.7825 -0.5388
19506TIP3    H280010   2.091   1.979   3.451 -0.6928  0.2663  0.2899
19507TIP3   OH280011   4.886   2.519  16.807 -0.5337 -0.6266 -0.2859
19507TIP3    H180012   4.854   2.430  16.815 -2.5162  0.0393 -0.2471
19507TIP3    H280013   4.861   2.546  16.718 -0.6458  0.1249 -0.0368
19508TIP3   OH280014   1.511   3.772   6.077  1.1181 -0.2478 -0.4994
19508TIP3    H180015   1.505   3.858   6.119 -1.1878 -1.1865  1.3040
19508TIP3    H280016   1.530   3.712   6.149  0.8188 -1.4883 -1.4321
19509TIP3   OH280017   3.653   6.219   4.823  0.1951  0.0549  0.1589
19509TIP3    H180018   3.730   6.266   4.790  2.3557 -3.9270 -1.1025
19509TIP3    H280019   3.657   6.230   4.918  3.3139 -1.1556  0.2890
19510TIP3   OH280020   2.766   4.223   5.033  0.6016  0.1529 -0.8314
19510TIP3    H180021   2.755   4.212   5.128 -2.4435 -2.6687 -1.3480
19510TIP3    H280022   2.845   4.172   5.013  0.0393 -1.0832 -0.0369
19511TIP3   OH280023   4.490   1.039   0.954 -0.1792 -0.0730 -0.0060
19511TIP3    H180024   4.559   1.083   1.004  0.8468 -2.4002  0.7538
19511TIP3    H280025   4.462   1.104   0.889  1.0610  1.7421  1.1803
19512TIP3   OH280026   3.604   3.516   2.881  0.2051 -0.2827 -0.2076
19512TIP3    H180027   3.689   3.475   2.895  0.5918  0.6002  0.0670
19512TIP3    H280028   3.624   3.607   2.858 -0.6701 -0.0068  0.0662
19513TIP3   OH280029   3.408   5.819   4.282  0.4787 -0.3485 -0.5150
19513TIP3    H180030   3.404   5.744   4.223 -1.5501  0.2184 -1.1667
19513TIP3    H280031   3.407   5.895   4.223  0.3541  0.2093  0.1932
19514TIP3   OH280032   3.484   3.973  11.175 -0.8427 -0.4519  0.0059
19514TIP3    H180033   3.524   3.966  11.088 -0.1515  0.0357  0.2719
19514TIP3    H280034   3.417   4.040  11.166 -1.0172 -0.6550 -0.2305
19515TIP3   OH280035   0.138   6.849  13.640  0.4608 -0.1047  0.1670
19515TIP3    H180036   0.147   6.811  13.552  0.7673 -0.2240  0.2467
19515TIP3    H280037   0.139   6.944  13.625 -0.8440 -0.1196 -0.0858
19516TIP3   OH280038   3.909   6.425   1.362  0.2641 -0.0632 -0.3202
19516TIP3    H180039   3.957   6.471   1.293  1.7682  0.1292  0.8056
19516TIP3    H280040   3.976   6.376   1.410 -0.4982  0.8035  1.7826
19517TIP3   OH280041   6.555   1.347  12.048 -0.2212 -0.0488 -0.7929
19517TIP3    H180042   6.483   1.384  12.100 -0.2276 -0.6744 -0.3415
19517TIP3    H280043   6.542   1.252  12.054  1.7257 -0.2800  0.9018
19518TIP3   OH280044   5.852   6.778   1.391 -0.3831  0.1173  0.7395
19518TIP3    H180045   5.843   6.856   1.447  1.4961  0.3719  0.7387
19518TIP3    H280046   5.810   6.803   1.309  1.7554  1.8727  0.0779
19519TIP3   OH280047   6.380   0.563   4.137  0.0333 -0.4137  0.3355
19519TIP3    H180048   6.467   0.525   4.134  0.3781  0.2778  1.1391
19519TIP3    H280049   6.338   0.521   4.212 -0.8110 -1.6922 -0.7886
19520TIP3   OH280050   4.636   2.159  16.097 -0.3965  0.1564  0.0315
19520TIP3    H180051   4.554   2.117  16.124  1.1913 -2.4744  1.2159
19520TIP3    H280052   4.693   2.152  16.174  2.2241 -1.7954 -1.8819
19521TIP3   OH280053   0.556   4.874  16.203  0.1218 -0.1658  0.4044
19521TIP3    H180054   0.467   4.902  16.181 -0.0660 -0.1377  1.1810
19521TIP3    H280055   0.573   4.799  16.145 -0.8716 -0.9357  1.0702
19522TIP3   OH280056   1.812   5.537   6.405 -0.3350  0.0352  0.1859
19522TIP3    H180057   1.747   5.468   6.390  1.3233 -1.2138 -1.6700
19522TIP3    H280058   1.868   5.504   6.475 -1.8043  1.2856  2.0737
19523TIP3   OH280059   1.920   3.281  15.666  0.6259 -0.2606  0.1402
19523TIP3    H180060   1.970   3.362  15.665  0.4505 -0.1556 -0.2636
19523TIP3    H280061   1.871   3.283  15.748  1.7904 -0.6726  0.8684
19524TIP3   OH280062   2.418   3.769  14.645 -0.4327 -0.2092 -0.6751
19524TIP3    H180063   2.371   3.777  14.728  1.3980  1.8867  0.2688
19524TIP3    H280064   2.351   3.779  14.578 -1.6139  0.6910  0.5864
19525TIP3   OH280065   5.325   5.767  11.183 -0.1734  0.0643  0.2813
19525TIP3    H180066   5.259   5.776  11.114 -0.5783  0.8055  0.7528
19525TIP3    H280067   5.322   5.851  11.230 -2.6834 -1.6640  3.6425
19526TIP3   OH280068   0.875   5.039   3.871 -0.8861  0.1771  0.2649
19526TIP3    H180069   0.811   5.017   3.938 -2.1107  1.1225 -0.5517
19526TIP3    H280070   0.907   5.126   3.895 -0.2167 -0.1092  0.4309
19527TIP3   OH280071   5.947   0.148   3.396 -0.2230  0.2936  0.3840
19527TIP3    H180072   5.865   0.112   3.363 -0.6779 -0.1267  1.8682
19527TIP3    H280073   5.920   0.219   3.454  0.4320  0.0575  1.0011
19528TIP3   OH280074   3.822   5.981   3.806 -0.3948  0.5538 -0.2979
19528TIP3    H180075   3.807   6.075   3.807  1.5266  0.9238 -1.5183
19528TIP3    H280076   3.870   5.963   3.887  1.1950  1.0219 -1.1125
19529TIP3   OH280077   5.834   2.828   3.583  0.4559 -0.2139  0.1569
19529TIP3    H180078   5.766   2.761   3.572  0.1011 -0.5653  3.4418
19529TIP3    H280079   5.799   2.886   3.651  2.6884  0.6666  0.6275
19530TIP3   OH280080   4.445   1.998   4.891 -0.1638  0.1642 -0.8137
19530TIP3    H180081   4.423   2.091   4.899  0.4220  0.2642 -0.2718
19530TIP3    H280082   4.535   1.998   4.858  0.3151 -0.1828  0.4270
19531TIP3   OH280083   4.981   2.755  10.496 -0.1108 -0.2178  0.2087
19531TIP3    H180084   5.033   2.798  10.427 -1.5779  2.7718  0.7980
19531TIP3    H280085   5.046   2.708  10.548  1.5362  0.4751 -1.1025
19532TIP3   OH280086   4.603   0.973  13.906  0.2775  0.2261 -0.0063
19532TIP3    H180087   4.516   0.996  13.937  0.6912 -0.1165  1.4713
19532TIP3    H280088   4.612   1.019  13.822 -0.4529  2.1320  0.9137
19533TIP3   OH280089   3.492   6.638   3.826 -0.7594  0.2535  0.4484
19533TIP3    H180090   3.494   6.732   3.844 -0.2967  0.2768  0.2907
19533TIP3    H280091   3.528   6.598   3.905  0.9081  0.3319 -0.2348
19534TIP3   OH280092   2.228   5.460  13.366 -0.0885 -0.4681  0.4070
19534TIP3    H180093   2.290   5.481  13.296  3.3283  0.8230  3.5462
19534TIP3    H280094   2.262   5.381  13.406 -0.6367  0.0685  2.0159
19535TIP3   OH280095   2.344   2.036   3.220 -0.0346  0.1044 -0.0991
19535TIP3    H180096   2.398   2.022   3.298 -0.7327  2.6204  0.9418
19535TIP3    H280097   2.406   2.063   3.153  0.3011  0.5320  0.3713
19536TIP3   OH280098   6.473   3.191   3.784 -0.0362 -0.2483  0.1079
19536TIP3    H180099   6.389   3.153   3.761 -0.3219  0.6519 -0.3799
19536TIP3    H280100   6.491   3.255   3.715  1.5163 -1.1069 -0.3448
19537TIP3   OH280101   1.422   5.417   4.396 -0.1223  0.3835  0.0920
19537TIP3    H180102   1.338   5.456   4.371  1.0026  2.1595 -1.1327
19537TIP3    H280103   1.415   5.406   4.491 -1.8553  0.1195 -0.0241
19538TIP3   OH280104   0.186   0.113   4.703  0.2412 -0.2493  0.4443
19538TIP3    H180105   0.197   0.054   4.778 -0.0629  0.0922  0.7624
19538TIP3    H280106   0.261   0.172   4.709 -0.5990  0.7770  1.4145
19539TIP3   OH280107   2.884   4.731  11.425 -0.4624 -0.0564 -0.0557
19539TIP3    H180108   2.970   4.710  11.388  0.2075  0.8970  0.8961
19539TIP3    H280109   2.873   4.669  11.497  0.0908  0.7285  0.7293
19540TIP3   OH280110   0.862   4.946   5.112 -0.2192 -0.4798 -0.4400
19540TIP3    H180111   0.835   4.869   5.062 -0.4261  0.2404 -1.4650
19540TIP3    H280112   0.803   4.948   5.187 -0.3598 -1.1934 -0.5252
19541TIP3   OH280113   3.362   0.910  14.575 -0.0135  0.1289 -0.0336
19541TIP3    H180114   3.367   0.992  14.527 -0.5668  0.5233  0.5638
19541TIP3    H280115   3.343   0.844  14.509 -2.9738  0.9496 -0.1376
19542TIP3   OH280116   3.438   0.476   0.240  0.3163 -0.3065  0.4137
19542TIP3    H180117   3.434   0.384   0.268  1.9814 -0.0950  1.4915
19542TIP3    H280118   3.454   0.525   0.321  1.4971  0.7182 -0.4015
19543TIP3   OH280119   3.698   2.670  12.763  0.0105  0.4326 -0.6303
19543TIP3    H180120   3.725   2.762  12.755 -0.7706  0.7098 -0.1768
19543TIP3    H280121   3.761   2.633  12.825  1.1728  0.2912 -1.8412
19544TIP3   OH280122   6.817   0.482  10.562 -0.0901 -0.0415  0.4293
19544TIP3    H180123   6.832   0.420  10.634 -1.6237  0.3964  1.1624
19544TIP3    H280124   6.876   0.554  10.581 -0.6996  0.2112  1.4574
19545TIP3   OH280125   5.827   5.590  11.279 -0.5853  0.3450 -0.2079
19545TIP3    H180126   5.851   5.669  11.231 -1.7343  0.4036 -0.7068
19545TIP3    H280127   5.911   5.554  11.308  0.0603  0.9311 -1.2764
19546TIP3   OH280128   2.250   1.516   6.045 -0.6806  0.7411  0.6390
19546TIP3    H180129   2.162   1.549   6.025 -0.4707  0.7105 -0.3894
19546TIP3    H280130   2.267   1.546   6.134 -2.1176 -0.0823  1.2378
19547TIP3   OH280131   2.074   1.790  11.780 -0.2196 -0.1059  0.2767
19547TIP3    H180132   2.072   1.763  11.689 -1.4844 -0.5150  0.4159
19547TIP3    H280133   2.003   1.854  11.789  0.7755  0.9979  0.6669
19548TIP3   OH280134   3.347   5.172  14.579 -0.0745 -0.0048 -0.2147
19548TIP3    H180135   3.413   5.191  14.513 -1.6628  1.5859 -1.4141
19548TIP3    H280136   3.389   5.107  14.636  1.6227 -0.8789 -2.3161
19549TIP3   OH280137   1.271   2.159  14.974 -0.2192  0.0316  0.4153
19549TIP3    H180138   1.254   2.094  14.906 -2.6453 -0.1043  1.0691
19549TIP3    H280139   1.234   2.240  14.941  0.9727  0.6204  0.4771
19550TIP3   OH280140   5.388   0.833   6.346 -0.0267 -0.1631 -0.3645
19550TIP3    H180141   5.394   0.928   6.340 -1.1925  0.1300  1.9601
19550TIP3    H280142   5.295   0.814   6.337 -0.2727 -0.7015  2.3859
19551TIP3   OH280143   5.962   3.437  12.479  0.1150 -0.0288 -0.3404
19551TIP3    H180144   5.975   3.374  12.408  1.4288  0.9743 -1.0277
19551TIP3    H280145   6.015   3.512  12.454  0.8692  0.2381  1.8847
19552TIP3   OH280146   4.325   1.294   4.761  0.3327  0.0171 -0.4339
19552TIP3    H180147   4.412   1.322   4.790  0.8541 -1.9901  0.1493
19552TIP3    H280148   4.338   1.204   4.730 -1.7023 -0.7459  0.7052
19553TIP3   OH280149   3.714   6.797  15.574  0.4254  0.1955 -0.5250
19553TIP3    H180150   3.795   6.837  15.606  0.6275  0.0013 -0.7866
19553TIP3    H280151   3.663   6.870  15.538 -0.5490  0.6945  1.7141
19554TIP3   OH280152   1.048   3.513  13.911 -0.8609 -0.4055 -1.0129
19554TIP3    H180153   1.050   3.549  14.000 -1.6071  0.8247 -1.4614
19554TIP3    H280154   1.133   3.535  13.874 -1.6237  1.8730 -1.5951
19555TIP3   OH280155   3.835   0.183  14.958 -0.0766  0.5440  0.1744
19555TIP3    H180156   3.915   0.133  14.973 -1.0740 -2.8486 -3.8185
19555TIP3    H280157   3.865   0.266  14.921  1.6493  0.0296  0.3287
19556TIP3   OH280158   0.464   4.030   1.247  0.1239 -0.1808 -0.0321
19556TIP3    H180159   0.518   4.104   1.220 -1.7785  0.7389 -1.5227
19556TIP3    H280160   0.520   3.953   1.232  0.1648  0.4537 -4.4427
19557TIP3   OH280161   4.349   0.116  13.909 -0.5761  0.5604 -0.0350
19557TIP3    H180162   4.313   0.189  13.959  1.2103  2.2252 -1.0273
19557TIP3    H280163   4.437   0.104  13.945 -0.0139  0.4438 -1.3771
19558TIP3   OH280164   5.255   6.051  16.769  0.0536  0.1173  0.3352
19558TIP3    H180165   5.196   6.053  16.693 -0.5649 -2.7518  0.6223
19558TIP3    H280166   5.321   5.986  16.746  0.5091  0.0303  1.8090
19559TIP3   OH280167   3.740   2.008   2.839 -0.8410 -0.0590 -0.1247
19559TIP3    H180168   3.770   2.089   2.880  0.6217  0.2919 -1.7695
19559TIP3    H280169   3.702   1.957   2.911 -0.9802  1.6893  1.0981
19560TIP3   OH280170   4.988   2.264  14.032  0.4606 -0.5034 -0.1727
19560TIP3    H180171   4.994   2.314  14.114 -1.2595 -1.0904  0.3568
19560TIP3    H280172   5.070   2.216  14.027  0.1137 -1.4444  1.9186
19561TIP3   OH280173   5.969   1.031  14.342  0.3060 -0.3011  0.3363
19561TIP3    H180174   6.049   0.992  14.306  1.2128  2.1447 -0.4796
19561TIP3    H280175   5.900   1.001  14.283  1.3876  1.4667 -1.9556
19562TIP3   OH280176   5.732   0.017   3.898  0.4841 -0.1425 -0.1747
19562TIP3    H180177   5.718  -0.075   3.922  0.3100  0.1429  0.8980
19562TIP3    H280178   5.644   0.050   3.877  0.2982  0.1856  1.0366
19563TIP3   OH280179   2.419   2.552   0.990 -0.3262 -0.0521 -0.5084
19563TIP3    H180180   2.450   2.480   1.046  1.1613  1.7272  1.0903
19563TIP3    H280181   2.393   2.620   1.051 -0.3889  1.3020 -1.9793
19564TIP3   OH280182   1.606   2.204   4.667 -0.4823 -0.1355 -0.1392
19564TIP3    H180183   1.594   2.149   4.590 -0.2815  0.1409 -0.3724
19564TIP3    H280184   1.519   2.213   4.705 -1.0515  1.6886 -1.6936
19565TIP3   OH280185   5.193   2.354  12.253 -0.1150  0.3968  0.6989
19565TIP3    H180186   5.289   2.353  12.255 -0.0975  0.6986  0.2519
19565TIP3    H280187   5.171   2.382  12.164 -0.6247 -0.1418  0.6435
19566TIP3   OH280188   6.420   2.289   4.975  1.2471  0.3949  0.0017
19566TIP3    H180189   6.471   2.222   4.930 -0.6469 -1.3718  0.3388
19566TIP3    H280190   6.450   2.285   5.066  2.1600  1.0567 -0.2587
19567TIP3   OH280191   2.007   1.083  15.698  0.1188  0.1895  0.0533
19567TIP3    H180192   2.021   1.115  15.609  0.6101  0.3754  0.1951
19567TIP3    H280193   1.976   1.159  15.747 -2.6163 -0.4582 -0.5143
19568TIP3   OH280194   6.208   1.835  15.817 -0.7523 -0.3927 -0.3366
19568TIP3    H180195   6.214   1.841  15.721  1.1901  0.8637 -0.1824
19568TIP3    H280196   6.218   1.741  15.835  0.3284 -0.4838 -1.3017
19569TIP3   OH280197   6.809   1.379   5.207  0.3604  0.3188  0.5509
19569TIP3    H180198   6.789   1.326   5.129  1.2086  0.2225  0.3952
19569TIP3    H280199   6.846   1.317   5.269  1.2760  0.7080  0.4012
19570TIP3   OH280200   0.603   4.927   3.944  0.6182  0.3512  0.0481
19570TIP3    H180201   0.638   4.859   4.003 -2.2309 -2.7506 -1.5060
19570TIP3    H280202   0.643   4.907   3.860  0.5598  1.3183 -0.2089
19571TIP3   OH280203   0.503   3.634  10.833 -0.0205  0.6430  0.2748
19571TIP3    H180204   0.435   3.700  10.820 -0.5422  0.0724  0.0486
19571TIP3    H280205   0.584   3.678  10.808 -0.0010  1.9843  2.4155
19572TIP3   OH280206   6.553   2.041  15.360  0.0775  0.2381 -0.3537
19572TIP3    H180207   6.558   2.136  15.352 -1.4404  0.2473 -1.7302
19572TIP3    H280208   6.459   2.021  15.354  0.2096 -1.2354  1.5729
19573TIP3   OH280209   3.049   0.492  12.109  0.5259 -0.1643 -0.2274
19573TIP3    H180210   3.079   0.456  12.193  0.8433 -0.4285 -0.4517
19573TIP3    H280211   3.128   0.495  12.055  0.0321 -1.5768 -1.0897
19574TIP3   OH280212   2.170   0.080   4.656 -0.4447  0.1030  0.7327
19574TIP3    H180213   2.243   0.040   4.703  0.3148  0.6782  0.0531
19574TIP3    H280214   2.204   0.097   4.568 -1.6363 -0.3431  0.1651
19575TIP3   OH280215   6.378   1.471   2.965  0.1113  0.3266  0.0830
19575TIP3    H180216   6.399   1.423   3.045 -0.0977  1.1611  0.6482
19575TIP3    H280217   6.462   1.506   2.935 -0.1264  1.8805  1.1729
19576TIP3   OH280218   1.434   3.370   1.620  0.3171 -0.2045 -0.6083
19576TIP3    H180219   1.393   3.456   1.612  0.2591 -0.2800 -1.2070
19576TIP3    H280220   1.396   3.332   1.699 -2.1569 -0.9839 -2.0540
19577TIP3   OH280221   3.820   3.471   0.695 -0.4982 -0.0666  0.1714
19577TIP3    H180222   3.795   3.460   0.787 -2.6454  0.1628 -0.3300
19577TIP3    H280223   3.814   3.383   0.658  1.6532 -0.3919  0.5029
19578TIP3   OH280224   2.853   4.600  16.761 -0.3582 -0.1957  0.4791
19578TIP3    H180225   2.891   4.549  16.832 -0.4544  0.1187  0.7589
19578TIP3    H280226   2.863   4.691  16.789 -2.1707 -0.1176  1.0110
19579TIP3   OH280227   1.442   3.161  13.612  0.1317 -0.2617  0.1025
19579TIP3    H180228   1.358   3.191  13.646  0.1927 -0.9082  0.8433
19579TIP3    H280229   1.507   3.196  13.673  0.3043 -0.8049  0.2286
19580TIP3   OH280230   1.880   1.332  12.934  0.2855 -0.6025 -0.1810
19580TIP3    H180231   1.876   1.285  12.850  0.9477  0.7622 -1.0141
19580TIP3    H280232   1.902   1.422  12.910 -1.9055  0.4214  1.2786
19581TIP3   OH280233   0.436   0.207   4.657 -0.4646 -0.0579 -0.2607
19581TIP3    H180234   0.501   0.210   4.726 -0.6779  0.4927 -0.0783
19581TIP3    H280235   0.439   0.294   4.617  1.2295 -1.0162 -2.4209
19582TIP3   OH280236   1.541   4.616   3.712 -0.1324 -0.2543  0.2026
19582TIP3    H180237   1.494   4.596   3.631  0.9184 -1.1981 -0.1912
19582TIP3    H280238   1.503   4.699   3.742 -1.1292 -0.3349 -0.7851
19583TIP3   OH280239   1.480   4.425   6.391 -0.5559 -0.5942 -0.0967
19583TIP3    H180240   1.473   4.343   6.440  1.5977 -0.4563  0.5542
19583TIP3    H280241   1.488   4.397   6.299  1.8445 -1.2914  0.2520
19584TIP3   OH280242   0.015   2.605   3.978  0.3422 -0.2002 -0.2677
19584TIP3    H180243   0.093   2.647   4.014  0.9695 -1.0237 -0.6307
19584TIP3    H280244   0.034   2.597   3.884 -0.1214 -0.5284 -0.3345
19585TIP3   OH280245   4.705   5.499   4.084  0.1626 -0.2741  0.2338
19585TIP3    H180246   4.678   5.564   4.149 -0.0389  1.7426 -1.7562
19585TIP3    H280247   4.623   5.465   4.048  0.2626  0.2837 -0.5339
19586TIP3   OH280248   0.363   0.668  13.151  0.1832 -0.5234  0.1319
19586TIP3    H180249   0.411   0.709  13.079  4.0224 -2.2273  1.4506
19586TIP3    H280250   0.359   0.575  13.127 -2.0005 -0.5670  0.4292
19587TIP3   OH280251   5.511   0.926  14.782  0.0892 -0.5800  0.0523
19587TIP3    H180252   5.434   0.970  14.746  0.4049  1.8043  2.0203
19587TIP3    H280253   5.476   0.849  14.826 -1.8305  2.0197  3.6449
19588TIP3   OH280254   0.252   0.387   2.345  0.0315 -0.4643 -0.0077
19588TIP3    H180255   0.157   0.387   2.330 -0.1934 -1.6039  1.1221
19588TIP3    H280256   0.291   0.388   2.258 -1.0024  0.5000 -0.4827
19589TIP3   OH280257   0.009   5.338  13.971 -0.4507 -0.0216  0.2076
19589TIP3    H180258  -0.025   5.424  13.996  0.8402  0.2162  1.2805
19589TIP3    H280259   0.027   5.294  14.054  2.7173  0.2722 -0.1916
19590TIP3   OH280260   4.657   4.760   1.327  0.0061 -0.4532 -0.1414
19590TIP3    H180261   4.700   4.781   1.244  0.1534  0.0206  0.0495
19590TIP3    H280262   4.564   4.769   1.308 -0.2242 -3.6521 -1.1691
19591TIP3   OH280263   0.581   3.395  13.990  0.2628 -0.0475  0.1808
19591TIP3    H180264   0.530   3.462  13.946  0.0614  0.5676  1.3047
19591TIP3    H280265   0.667   3.436  14.004  0.2506 -0.1424  0.5521
19592TIP3   OH280266   5.066   1.092  10.478 -0.6018  0.0463 -0.4567
19592TIP3    H180267   5.078   0.998  10.463 -4.3767 -0.1697 -3.7973
19592TIP3    H280268   5.008   1.097  10.554  1.3338 -0.0864  1.1044
19593TIP3   OH280269   5.303   4.810  10.809  0.4593 -0.2365 -0.0599
19593TIP3    H180270   5.363   4.799  10.736  0.0937  1.0155 -0.5620
19593TIP3    H280271   5.222   4.769  10.780 -0.3948  2.1411 -1.2968
19594TIP3   OH280272   2.543   1.994  15.586  0.2540 -0.1365 -0.3835
19594TIP3    H180273   2.567   1.911  15.545  0.1691 -0.2341 -0.2341
19594TIP3    H280274   2.484   1.970  15.658 -0.2074  0.0924 -0.6767
19595TIP3   OH280275   0.366   5.118  16.701 -0.0237  0.1968 -0.1514
19595TIP3    H180276   0.280   5.161  16.703  0.2296  0.7399 -0.5025
19595TIP3    H280277   0.350   5.034  16.658 -0.5302 -0.0677  0.5382
19596TIP3   OH280278   1.851   2.113   5.492  0.2587  0.4621  0.0375
19596TIP3    H180279   1.843   2.056   5.568  0.4753  1.8959  1.1821
19596TIP3    H280280   1.778   2.088   5.435 -0.3019 -0.2023  1.0158
19597TIP3   OH280281   6.766   5.516   1.068 -0.2825 -0.0766  0.5742
19597TIP3    H180282   6.698   5.584   1.070 -1.4630 -1.1543 -0.8962
19597TIP3    H280283   6.802   5.520   0.980  0.5743 -0.5021  0.8901
19598TIP3   OH280284   1.668   2.307   1.656 -0.0235 -0.5719  0.2082
19598TIP3    H180285   1.644   2.386   1.705  3.1260  2.7847 -3.0490
19598TIP3    H280286   1.598   2.297   1.591 -0.1948 -0.1394  0.3194
19599TIP3   OH280287   2.250   3.469  12.420  0.4495 -0.4155  0.2404
19599TIP3    H180288   2.301   3.546  12.396  0.3368 -0.4206 -0.0290
19599TIP3    H280289   2.241   3.420  12.337  1.5063 -1.3045  0.6246
19600TIP3   OH280290   1.260   2.683  11.586 -0.1240  0.0529 -0.4331
19600TIP3    H180291   1.192   2.646  11.529  0.5834 -1.0799 -0.5839
19600TIP3    H280292   1.309   2.607  11.617  1.4714  0.8736 -0.8370
19601TIP3   OH280293   3.233   1.963  13.117 -0.1602  0.4598  0.4406
19601TIP3    H180294   3.326   1.984  13.113  0.0303 -0.3901  0.0811
19601TIP3    H280295   3.211   1.933  13.029 -1.4025  3.0546 -0.2345
19602TIP3   OH280296   6.363   0.400  14.945 -0.2190  0.2736 -0.1955
19602TIP3    H180297   6.380   0.312  14.912  0.9653  0.3907  0.0758
19602TIP3    H280298   6.275   0.395  14.982 -1.0706 -0.2111 -2.1319
19603TIP3   OH280299   6.046   6.497  10.428  0.2397 -0.1150 -0.4480
19603TIP3    H180300   6.054   6.544  10.345  2.1488 -0.4424 -0.4940
19603TIP3    H280301   5.962   6.452  10.422  0.1693  0.1736 -2.0573
19604TIP3   OH280302   2.928   1.837   2.069 -0.4982 -0.1829 -0.3104
19604TIP3    H180303   2.963   1.919   2.105 -0.9689 -0.1044 -0.0204
19604TIP3    H280304   2.846   1.823   2.116  0.2568 -1.5774  0.6762
19605TIP3   OH280305   4.813   1.960  12.847  0.5980  0.0293  0.2782
19605TIP3    H180306   4.778   1.892  12.789 -1.8840  1.8591 -0.5034
19605TIP3    H280307   4.879   2.005  12.793  2.1093 -1.5137  0.7332
19606TIP3   OH280308   4.263   6.529  12.033 -0.1758 -0.0054  0.7090
19606TIP3    H180309   4.277   6.446  11.988 -1.4404  0.2760 -0.2512
19606TIP3    H280310   4.178   6.520  12.075 -0.8225  1.1551 -0.2816
19607TIP3   OH280311   2.514   0.637   1.836 -0.6244  0.3380  0.0058
19607TIP3    H180312   2.545   0.547   1.822 -1.3192  0.1619 -0.4122
19607TIP3    H280313   2.452   0.652   1.765 -0.8258  1.0051  0.3225
19608TIP3   OH280314   5.327   4.927  15.561  0.1803 -0.2320 -0.3955
19608TIP3    H180315   5.244   4.944  15.517  0.0024  1.7175  0.6360
19608TIP3    H280316   5.303   4.880  15.641  0.1211 -0.0012 -0.2799
19609TIP3   OH280317   0.913   1.722   2.484  0.5276 -0.5046  0.1744
19609TIP3    H180318   0.850   1.766   2.426 -0.7462 -0.6544  1.3866
19609TIP3    H280319   0.867   1.643   2.513  1.0745 -0.3704  1.4894
19610TIP3   OH280320   0.241   4.084  15.418  0.4603 -0.6624 -0.1511
19610TIP3    H180321   0.313   4.127  15.464  0.3512 -1.1306  0.4757
19610TIP3    H280322   0.199   4.030  15.485 -0.3846 -0.5063 -0.5469
19611TIP3   OH280323   3.949   3.662   3.868  0.2607  0.6102 -0.2714
19611TIP3    H180324   3.993   3.636   3.949 -1.2642 -1.0561  0.0981
19611TIP3    H280325   3.958   3.586   3.810 -1.2210  0.5933 -0.5346
19612TIP3   OH280326   6.242   3.397   0.217 -0.4153  0.3584 -0.1547
19612TIP3    H180327   6.265   3.392   0.124 -1.8733 -1.0358 -0.4936
19612TIP3    H280328   6.175   3.330   0.228 -1.5948  1.7400  1.5245
19613TIP3   OH280329   2.969   3.802   4.615 -0.1958  0.6481 -0.4137
19613TIP3    H180330   3.009   3.781   4.531  1.0701 -0.4450  0.4302
19613TIP3    H280331   3.023   3.756   4.680 -1.9836  0.2940  0.8944
19614TIP3   OH280332   0.814   5.029  11.411  0.2774 -0.2781 -0.0765
19614TIP3    H180333   0.862   5.028  11.494  1.7731 -0.1780 -0.8998
19614TIP3    H280334   0.829   4.942  11.374  2.0074  0.5414 -1.4935
19615TIP3   OH280335   3.448   5.979   3.001 -0.5044 -0.2828 -0.2576
19615TIP3    H180336   3.469   6.071   3.020 -0.6780 -0.2052 -0.4311
19615TIP3    H280337   3.518   5.929   3.042 -0.1932 -0.0469 -0.4936
19616TIP3   OH280338   5.568   5.620   0.267 -0.6285  0.2031 -0.0283
19616TIP3    H180339   5.585   5.714   0.256 -1.0318  0.3139  0.2973
19616TIP3    H280340   5.478   5.609   0.236 -0.6985 -0.0201  0.2623
19617TIP3   OH280341   5.071   0.490   2.837 -0.0427 -0.6661 -0.5563
19617TIP3    H180342   5.116   0.560   2.883 -1.5996 -0.5837  0.9194
19617TIP3    H280343   5.116   0.410   2.865 -2.6634 -0.9465  3.5452
19618TIP3   OH280344   5.773   5.125  13.999 -0.5749  0.0468 -0.1865
19618TIP3    H180345   5.748   5.216  14.015  2.4685  1.7867 -3.8426
19618TIP3    H280346   5.712   5.095  13.932 -0.5545 -0.0647 -0.1551
19619TIP3   OH280347   3.807   5.887   1.932  0.0704  0.7076  0.1376
19619TIP3    H180348   3.755   5.861   1.856 -0.7218 -0.6273  1.0850
19619TIP3    H280349   3.777   5.830   2.002  2.4053  0.2846  0.8951
19620TIP3   OH280350   6.006   3.899  16.063  0.5320  0.2003 -0.2981
19620TIP3    H180351   5.938   3.834  16.083  1.0988 -0.7202 -1.2101
19620TIP3    H280352   5.962   3.983  16.071  0.1809 -0.1609  2.5521
19621TIP3   OH280353   4.338   1.329  13.953  0.0241  0.4245  0.2182
19621TIP3    H180354   4.303   1.283  14.029  1.5927 -3.0655 -0.9534
19621TIP3    H280355   4.422   1.364  13.983  1.8062 -3.0015 -0.3040
19622TIP3   OH280356   2.396   3.860   5.224 -1.2548  0.2444 -0.6185
19622TIP3    H180357   2.343   3.930   5.184 -1.4017 -0.2069 -1.2328
19622TIP3    H280358   2.335   3.787   5.235 -0.9985  0.0615 -0.3961
19623TIP3   OH280359   3.676   5.509   3.525  0.2366  0.5810  0.0023
19623TIP3    H180360   3.637   5.593   3.550  0.8203  0.4192  1.6156
19623TIP3    H280361   3.604   5.447   3.530 -0.3700  1.0622 -1.9235
19624TIP3   OH280362   3.866   3.071   5.983  0.4449 -0.2676  0.2798
19624TIP3    H180363   3.855   2.980   5.956  0.7104 -1.2347  3.1175
19624TIP3    H280364   3.796   3.086   6.047  1.3025  1.0214  0.9673
19625TIP3   OH280365   5.514   0.195  16.063  0.0083  0.0431  0.4357
19625TIP3    H180366   5.481   0.241  15.986 -1.8770  0.1287  1.2326
19625TIP3    H280367   5.603   0.229  16.075 -0.5331  1.8563 -0.2857
19626TIP3   OH280368   4.835   1.079  10.265  0.2490 -0.2298 -0.6147
19626TIP3    H180369   4.905   1.109  10.323 -0.1812 -0.7672  0.2149
19626TIP3    H280370   4.755   1.087  10.318 -0.4888  1.3745 -1.8882
19627TIP3   OH280371   0.075   3.066   5.202 -0.2142  0.0263 -0.0056
19627TIP3    H180372   0.099   3.120   5.277 -1.4729  0.4334  0.1301
19627TIP3    H280373   0.114   3.112   5.127 -0.5762  0.6876  0.1994
19628TIP3   OH280374   6.640   2.144  14.010  0.2164 -0.5935  0.3957
19628TIP3    H180375   6.591   2.217  14.048  1.0852 -0.6229  1.6145
19628TIP3    H280376   6.676   2.178  13.928  0.8267  0.4235  1.0777
19629TIP3   OH280377   1.948   4.137   4.466  0.1729 -0.7648  0.4930
19629TIP3    H180378   1.943   4.043   4.478 -1.1616 -0.4359  3.0976
19629TIP3    H280379   1.959   4.173   4.554  0.7604  1.5344 -0.4259
19630TIP3   OH280380   0.456   0.789  15.109 -0.1258  0.3672  0.0524
19630TIP3    H180381   0.368   0.815  15.136 -1.8542 -1.6261 -3.1158
19630TIP3    H280382   0.495   0.869  15.074 -0.8962  1.1413  0.9187
19631TIP3   OH280383   0.131   5.470   3.361 -0.9534  0.5431 -0.2729
19631TIP3    H180384   0.072   5.528   3.314  0.8319  1.6558 -1.2782
19631TIP3    H280385   0.218   5.510   3.349  0.2015 -1.7500 -0.0715
19632TIP3   OH280386   4.350   1.910  14.184 -0.1651 -0.9049  0.5152
19632TIP3    H180387   4.349   1.824  14.142  1.1021 -0.3478 -0.7270
19632TIP3    H280388   4.443   1.931  14.193 -0.4463 -0.1612  1.8720
19633TIP3   OH280389   3.998   4.648   0.242  0.2983  0.4580 -0.9397
19633TIP3    H180390   3.922   4.704   0.262 -0.6344 -1.2011  0.4220
19633TIP3    H280391   3.976   4.609   0.158  0.4864  1.3367 -1.4095
19634TIP3   OH280392   1.967   2.433  12.984 -0.2689 -0.2257 -0.7563
19634TIP3    H180393   1.880   2.417  13.020 -0.0636  0.9126  0.3239
19634TIP3    H280394   2.019   2.359  13.014 -0.3729  0.1508  0.3770
19635TIP3   OH280395   2.813   5.867  11.185  0.5115 -0.2597  0.0961
19635TIP3    H180396   2.813   5.783  11.141 -1.6244 -0.0884 -0.3304
19635TIP3    H280397   2.755   5.922  11.132  2.6401  1.8301 -0.2176
19636TIP3   OH280398   3.087   5.094   3.943  0.0078 -0.0494  0.3520
19636TIP3    H180399   3.095   5.080   3.849  3.0936  0.6758  0.3994
19636TIP3    H280400   2.997   5.122   3.956 -0.3139  0.4432 -2.4623
19637TIP3   OH280401   4.121   4.106   0.641 -0.1005 -0.3682 -0.0304
19637TIP3    H180402   4.083   4.089   0.554  0.8069  0.0766 -0.5280
19637TIP3    H280403   4.103   4.199   0.657  1.5383  0.1026 -0.6914
19638TIP3   OH280404   6.879   3.948  12.801  0.4042 -0.0593  0.4871
19638TIP3    H180405   6.797   3.899  12.806 -0.1066  0.5859 -1.0917
19638TIP3    H280406   6.886   3.992  12.886 -0.9015 -0.0884  0.6278
19639TIP3   OH280407   1.458   0.860  11.522 -0.1485 -0.0592 -0.0010
19639TIP3    H180408   1.494   0.798  11.586  0.7172  0.5174  0.0831
19639TIP3    H280409   1.365   0.838  11.518 -0.1039 -0.4967  1.0089
19640TIP3   OH280410   2.878   2.352   2.558  0.1359  0.4850 -0.2141
19640TIP3    H180411   2.808   2.331   2.497 -1.2996 -0.5203  1.6506
19640TIP3    H280412   2.847   2.430   2.604  0.8523  0.8037 -0.2567
19641TIP3   OH280413   3.121   5.545  14.166  0.3397  0.1152 -0.1005
19641TIP3    H180414   3.163   5.592  14.093 -1.3638 -0.1388 -1.2979
19641TIP3    H280415   3.096   5.460  14.128 -1.4699  0.3615  0.4798
19642TIP3   OH280416   5.006   5.441  11.051 -0.2063  0.1095 -0.4047
19642TIP3    H180417   4.978   5.396  11.131 -1.3052 -0.0760 -0.8835
19642TIP3    H280418   5.102   5.432  11.052 -0.3027 -1.2109  0.1196
19643TIP3   OH280419   2.973   3.558  11.522 -0.3703  0.3176  0.5800
19643TIP3    H180420   2.903   3.507  11.564  1.0286 -3.9698 -1.6264
19643TIP3    H280421   3.049   3.546  11.579  0.0265 -0.3934 -0.0721
19644TIP3   OH280422   5.368   6.655  12.186  0.1122 -0.2020  0.0458
19644TIP3    H180423   5.457   6.688  12.176  0.3937 -0.4868  1.3562
19644TIP3    H280424   5.317   6.731  12.212  0.5939 -0.5348  2.2170
19645TIP3   OH280425   3.780   2.053  12.681 -0.2689 -0.8606 -0.2788
19645TIP3    H180426   3.831   1.973  12.673  0.0703 -0.5290 -1.7596
19645TIP3    H280427   3.766   2.082  12.591  0.7504  1.4544  0.2320
19646TIP3   OH280428   3.751   3.997   0.238  0.1155  0.1300 -0.3087
19646TIP3    H180429   3.760   4.050   0.318  0.8693 -0.7905  0.2372
19646TIP3    H280430   3.656   3.990   0.224 -0.0040  1.4648 -0.2992
19647TIP3   OH280431   3.824   6.639  13.566 -0.1836 -0.1016 -0.4589
19647TIP3    H180432   3.887   6.709  13.583 -0.9552  0.1990  1.4108
19647TIP3    H280433   3.803   6.603  13.652 -0.6868 -1.8787 -1.2644
19648TIP3   OH280434   6.173   1.411   4.880 -0.4242 -0.1469 -0.0671
19648TIP3    H180435   6.103   1.424   4.816  0.4998  0.6299 -0.9397
19648TIP3    H280436   6.155   1.475   4.949 -0.8456 -0.2923 -0.0368
19649TIP3   OH280437   1.860   4.483   4.960  0.4727 -0.3452 -0.5311
19649TIP3    H180438   1.833   4.534   5.036 -0.5975 -0.1504 -1.0153
19649TIP3    H280439   1.778   4.454   4.920  0.9629  0.3474 -2.1335
19650TIP3   OH280440   2.205   0.030  10.833  0.3765  0.1284 -0.0028
19650TIP3    H180441   2.164  -0.037  10.779  0.7959  1.5333 -2.1994
19650TIP3    H280442   2.137   0.097  10.845  0.2018 -0.2900  1.4984
19651TIP3   OH280443   5.865   5.953  15.269 -0.0157 -0.0025  0.0041
19651TIP3    H180444   5.958   5.931  15.270 -0.5139 -2.5553  2.2715
19651TIP3    H280445   5.827   5.889  15.208 -0.5030 -0.2737  0.5854
19652TIP3   OH280446   3.190   4.772   5.586  0.8798  0.1563 -0.3602
19652TIP3    H180447   3.210   4.693   5.536  0.5825  0.2855 -0.6865
19652TIP3    H280448   3.196   4.843   5.523  0.4795  0.3179 -0.2238
19653TIP3   OH280449   1.362   2.921  16.438 -0.1755 -0.1906  0.0519
19653TIP3    H180450   1.369   2.928  16.343 -1.1424  1.5242  0.0597
19653TIP3    H280451   1.451   2.938  16.470 -0.2276  1.3047 -0.5003
19654TIP3   OH280452   1.557   2.305  12.458  0.2023  0.0358  0.3372
19654TIP3    H180453   1.593   2.394  12.456  2.2928 -0.7023  1.4905
19654TIP3    H280454   1.598   2.265  12.535  0.7982 -2.5125 -1.1961
19655TIP3   OH280455   0.461   2.546   0.465  0.1781 -0.3944  0.2134
19655TIP3    H180456   0.517   2.615   0.500  1.1282 -0.6695 -0.6954
19655TIP3    H280457   0.502   2.523   0.381 -2.1713  0.5051 -1.2870
19656TIP3   OH280458   1.988   3.141  14.424 -0.3247 -0.0365  0.4016
19656TIP3    H180459   1.895   3.160  14.418 -0.1638  0.3354 -1.3447
19656TIP3    H280460   2.000   3.062  14.371  0.2234 -0.6821  1.4378
19657TIP3   OH280461   1.795   1.494   3.589 -0.3329  0.3964  0.3236
19657TIP3    H180462   1.725   1.484   3.524  0.3944 -0.2588 -0.3698
19657TIP3    H280463   1.871   1.523   3.538  0.3061 -0.3436  0.8419
19658TIP3   OH280464   5.801   1.360   1.599 -0.0556  0.4842  0.2642
19658TIP3    H180465   5.853   1.318   1.668 -0.5761  1.0008  0.9809
19658TIP3    H280466   5.728   1.402   1.645 -0.1341  1.2769 -0.5487
19659TIP3   OH280467   0.984   1.498   4.816  0.2217 -0.2034 -0.3860
19659TIP3    H180468   0.978   1.403   4.813 -0.5966 -0.1491 -0.7150
19659TIP3    H280469   0.922   1.529   4.750  1.6081  0.5365 -1.3795
19660TIP3   OH280470   2.726   5.517  12.915  0.7020 -0.8127  0.4434
19660TIP3    H180471   2.792   5.504  12.847  0.0882 -1.0596 -0.1239
19660TIP3    H280472   2.661   5.575  12.875  0.2670 -1.0620  0.7669
19661TIP3   OH280473   0.068   1.558   2.878 -0.2626 -0.1991 -0.1365
19661TIP3    H180474  -0.006   1.544   2.938  0.5679 -0.9497  0.7488
19661TIP3    H280475   0.112   1.635   2.912 -0.7565  0.3915 -0.8060
19662TIP3   OH280476   2.911   2.914   1.325  0.7194 -0.1153  0.4009
19662TIP3    H180477   2.980   2.848   1.323  0.2609 -0.5865 -0.2699
19662TIP3    H280478   2.946   2.986   1.273  0.8120 -0.2471  0.2806
19663TIP3   OH280479   1.643   3.802   0.307 -0.0227 -0.2848 -0.0540
19663TIP3    H180480   1.558   3.830   0.340  0.1478  0.1535  0.0201
19663TIP3    H280481   1.622   3.741   0.236 -0.3845 -1.2028  0.8182
19664TIP3   OH280482   5.995   6.826  12.598 -0.5264 -0.2056 -0.5134
19664TIP3    H180483   5.947   6.894  12.550 -0.4125 -0.2307 -0.6605
19664TIP3    H280484   5.945   6.815  12.680 -0.1038  0.6219 -0.1308
19665TIP3   OH280485   4.936   4.641  15.651  0.1775  0.0266  0.0100
19665TIP3    H180486   4.843   4.618  15.653  0.4468 -1.1475  0.2958
19665TIP3    H280487   4.968   4.603  15.569  0.7567 -1.1994  0.7668
19666TIP3   OH280488   3.046   2.753  11.235 -0.3953  0.6214 -0.3047
19666TIP3    H180489   3.127   2.761  11.285 -0.9868 -2.2284  1.3183
19666TIP3    H280490   3.061   2.806  11.156  3.2683 -0.2383 -0.3531
19667TIP3   OH280491   1.603   5.948   5.963 -0.2178  0.1046  0.1633
19667TIP3    H180492   1.529   5.955   5.902  2.6000 -0.9012 -3.7591
19667TIP3    H280493   1.616   5.854   5.975  1.1658  0.1965 -0.3588
19668TIP3   OH280494   3.170   2.646   1.982  0.2560 -0.2927 -0.3437
19668TIP3    H180495   3.192   2.692   1.902  1.1012 -2.4195 -1.4280
19668TIP3    H280496   3.080   2.616   1.969  0.4128 -0.6881 -0.5581
19669TIP3   OH280497   1.977   1.302  11.855 -0.0222  0.1758 -0.0563
19669TIP3    H180498   2.023   1.343  11.928  0.4918  2.3371 -1.5040
19669TIP3    H280499   1.964   1.212  11.882  1.5510  0.5175  2.0391
19670TIP3   OH280500   3.426   3.335  16.871  0.2050 -0.4290 -0.2283
19670TIP3    H180501   3.419   3.348  16.777  0.4156  0.9355 -0.0645
19670TIP3    H280502   3.418   3.422  16.909  1.3321 -0.8001  0.9412
19671TIP3   OH280503   0.177   2.599  13.401 -0.1342  0.2358 -0.1885
19671TIP3    H180504   0.246   2.542  13.365 -2.8703 -2.3649 -1.7883
19671TIP3    H280505   0.212   2.687  13.391  3.4719 -0.9435  0.3394
19672TIP3   OH280506   5.544   0.046   0.452 -0.7536 -0.5468  1.1235
19672TIP3    H180507   5.572   0.126   0.495 -0.8113  0.3960 -0.4985
19672TIP3    H280508   5.451   0.060   0.433  0.0118  0.7970 -2.6288
19673TIP3   OH280509   5.646   4.857  13.614 -0.2349  0.0719  0.4066
19673TIP3    H180510   5.725   4.884  13.569 -0.4066 -0.8759 -0.4989
19673TIP3    H280511   5.577   4.914  13.579  0.0468  0.9488  1.2535
19674TIP3   OH280512   2.293   0.383  12.123 -0.0283  0.3509 -0.1717
19674TIP3    H180513   2.295   0.448  12.053 -0.6133  1.4209  0.7758
19674TIP3    H280514   2.230   0.318  12.092  0.1192  0.5260 -0.8706
19675TIP3   OH280515   4.398   3.060   5.344  0.3158  0.4248 -0.7314
19675TIP3    H180516   4.344   3.130   5.382  0.3282 -0.0627  0.2144
19675TIP3    H280517   4.347   2.980   5.359  0.2588  0.2147 -1.8865
19676TIP3   OH280518   0.836   0.880  15.365 -0.5237 -0.4373 -0.1515
19676TIP3    H180519   0.791   0.806  15.325 -0.8169 -1.0201  1.2006
19676TIP3    H280520   0.767   0.930  15.407  0.0738 -2.0282  3.0561
19677TIP3   OH280521   0.763   3.358   4.912 -0.1972  0.0441  0.1391
19677TIP3    H180522   0.831   3.295   4.935 -0.7544 -0.0570  1.6419
19677TIP3    H280523   0.793   3.440   4.951 -1.3048 -0.1898  1.5503
19678TIP3   OH280524   3.740   4.752  12.859 -0.1780  0.3592 -0.2718
19678TIP3    H180525   3.684   4.727  12.785 -0.6476 -0.2713  0.2764
19678TIP3    H280526   3.751   4.671  12.909  1.4061  0.4349 -0.4725
19679TIP3   OH280527   1.406   4.233  16.459  0.0774  0.3055  0.4215
19679TIP3    H180528   1.393   4.221  16.365 -0.0272 -0.2504  0.5061
19679TIP3    H280529   1.322   4.213  16.499  0.2310  0.1324  0.6670
19680TIP3   OH280530   0.258   5.851  13.594 -0.1426 -0.4802 -0.2451
19680TIP3    H180531   0.211   5.781  13.550  0.1910  0.2233 -1.7821
19680TIP3    H280532   0.206   5.930  13.577  0.1401 -0.1394  0.4020
19681TIP3   OH280533   3.234   5.465  14.973 -0.0335  0.3860 -0.3073
19681TIP3    H180534   3.176   5.487  14.900 -0.4933 -1.8005 -0.6587
19681TIP3    H280535   3.196   5.386  15.011  2.3826 -0.8143 -0.2042
19682TIP3   OH280536   4.335   3.700   4.779 -0.2547 -0.4415  0.0009
19682TIP3    H180537   4.307   3.789   4.801 -0.2596 -0.1252 -1.2543
19682TIP3    H280538   4.431   3.706   4.776 -0.2247 -0.6170  0.4320
19683TIP3   OH280539   5.696   3.339   6.264 -0.2535 -0.4156 -0.2372
19683TIP3    H180540   5.778   3.315   6.308  0.2400  0.6329 -0.5660
19683TIP3    H280541   5.636   3.360   6.336  1.0522  2.9768  0.0332
19684TIP3   OH280542   0.474   6.711   5.613 -0.1006 -0.0346 -0.4260
19684TIP3    H180543   0.402   6.668   5.659  0.0349  1.2143  1.0349
19684TIP3    H280544   0.434   6.747   5.533 -1.5177  1.9935  1.1067
19685TIP3   OH280545   2.156   3.332   2.173  1.1835  0.1038 -0.2477
19685TIP3    H180546   2.111   3.252   2.144 -0.7518  1.4980 -1.3266
19685TIP3    H280547   2.112   3.355   2.255  2.9499 -0.8531  1.0244
19686TIP3   OH280548   4.693   2.374   2.747  0.1802  0.8313  0.2245
19686TIP3    H180549   4.648   2.440   2.799  1.3508  2.4494 -0.7088
19686TIP3    H280550   4.769   2.420   2.711  2.3233 -1.6329  1.3393
19687TIP3   OH280551   6.493   2.537  15.057 -0.4003 -0.1191 -0.2066
19687TIP3    H180552   6.399   2.537  15.042 -0.3777  1.6620 -0.5929
19687TIP3    H280553   6.531   2.513  14.972 -0.4641  2.7541 -1.1423
19688TIP3   OH280554   1.455   5.441   2.052  0.6327  0.2049  0.3342
19688TIP3    H180555   1.537   5.490   2.052  0.6192  0.3800 -2.1401
19688TIP3    H280556   1.481   5.350   2.057  1.0931  0.2168 -1.2039
19689TIP3   OH280557   0.845   1.345  12.628  0.1202  0.1375 -1.1959
19689TIP3    H180558   0.770   1.404  12.620 -0.6869 -0.7167 -0.2341
19689TIP3    H280559   0.892   1.377  12.705  0.5302  0.4350 -1.5674
19690TIP3   OH280560   6.388   0.669   0.062  0.8371  0.1235 -0.0209
19690TIP3    H180561   6.386   0.759   0.092  3.1378  0.3416 -0.3208
19690TIP3    H280562   6.478   0.641   0.077  0.2823 -2.0050 -0.3077
19691TIP3   OH280563   2.148   1.441   5.708 -0.0079  0.1005 -0.4266
19691TIP3    H180564   2.149   1.501   5.633  1.3790 -1.2574 -1.5941
19691TIP3    H280565   2.240   1.434   5.734  0.0429 -2.1942 -0.9739
19692TIP3   OH280566   2.219   1.641  14.186  0.4266 -0.0794  0.0697
19692TIP3    H180567   2.239   1.709  14.122 -0.0647 -0.6911 -0.7533
19692TIP3    H280568   2.135   1.605  14.158 -0.6002  0.7002  1.9746
19693TIP3   OH280569   6.178   4.484   4.560 -0.2051 -0.2511  0.2218
19693TIP3    H180570   6.232   4.417   4.518 -1.1457  0.3403 -2.1183
19693TIP3    H280571   6.135   4.439   4.632 -0.9082 -2.2411 -1.3700
19694TIP3   OH280572   6.527   3.667   1.091 -0.4258 -0.2460 -0.3570
19694TIP3    H180573   6.455   3.689   1.032  0.1160 -0.7870 -1.2506
19694TIP3    H280574   6.549   3.749   1.135 -2.3177 -0.2863  0.8028
19695TIP3   OH280575   5.622   2.703  13.811  0.0975  0.2293 -0.0884
19695TIP3    H180576   5.603   2.683  13.719  0.6492 -1.8635  0.1893
19695TIP3    H280577   5.542   2.679  13.857 -0.1747  1.2689 -0.0105
19696TIP3   OH280578   4.904   0.278  12.435  0.7702  0.0900 -0.0232
19696TIP3    H180579   4.968   0.333  12.389  3.2744 -1.9291  0.8702
19696TIP3    H280580   4.949   0.248  12.513 -1.5883 -0.8203  1.0765
19697TIP3   OH280581   4.175   5.462  15.431 -0.0614  0.8941  0.9113
19697TIP3    H180582   4.220   5.395  15.380 -1.0909  1.0400 -0.2463
19697TIP3    H280583   4.134   5.518  15.365 -2.2937  0.5089  1.8856
19698TIP3   OH280584   0.776   0.084   2.826  0.1869 -0.0216 -0.2212
19698TIP3    H180585   0.854   0.029   2.822  2.0744  2.4105  0.6751
19698TIP3    H280586   0.757   0.092   2.919  1.4390  2.6553 -0.1026
19699TIP3   OH280587   2.842   4.678  15.839  0.4738 -0.1905 -0.0037
19699TIP3    H180588   2.766   4.662  15.894 -2.3423  1.5379 -3.0022
19699TIP3    H280589   2.878   4.591  15.821 -2.8626 -1.5028 -1.0200
19700TIP3   OH280590   3.147   3.657   4.773  0.6445  0.0213 -0.0033
19700TIP3    H180591   3.184   3.585   4.721  1.4671  0.9201 -0.7013
19700TIP3    H280592   3.219   3.684   4.830  0.0573 -0.2859  0.9023
19701TIP3   OH280593   1.064   1.206  13.184  0.3416 -0.4298 -0.5142
19701TIP3    H180594   1.070   1.133  13.245  2.0776  1.1779  1.3697
19701TIP3    H280595   0.977   1.244  13.199 -0.1288 -1.4147 -0.7087
19702TIP3   OH280596   4.779   0.678   3.866  0.0504 -0.1045 -0.0010
19702TIP3    H180597   4.726   0.599   3.852  0.5980 -0.4841  0.0131
19702TIP3    H280598   4.869   0.645   3.867  0.1971  0.2566  1.8512
19703TIP3   OH280599   3.072   5.511  15.422 -0.3017 -0.3517 -0.0234
19703TIP3    H180600   3.046   5.474  15.337 -0.6563 -0.5246  0.1546
19703TIP3    H280601   3.000   5.570  15.445 -0.3622 -0.5477  0.3020
19704TIP3   OH280602   2.656   1.994  13.791  0.3280 -0.4552  0.3343
19704TIP3    H180603   2.701   2.072  13.759 -1.5663  0.5172 -0.0888
19704TIP3    H280604   2.571   2.026  13.822 -1.3406 -2.5791 -1.7263
19705TIP3   OH280605   1.888   6.807  11.825  0.3540 -0.8004 -0.1586
19705TIP3    H180606   1.795   6.828  11.826  0.7489  1.1313 -0.0556
19705TIP3    H280607   1.912   6.796  11.917  0.0138 -2.4479 -0.2482
19706TIP3   OH280608   6.636   3.108   4.246  0.5370 -0.2494  0.0978
19706TIP3    H180609   6.641   3.029   4.193 -0.4499  0.0627 -0.4949
19706TIP3    H280610   6.620   3.178   4.183  0.3573  0.2717  0.7132
19707TIP3   OH280611   1.115   5.617   0.796  0.0906 -0.5798 -0.0341
19707TIP3    H180612   1.211   5.616   0.798  0.1227  1.2801  0.8239
19707TIP3    H280613   1.093   5.682   0.729 -0.5381  0.5758  1.2636
19708TIP3   OH280614   0.350   0.457  11.231 -0.2082  0.6337 -0.2342
19708TIP3    H180615   0.404   0.423  11.160  0.4079  1.1736 -0.0354
19708TIP3    H280616   0.404   0.448  11.309 -0.7778  0.2988  0.1338
19709TIP3   OH280617   5.470   2.314   6.172  0.3064 -0.9024  0.3607
19709TIP3    H180618   5.548   2.348   6.215  0.2859  1.3004 -1.1596
19709TIP3    H280619   5.398   2.345   6.228  0.3240  1.2193 -0.6933
19710TIP3   OH280620   6.262   0.635   0.564  0.3593  0.0673  0.2135
19710TIP3    H180621   6.357   0.625   0.569  0.2616 -0.8573  0.5336
19710TIP3    H280622   6.237   0.670   0.649  0.1690 -2.1817  1.1603
19711TIP3   OH280623   0.445   6.490   3.118 -0.2388 -0.5828 -0.3840
19711TIP3    H180624   0.427   6.398   3.099  0.5136 -1.0065  0.8505
19711TIP3    H280625   0.524   6.510   3.067  1.0132 -1.3387  1.1938
19712TIP3   OH280626   1.437   2.526   2.014 -0.2670 -0.1081  0.3477
19712TIP3    H180627   1.496   2.513   1.940  0.1724 -0.0024  0.6752
19712TIP3    H280628   1.360   2.474   1.992 -1.3475  2.1438 -1.5169
19713TIP3   OH280629   2.271   5.705  15.401 -0.2282  0.1965  0.0594
19713TIP3    H180630   2.289   5.621  15.359 -1.6317  0.0220 -0.2278
19713TIP3    H280631   2.234   5.681  15.486  1.0254  0.5513  0.7377
19714TIP3   OH280632   1.334   0.425  15.642 -0.0153  0.1695 -0.0299
19714TIP3    H180633   1.280   0.503  15.648 -0.0697  0.3070 -1.6740
19714TIP3    H280634   1.325   0.382  15.727 -0.6776  1.4824  0.5964
19715TIP3   OH280635   5.797   3.573  15.827 -0.4537 -0.5426 -1.0838
19715TIP3    H180636   5.763   3.662  15.822 -2.0219 -0.7813  2.4461
19715TIP3    H280637   5.785   3.538  15.739  0.6838  2.7764 -2.7578
19716TIP3   OH280638   0.966   1.081   2.971  0.4208 -0.7529  0.0173
19716TIP3    H180639   1.051   1.051   2.938  0.5260 -3.4283  2.3485
19716TIP3    H280640   0.905   1.013   2.943 -0.9377  0.9021 -1.2239
19717TIP3   OH280641   1.967   1.225  16.570 -0.2768 -0.3941  0.0829
19717TIP3    H180642   1.923   1.298  16.614 -0.2396 -0.3986  0.1291
19717TIP3    H280643   2.053   1.222  16.611  0.3818  0.6665 -1.1455
19718TIP3   OH280644   6.013   0.767  16.599  0.0865 -0.1256 -0.0051
19718TIP3    H180645   5.979   0.682  16.626 -1.8114  1.1046  1.7946
19718TIP3    H280646   6.033   0.813  16.681  1.5135  1.0226 -0.9332
19719TIP3   OH280647   5.154   4.021  14.585  0.1650  0.8584  0.1558
19719TIP3    H180648   5.180   4.003  14.675  1.9709  1.7264 -0.1572
19719TIP3    H280649   5.190   3.948  14.535 -2.1440 -0.4594  0.2543
19720TIP3   OH280650   0.341   3.485   1.060  0.8740 -0.1523  0.0517
19720TIP3    H180651   0.345   3.404   1.111  1.4512 -0.8887 -1.1253
19720TIP3    H280652   0.251   3.515   1.069  1.1334  0.1908  2.1498
19721TIP3   OH280653   1.432   4.679   2.115 -0.0827 -0.0795  0.3011
19721TIP3    H180654   1.342   4.691   2.145 -1.5112  0.6832 -3.6348
19721TIP3    H280655   1.463   4.768   2.095  2.1401 -0.1727  2.6711
19722TIP3   OH280656   2.776   6.202   1.218  0.1206 -0.0846 -0.1742
19722TIP3    H180657   2.806   6.285   1.180 -0.4717 -0.2549 -1.0441
19722TIP3    H280658   2.839   6.138   1.186 -1.8362 -0.6914 -3.2090
19723TIP3   OH280659   3.818   2.715   2.458 -0.0044  0.2302  0.4620
19723TIP3    H180660   3.897   2.679   2.498 -0.0846 -0.1065  0.3180
19723TIP3    H280661   3.783   2.775   2.524  1.9999  2.7616 -0.5812
19724TIP3   OH280662   5.115   0.725   3.852  0.1512 -0.0863  0.6908
19724TIP3    H180663   5.089   0.652   3.908  0.5623  0.7151  1.9868
19724TIP3    H280664   5.131   0.797   3.913 -2.3804  1.7761 -0.6904
19725TIP3   OH280665   3.725   5.672  11.338  0.1373 -0.9819  0.3243
19725TIP3    H180666   3.791   5.664  11.269 -1.2114 -2.2745 -0.8885
19725TIP3    H280667   3.740   5.596  11.394  0.3820 -0.6513  0.7169
19726TIP3   OH280668   1.821   2.457  10.781  0.3953  0.1185 -0.3587
19726TIP3    H180669   1.783   2.543  10.801  0.5168  0.3822 -1.2398
19726TIP3    H280670   1.748   2.408  10.743  0.5716  0.1405 -0.7184
19727TIP3   OH280671   1.961   3.523   3.737  0.2626 -0.3447  0.0505
19727TIP3    H180672   1.963   3.428   3.728  1.2107 -0.4666  1.2476
19727TIP3    H280673   1.878   3.549   3.697  0.8805 -1.4485 -2.0714
19728TIP3   OH280674   0.037   0.087  10.296 -0.2160 -0.2688  0.3914
19728TIP3    H180675  -0.026   0.020  10.322 -1.4103  0.8897  0.6362
19728TIP3    H280676   0.005   0.167  10.339  0.6298  0.6424 -0.6167
19729TIP3   OH280677   2.937   1.239  13.416 -0.0611 -0.2902 -0.4582
19729TIP3    H180678   2.966   1.236  13.507 -1.3368 -1.0241 -0.0590
19729TIP3    H280679   3.000   1.183  13.369 -0.3051 -1.1726  0.2433
19730TIP3   OH280680   6.345   4.702   4.657 -0.2221 -0.1592  0.3577
19730TIP3    H180681   6.434   4.669   4.644 -0.0072  0.5977 -0.1584
19730TIP3    H280682   6.289   4.642   4.608  0.0386 -0.4071  0.3628
19731TIP3   OH280683   0.335   1.417  11.280 -0.1212 -0.0275 -0.1421
19731TIP3    H180684   0.283   1.436  11.358 -1.0743 -1.2540 -0.4468
19731TIP3    H280685   0.349   1.322  11.283 -1.2093 -0.3048 -2.0664
19732TIP3   OH280686   2.634   6.609  11.000 -0.2146 -0.5709 -0.4490
19732TIP3    H180687   2.717   6.566  10.983  0.3209 -0.1639  0.9716
19732TIP3    H280688   2.593   6.554  11.068 -0.0899  0.4388  0.4629
19733TIP3   OH280689   2.396   6.691  14.010 -0.0569  0.1222 -0.0987
19733TIP3    H180690   2.464   6.683  14.077  0.4932  0.4571 -0.6078
19733TIP3    H280691   2.344   6.611  14.019 -0.6695  0.6496  1.4602
19734TIP3   OH280692   1.884   3.162  16.447  0.5902  0.6559 -0.0897
19734TIP3    H180693   1.811   3.102  16.430  0.6046  0.6278 -0.0542
19734TIP3    H280694   1.915   3.137  16.534  0.7047  0.6026 -0.1453
19735TIP3   OH280695   6.867   6.051  11.965 -0.4364 -0.2281 -0.4213
19735TIP3    H180696   6.851   5.982  11.902 -0.9654 -0.8853  0.4054
19735TIP3    H280697   6.826   6.129  11.927 -1.7402 -0.8754 -0.3709
19736TIP3   OH280698   3.170   2.647   2.633 -0.0466  0.2831  0.0201
19736TIP3    H180699   3.183   2.602   2.717 -0.2442 -0.4665 -0.3384
19736TIP3    H280700   3.257   2.676   2.607  0.1443 -0.2199  0.0834
19737TIP3   OH280701   4.113   6.041   1.742 -0.7184  0.3675  0.1990
19737TIP3    H180702   4.081   6.063   1.829  0.2203  0.4618  0.5291
19737TIP3    H280703   4.092   5.948   1.732 -0.0851  0.1391  0.8744
19738TIP3   OH280704   4.679   5.992   5.238 -0.2796  0.2871 -0.2457
19738TIP3    H180705   4.651   6.038   5.159  0.6218 -0.0206 -0.7534
19738TIP3    H280706   4.729   6.057   5.288 -1.3369  0.6549  0.3683
19739TIP3   OH280707   0.971   2.615  12.239 -0.9110 -0.0125 -0.0638
19739TIP3    H180708   0.928   2.700  12.246 -0.9262 -0.0860  0.9656
19739TIP3    H280709   0.944   2.569  12.319  0.9512 -0.1203  0.5409
19740TIP3   OH280710   6.584   5.319   0.474 -0.0273  0.2608 -0.0245
19740TIP3    H180711   6.548   5.236   0.444 -0.8482 -0.3109  2.3144
19740TIP3    H280712   6.637   5.296   0.550 -0.0520  1.8496  0.5244
19741TIP3   OH280713   5.258   1.285   6.033  0.4056 -0.3067  0.6612
19741TIP3    H180714   5.230   1.215   5.974  1.6252 -0.1295 -0.1670
19741TIP3    H280715   5.177   1.318   6.072 -0.4397 -0.4160 -0.9183
19742TIP3   OH280716   2.031   2.704   4.248 -0.2007 -0.4421 -0.4490
19742TIP3    H180717   2.054   2.762   4.321 -0.1714 -2.1589  0.9677
19742TIP3    H280718   1.968   2.642   4.285  0.4158 -1.8458 -1.6441
19743TIP3   OH280719   0.506   1.146  12.334  0.0284  0.0695 -0.6002
19743TIP3    H180720   0.427   1.137  12.387 -0.9906 -0.8758 -2.2070
19743TIP3    H280721   0.513   1.064  12.285  1.6681  0.3828 -0.9667
19744TIP3   OH280722   2.319   6.201   2.952 -0.1025  0.7827 -0.2949
19744TIP3    H180723   2.234   6.177   2.916 -0.3669 -0.7760  1.1878
19744TIP3    H280724   2.299   6.239   3.038  0.5714  3.1446 -1.0900
19745TIP3   OH280725   4.965   6.433  13.209  0.1492  0.9203  0.1049
19745TIP3    H180726   4.980   6.498  13.278 -2.1827 -0.0599  1.6758
19745TIP3    H280727   5.043   6.378  13.210  0.0923  0.7989  2.1951
19746TIP3   OH280728   5.840   1.828   4.625 -0.2507 -0.0647 -0.3231
19746TIP3    H180729   5.912   1.856   4.682  0.2947  0.0657 -1.0621
19746TIP3    H280730   5.791   1.909   4.608 -1.4715 -0.3877  1.3707
19747TIP3   OH280731   4.340   0.342   5.743  0.1717 -0.5933  0.1791
19747TIP3    H180732   4.357   0.341   5.837 -0.3441  1.0485  0.3255
19747TIP3    H280733   4.253   0.303   5.734 -0.9517  1.5893  0.7286
19748TIP3   OH280734   3.535   3.419   5.154  0.5781 -0.3172 -0.1569
19748TIP3    H180735   3.488   3.381   5.079 -0.1795  0.3673 -0.0440
19748TIP3    H280736   3.594   3.350   5.183 -1.1287 -1.6167  0.3811
19749TIP3   OH280737   5.018   6.360  14.005  0.3364 -0.1558  0.1636
19749TIP3    H180738   5.014   6.265  14.006 -0.5979 -0.1270  0.8484
19749TIP3    H280739   4.967   6.387  14.082  0.2575  0.8969 -0.2374
19750TIP3   OH280740   6.507   3.860  16.004 -0.8451 -0.3152  0.0348
19750TIP3    H180741   6.592   3.890  15.972  0.4058  0.7467  3.8074
19750TIP3    H280742   6.503   3.768  15.978  2.8974 -1.2846  2.0799
19751TIP3   OH280743   3.606   2.131   3.938 -0.1633  0.2838  0.1126
19751TIP3    H180744   3.594   2.166   4.026  1.2379 -0.5743  0.6794
19751TIP3    H280745   3.685   2.076   3.944 -1.6443 -2.1554 -0.9489
19752TIP3   OH280746   1.361   1.618   1.196  0.2439  0.0244 -0.5544
19752TIP3    H180747   1.327   1.629   1.107 -1.3494 -0.8876 -0.0890
19752TIP3    H280748   1.405   1.533   1.194 -1.5118 -0.9491 -0.0096
19753TIP3   OH280749   6.289   3.561  11.430  0.2899 -0.3860 -0.0221
19753TIP3    H180750   6.233   3.621  11.477 -0.8173 -1.6738  0.3635
19753TIP3    H280751   6.229   3.496  11.393  1.3016 -0.4669 -1.6408
19754TIP3   OH280752   2.938   2.916   4.165  0.2059  0.3903 -0.3173
19754TIP3    H180753   3.001   2.858   4.208  1.1551  2.6727  1.6501
19754TIP3    H280754   2.986   2.950   4.089  0.1213 -0.3964 -0.7263
19755TIP3   OH280755   0.912   4.546  11.334 -0.8718  0.1024  0.0997
19755TIP3    H180756   0.852   4.547  11.259  0.2767 -0.1449 -0.8411
19755TIP3    H280757   0.978   4.481  11.311 -0.4820  0.0406  1.3256
19756TIP3   OH280758   2.374   5.695   3.868  0.0768  0.0133  0.2638
19756TIP3    H180759   2.325   5.749   3.806  0.3974  1.0243  0.8701
19756TIP3    H280760   2.331   5.610   3.864 -0.0734  0.1215 -1.1469
19757TIP3   OH280761   5.971   0.718   0.216 -0.4249 -0.0566  0.4838
19757TIP3    H180762   5.978   0.802   0.172 -1.5663 -0.7700 -1.1604
19757TIP3    H280763   6.046   0.668   0.183  0.1309  0.2223  1.2954
19758TIP3   OH280764   4.480   0.441   1.990 -0.9111 -0.3107  0.4133
19758TIP3    H180765   4.392   0.468   1.964 -1.5614 -1.3591  1.3931
19758TIP3    H280766   4.485   0.348   1.966 -0.4551 -0.5208  1.2436
19759TIP3   OH280767   1.287   3.681   0.418 -0.2885  0.1273  0.4167
19759TIP3    H180768   1.341   3.609   0.449  2.3648  0.7245 -2.3348
19759TIP3    H280769   1.243   3.646   0.341  1.4418  1.4278 -1.2713
19760TIP3   OH280770   0.539   1.694  10.929  0.0886  0.4274  0.0339
19760TIP3    H180771   0.614   1.723  10.878 -0.2133  2.0025  0.4228
19760TIP3    H280772   0.465   1.702  10.869 -0.3372  2.7143  0.7682
19761TIP3   OH280773   3.665   1.461   2.997 -0.0219  0.3608  0.2961
19761TIP3    H180774   3.689   1.418   3.079  0.9007  1.1706  0.4709
19761TIP3    H280775   3.740   1.517   2.977  0.8789 -1.5646 -2.3512
19762TIP3   OH280776   5.607   6.839  12.594 -0.6056 -0.2366  0.0721
19762TIP3    H180777   5.645   6.862  12.509 -0.6095  0.5789  0.2846
19762TIP3    H280778   5.512   6.851  12.582 -0.4922  1.3761  0.6243
19763TIP3   OH280779   2.394   6.523   2.480  0.3345  0.6523 -0.1974
19763TIP3    H180780   2.402   6.508   2.386 -2.6322 -0.4530 -0.3732
19763TIP3    H280781   2.399   6.436   2.520  1.6599  1.1159  0.7246
19764TIP3   OH280782   5.487   4.210   4.204 -0.0633  0.1030  0.3423
19764TIP3    H180783   5.528   4.134   4.163  0.4480 -0.1316  1.2718
19764TIP3    H280784   5.459   4.265   4.130  1.1166 -0.1478 -0.3177
19765TIP3   OH280785   5.653   1.895   2.892 -0.1539  0.1668 -0.0484
19765TIP3    H180786   5.705   1.815   2.881 -1.5222 -0.6867 -0.5354
19765TIP3    H280787   5.602   1.902   2.811 -0.2566  1.3853  0.1109
19766TIP3   OH280788   4.473   4.590   4.028  0.3453  0.4923  0.2836
19766TIP3    H180789   4.565   4.564   4.019  0.8328  1.6286  1.6681
19766TIP3    H280790   4.460   4.599   4.122 -1.6269 -1.0883  0.2244
19767TIP3   OH280791   2.094   4.590   5.273  0.1180  0.1542 -0.4734
19767TIP3    H180792   2.012   4.635   5.251  0.0219 -0.2575 -0.9812
19767TIP3    H280793   2.101   4.597   5.368 -0.5077  0.1937 -0.4291
19768TIP3   OH280794   5.278   0.470   5.631 -0.0767 -0.2083 -0.0298
19768TIP3    H180795   5.221   0.450   5.705  1.2591 -0.4280  0.9741
19768TIP3    H280796   5.253   0.558   5.604  0.6138  0.6139  1.8718
19769TIP3   OH280797   6.829   6.353  13.688  0.3521  0.1162  0.0345
19769TIP3    H180798   6.798   6.428  13.738 -2.4496 -0.8395 -0.0717
19769TIP3    H280799   6.829   6.280  13.750  2.8045  0.0672  0.0827
19770TIP3   OH280800   3.293   2.462  10.824 -0.2818  0.2719 -0.6307
19770TIP3    H180801   3.250   2.383  10.790 -1.8766  2.0499 -3.0320
19770TIP3    H280802   3.371   2.472  10.769  0.0564  0.2979 -0.1624
19771TIP3   OH280803   4.491   4.157  14.043 -0.1038 -0.2900 -0.2323
19771TIP3    H180804   4.454   4.236  14.083  0.8305  0.1140 -0.1514
19771TIP3    H280805   4.553   4.124  14.108  1.7216  0.5858 -1.4318
19772TIP3   OH280806   3.698   0.099   2.718 -0.4690 -0.0552  0.2094
19772TIP3    H180807   3.691   0.185   2.678  0.3076 -0.3833 -0.6536
19772TIP3    H280808   3.612   0.059   2.705 -1.3892  1.1568  2.0397
19773TIP3   OH280809   0.661   1.120   3.722 -0.2985  0.4645  0.1500
19773TIP3    H180810   0.714   1.150   3.648 -0.5241 -0.4721 -0.4196
19773TIP3    H280811   0.720   1.062   3.772  0.8484  3.3892  2.4763
19774TIP3   OH280812   1.686   6.674  13.840  0.1984 -0.1407  0.6402
19774TIP3    H180813   1.747   6.745  13.860 -0.7707  0.7324  0.5571
19774TIP3    H280814   1.693   6.662  13.745 -1.1896  1.3191  0.3264
19775TIP3   OH280815   3.337   0.360   4.954  0.5123  0.2268 -0.3463
19775TIP3    H180816   3.255   0.327   4.919  0.2276 -0.1036  0.5961
19775TIP3    H280817   3.339   0.452   4.928 -1.1819  0.8165  1.3974
19776TIP3   OH280818   1.077   5.918  16.592 -0.1508 -0.2379 -0.0313
19776TIP3    H180819   1.169   5.896  16.604 -0.1814 -0.0344  0.6284
19776TIP3    H280820   1.045   5.934  16.681 -1.2178 -1.8850 -0.0818
19777TIP3   OH280821   1.432   1.936   0.103  0.4427  0.2061  0.9850
19777TIP3    H180822   1.424   1.841   0.100 -0.1958  0.1820  2.4240
19777TIP3    H280823   1.356   1.968   0.056  1.6857  0.0616 -1.2761
19778TIP3   OH280824   4.162   3.695  14.558  0.0435  0.0904  0.2349
19778TIP3    H180825   4.107   3.661  14.488 -0.1252  0.4691  0.1818
19778TIP3    H280826   4.170   3.623  14.620  0.0719 -0.1983 -0.1020
19779TIP3   OH280827   2.319   0.474   3.251 -0.0463 -0.2927 -0.5374
19779TIP3    H180828   2.356   0.410   3.312 -1.3363 -0.5890 -0.0155
19779TIP3    H280829   2.335   0.438   3.164  0.9818 -0.3338 -0.3414
19780TIP3   OH280830   0.487   1.102  11.071 -0.1445  0.0731  0.5027
19780TIP3    H180831   0.528   1.027  11.028 -0.5938 -0.2087  0.5612
19780TIP3    H280832   0.395   1.096  11.048 -0.0559  1.0977 -0.1987
19781TIP3   OH280833   3.792   2.011   4.142 -0.4275  0.8182 -0.0964
19781TIP3    H180834   3.835   2.012   4.056 -0.9627 -1.1578 -0.4130
19781TIP3    H280835   3.862   1.987   4.203 -0.3751  0.8089 -0.1596
19782TIP3   OH280836   1.130   3.666  15.654  0.3251 -0.6540  0.1771
19782TIP3    H180837   1.222   3.656  15.677  0.3200 -2.3161 -0.4002
19782TIP3    H280838   1.099   3.577  15.637 -1.5971 -0.2201  1.0859
19783TIP3   OH280839   0.781   1.368   0.546  0.6070  0.8051  0.3656
19783TIP3    H180840   0.802   1.342   0.636 -0.3214  0.9667  0.6413
19783TIP3    H280841   0.791   1.287   0.496  1.7883  0.8637  0.4860
19784TIP3   OH280842   3.890   2.891  11.085 -0.5606  0.2542 -0.1604
19784TIP3    H180843   3.953   2.963  11.072 -0.3009 -0.4177 -3.4204
19784TIP3    H280844   3.814   2.933  11.126  0.4909  1.8901  0.2087
19785TIP3   OH280845   6.846   4.481  13.026  0.2885 -0.4163  0.0115
19785TIP3    H180846   6.931   4.437  13.032  0.2622 -0.5579 -0.6531
19785TIP3    H280847   6.809   4.451  12.943 -0.2672 -0.0928  0.1401
19786TIP3   OH280848   6.561   6.151  12.213  0.0174 -0.3384  0.6016
19786TIP3    H180849   6.493   6.184  12.271  0.1166  1.7475 -0.3999
19786TIP3    H280850   6.629   6.218  12.215  0.5870 -0.8295 -0.9182
19787TIP3   OH280851   3.066   3.422   2.710 -0.1052  0.4358  0.3293
19787TIP3    H180852   3.131   3.390   2.772 -2.2272 -1.7978  1.5624
19787TIP3    H280853   3.101   3.399   2.624  0.3444 -1.6092  1.0116
19788TIP3   OH280854   5.502   0.728   3.945 -0.2793 -0.1809  0.3717
19788TIP3    H180855   5.558   0.692   4.014 -0.1376  1.0986  0.9433
19788TIP3    H280856   5.427   0.765   3.992  0.2919  1.5844 -0.0488
19789TIP3   OH280857   2.645   5.202   2.352 -0.2542 -0.2222 -0.5283
19789TIP3    H180858   2.640   5.287   2.396 -0.4932 -0.2630 -0.4771
19789TIP3    H280859   2.709   5.215   2.282 -0.1920 -0.0375 -0.4365
19790TIP3   OH280860   0.890   5.375  13.369  0.1370 -0.5696  0.6321
19790TIP3    H180861   0.946   5.450  13.347 -0.8558 -0.1065 -0.4201
19790TIP3    H280862   0.951   5.301  13.375  1.0505  0.1855  1.0382
19791TIP3   OH280863   0.712   4.641  10.266  0.5766 -0.4212 -0.0357
19791TIP3    H180864   0.710   4.692  10.347  0.1843 -0.6037  0.0709
19791TIP3    H280865   0.747   4.702  10.200  1.9766 -0.6203  0.5073
19792TIP3   OH280866   4.275   2.721   3.101  0.3410 -0.6872  0.1795
19792TIP3    H180867   4.282   2.731   3.196  1.8968  0.9628 -0.0654
19792TIP3    H280868   4.355   2.759   3.066 -0.3746 -0.8872 -1.8351
19793TIP3   OH280869   4.899   5.106  15.028  0.6406 -0.6668 -0.2470
19793TIP3    H180870   4.969   5.171  15.021  0.5981 -0.4027  1.5136
19793TIP3    H280871   4.927   5.046  15.096  0.2866 -2.0614 -1.2759
19794TIP3   OH280872   3.730   2.194  12.434 -0.1153  0.4613  0.5477
19794TIP3    H180873   3.819   2.191  12.398 -0.3796  0.7543 -0.1309
19794TIP3    H280874   3.732   2.267  12.496 -0.1159  1.0125 -0.0958
19795TIP3   OH280875   3.872   5.941   0.749  0.1592  0.2991 -0.5770
19795TIP3    H180876   3.962   5.907   0.753 -0.7337 -2.2581  0.3948
19795TIP3    H280877   3.846   5.948   0.841 -1.1143 -0.5560 -0.8439
19796TIP3   OH280878   3.909   1.315   3.626  0.0507 -0.2571 -0.0084
19796TIP3    H180879   3.997   1.279   3.620 -0.1429 -0.8707  0.7685
19796TIP3    H280880   3.911   1.392   3.568  1.8144  1.1752  1.8100
19797TIP3   OH280881   4.670   2.858   3.825  0.1385 -0.2191 -0.2900
19797TIP3    H180882   4.686   2.805   3.904  0.9692  0.9974  0.3973
19797TIP3    H280883   4.704   2.804   3.754 -0.8885 -1.4658  0.1215
19798TIP3   OH280884   6.578   4.083  16.950 -0.2645 -0.2153  0.0163
19798TIP3    H180885   6.659   4.124  16.982  0.3362  0.2199 -1.9275
19798TIP3    H280886   6.608   4.003  16.907 -0.6916  0.5519 -1.7957
19799TIP3   OH280887   4.682   5.325  16.782  0.1929 -0.3696  0.8118
19799TIP3    H180888   4.635   5.385  16.724  2.0458 -0.5529 -1.0095
19799TIP3    H280889   4.680   5.368  16.868 -2.1495  0.1917  0.5542
19800TIP3   OH280890   5.660   6.030   2.997  0.1301  0.4811  0.0537
19800TIP3    H180891   5.672   6.032   3.092 -0.9098 -1.4143  0.2648
19800TIP3    H280892   5.566   6.039   2.985 -0.1211 -2.2187 -0.5910
19801TIP3   OH280893   2.217   4.704  14.607  0.0787 -0.0214 -0.2275
19801TIP3    H180894   2.232   4.772  14.674  1.2206 -0.0330 -0.4522
19801TIP3    H280895   2.271   4.631  14.635 -2.6371 -1.6944  1.1131
19802TIP3   OH280896   5.835   0.150   2.590 -0.8144 -0.1825 -0.5642
19802TIP3    H180897   5.744   0.122   2.596 -0.9359  0.5773  2.5099
19802TIP3    H280898   5.831   0.246   2.590 -0.0368 -0.1437 -0.2665
19803TIP3   OH280899   5.304   3.330   5.852  0.0592 -0.0801 -0.3512
19803TIP3    H180900   5.267   3.283   5.777 -0.9080 -0.2634  0.2153
19803TIP3    H280901   5.285   3.273   5.927 -1.6847  1.4360  0.4494
19804TIP3   OH280902   5.426   5.978  13.997  0.7819  0.5781  0.0241
19804TIP3    H180903   5.394   6.048  13.941 -0.7075  0.7567  1.0503
19804TIP3    H280904   5.420   6.013  14.086 -2.6739 -1.6634  0.8927
19805TIP3   OH280905   3.943   1.836   1.654 -0.0178 -0.6913 -0.4286
19805TIP3    H180906   4.015   1.894   1.632 -1.0819  2.2819  2.9081
19805TIP3    H280907   3.971   1.792   1.734 -1.4035 -0.2878  0.3218
19806TIP3   OH280908   0.602   4.228  16.154 -0.2006  0.1506  0.5411
19806TIP3    H180909   0.558   4.151  16.119 -0.1455  0.1465  0.4796
19806TIP3    H280910   0.549   4.255  16.229  1.6477 -1.9865  2.7620
19807TIP3   OH280911   0.424   4.315  11.117  0.4035  0.2438 -0.5931
19807TIP3    H180912   0.489   4.331  11.186  0.9285  1.8161 -1.3941
19807TIP3    H280913   0.361   4.254  11.156  0.7634  0.9749  1.2214
19808TIP3   OH280914   2.874   2.086   3.397  0.3941 -0.1740  0.1574
19808TIP3    H180915   2.928   2.154   3.436  0.1463  0.4407 -0.5485
19808TIP3    H280916   2.807   2.133   3.347  0.1769 -0.9303 -0.2922
19809TIP3   OH280917   1.938   6.861  13.437  0.4881  0.3347  0.3088
19809TIP3    H180918   1.958   6.778  13.392  1.8549  1.4326 -1.2111
19809TIP3    H280919   2.003   6.867  13.507  1.2587  0.7384 -0.4283
19810TIP3   OH280920   5.990   6.709  15.652  0.6073  0.2312  0.5807
19810TIP3    H180921   5.898   6.714  15.675  0.4592 -0.7654  0.2418
19810TIP3    H280922   5.996   6.754  15.568  0.4119  0.2356  0.5690
19811TIP3   OH280923   5.319   0.165  12.784  0.5365  0.2535  0.0127
19811TIP3    H180924   5.372   0.140  12.708  1.1478  2.3272 -0.3123
19811TIP3    H280925   5.359   0.245  12.816 -0.9175  0.5127  1.3198
19812TIP3   OH280926   2.460   0.132  11.977  0.2754  0.2421  0.4938
19812TIP3    H180927   2.491   0.089  11.897  1.0000  1.1581  0.2568
19812TIP3    H280928   2.396   0.196  11.947  0.2902  0.3483  0.6851
19813TIP3   OH280929   1.138   2.193  12.565  0.0920  0.4476  0.2758
19813TIP3    H180930   1.107   2.218  12.478  0.3441  0.4303  0.1798
19813TIP3    H280931   1.060   2.199  12.621 -0.0435  0.5773  0.0747
19814TIP3   OH280932   2.981   2.914  15.964 -0.1262 -0.3575  0.0070
19814TIP3    H180933   2.899   2.863  15.970  0.1708 -0.6429  3.1544
19814TIP3    H280934   3.047   2.856  16.001  0.9316  0.9843  0.2606
19815TIP3   OH280935   1.511   2.289  13.335 -0.6316  0.1322  0.3670
19815TIP3    H180936   1.511   2.205  13.288 -1.3869 -0.2982  1.1101
19815TIP3    H280937   1.525   2.265  13.427 -1.9707  0.7011  0.7481
19816TIP3   OH280938   6.693   0.753   3.862  0.1801  0.3055  0.2238
19816TIP3    H180939   6.641   0.672   3.859 -0.7694  0.8046  1.9096
19816TIP3    H280940   6.696   0.782   3.771 -2.8424  0.4085  0.0468
19817TIP3   OH280941   6.598   3.180   1.636  0.8997  0.4993  0.1882
19817TIP3    H180942   6.643   3.178   1.721  0.7967  0.5395  0.2437
19817TIP3    H280943   6.533   3.110   1.642 -0.1332  1.4695  0.7106
19818TIP3   OH280944   1.662   4.183  13.922  0.1164  0.6050 -0.3116
19818TIP3    H180945   1.733   4.120  13.907 -0.3169  0.2401 -0.9051
19818TIP3    H280946   1.658   4.193  14.017  0.4617  0.0355 -0.2317
19819TIP3   OH280947   3.963   0.540  14.273  0.2822 -0.3100  0.5813
19819TIP3    H180948   3.895   0.512  14.212  1.6295  0.0346 -1.1684
19819TIP3    H280949   3.940   0.630  14.294 -0.7962 -0.7703  1.5207
19820TIP3   OH280950   3.008   6.756  11.679 -0.3109 -0.0280 -0.3356
19820TIP3    H180951   2.983   6.809  11.754  2.4385  0.0668  0.6129
19820TIP3    H280952   2.990   6.666  11.706 -2.5033  0.1647 -0.9471
19821TIP3   OH280953   1.593   0.335  13.048  0.2022  0.0453  0.7745
19821TIP3    H180954   1.513   0.298  13.085  0.5066 -0.8654  0.5526
19821TIP3    H280955   1.646   0.359  13.124 -1.8607  4.5587  1.1390
19822TIP3   OH280956   1.378   2.109  15.232  0.4939  0.0930  0.6734
19822TIP3    H180957   1.343   2.022  15.253  0.0344  0.2252  0.4784
19822TIP3    H280958   1.330   2.136  15.154  2.2534 -0.4254 -0.6417
19823TIP3   OH280959   1.662   6.380  12.545  0.1868 -0.2580 -0.6255
19823TIP3    H180960   1.573   6.345  12.538 -0.2355  0.7875 -0.7359
19823TIP3    H280961   1.718   6.303  12.559 -1.0290 -0.7249  2.2334
19824TIP3   OH280962   4.489   4.485  15.528  0.0460  0.3854 -0.0441
19824TIP3    H180963   4.568   4.482  15.473 -0.0821 -0.2794 -0.1945
19824TIP3    H280964   4.523   4.499  15.616  0.5952 -2.8977  0.3908
19825TIP3   OH280965   6.846   3.107   0.609 -0.3682 -0.0114  0.0224
19825TIP3    H180966   6.915   3.148   0.661 -2.0300  0.4803  1.9886
19825TIP3    H280967   6.830   3.024   0.652  1.0587 -1.6048 -2.2922
19826TIP3   OH280968   4.027   4.183   6.175  0.1462  0.2778  0.3915
19826TIP3    H180969   4.116   4.148   6.171  0.4197  1.0104 -0.4838
19826TIP3    H280970   4.000   4.173   6.266  0.8687 -0.5774  0.5172
19827TIP3   OH280971   2.739   5.355  15.294  0.3492 -0.1409  0.6132
19827TIP3    H180972   2.690   5.416  15.239 -0.7301  0.7436  2.4820
19827TIP3    H280973   2.703   5.269  15.273 -1.0256  0.3404  0.9156
19828TIP3   OH280974   2.184   5.381   6.638  0.0109 -0.3139 -0.4004
19828TIP3    H180975   2.231   5.306   6.673  1.1441  0.3251 -0.5158
19828TIP3    H280976   2.093   5.352   6.632  0.7046 -2.3650 -2.3203
19829TIP3   OH280977   5.025   6.183   0.093  0.1322  0.5009  0.3260
19829TIP3    H180978   4.992   6.203   0.005  0.2462 -3.1802 -0.7378
19829TIP3    H280979   4.980   6.102   0.117  1.6160  0.3159  2.8203
19830TIP3   OH280980   5.774   5.608   1.318 -0.9084 -0.1876  0.4873
19830TIP3    H180981   5.712   5.585   1.249  0.7178 -0.0725 -1.0830
19830TIP3    H280982   5.797   5.525   1.359 -0.5028 -0.4991 -0.3544
19831TIP3   OH280983   1.426   1.816  12.092 -0.8314  0.2237 -0.5754
19831TIP3    H180984   1.375   1.798  12.013 -0.4722  0.8201 -0.9470
19831TIP3    H280985   1.390   1.756  12.157  1.7630 -3.6453 -2.3003
19832TIP3   OH280986   1.772   6.636   0.827 -0.9519 -0.1456 -0.0755
19832TIP3    H180987   1.820   6.697   0.772  0.3227 -2.5219 -1.7608
19832TIP3    H280988   1.722   6.582   0.766 -2.7102 -0.3081  1.4035
19833TIP3   OH280989   5.197   4.257   3.994 -0.9071 -0.5210 -0.7263
19833TIP3    H180990   5.167   4.274   3.905  1.3244 -3.0911 -2.0995
19833TIP3    H280991   5.251   4.333   4.016 -1.2352 -0.0074 -1.6741
19834TIP3   OH280992   0.562   3.550  12.979 -0.3333 -0.3880  0.1110
19834TIP3    H180993   0.649   3.522  12.951 -0.3089 -0.0931 -0.1082
19834TIP3    H280994   0.520   3.583  12.900 -0.0278  1.0638  0.5180
19835TIP3   OH280995   5.614   2.947   5.696 -0.0199  0.2053 -0.1042
19835TIP3    H180996   5.554   2.985   5.760  1.4894  1.8532  0.4241
19835TIP3    H280997   5.575   2.966   5.611 -0.9479 -0.0689  0.2426
19836TIP3   OH280998   6.579   4.713  14.696  0.4557 -0.0321 -0.5485
19836TIP3    H180999   6.602   4.782  14.759  0.9208 -0.6920  0.0228
19836TIP3    H281000   6.623   4.740  14.615  0.7046  0.3010 -0.3077
19837TIP3   OH281001   6.832   1.207  16.947 -0.3204  0.2678  0.1262
19837TIP3    H181002   6.737   1.194  16.947 -0.1981 -0.8631 -1.3151
19837TIP3    H281003   6.866   1.140  16.888  1.2506  1.5394 -0.5109
19838TIP3   OH281004   5.639   1.656   4.698 -0.4217 -0.1644 -0.1981
19838TIP3    H181005   5.680   1.737   4.668  0.4019 -0.9044 -1.1002
19838TIP3    H281006   5.683   1.635   4.780 -0.3438  0.0621 -0.1809
19839TIP3   OH281007   2.686   4.620   2.580 -0.1807 -0.4422 -0.3039
19839TIP3    H181008   2.657   4.623   2.489  1.6322 -0.1737 -0.8953
19839TIP3    H281009   2.757   4.556   2.581  1.2268  1.0783  0.4795
19840TIP3   OH281010   4.645   0.318   5.400  0.0576  0.1616  0.1318
19840TIP3    H181011   4.689   0.256   5.457  1.2763 -1.1723 -2.0861
19840TIP3    H281012   4.554   0.289   5.399  0.2255 -0.4091  0.6166
19841TIP3   OH281013   0.331   0.080   0.659 -0.0472 -0.0573 -0.8517
19841TIP3    H181014   0.373   0.102   0.743  0.5014  0.8463 -1.3403
19841TIP3    H281015   0.256   0.139   0.654  0.5130  0.6210 -1.4524
19842TIP3   OH281016   6.626   3.711   0.627  0.9332 -0.0846 -0.0750
19842TIP3    H181017   6.704   3.708   0.571  1.3071 -0.2610  0.4475
19842TIP3    H281018   6.640   3.786   0.684  1.0316 -0.5001  0.4581
19843TIP3   OH281019   6.041   0.994   6.462 -0.2569 -0.1533 -0.0015
19843TIP3    H181020   6.079   1.066   6.511  0.0107 -0.0329 -0.3789
19843TIP3    H281021   5.990   1.036   6.393 -0.9371 -0.3136  0.3893
19844TIP3   OH281022   5.304   6.270   4.393 -0.7301 -0.0669 -0.3135
19844TIP3    H181023   5.271   6.326   4.324  0.1033  0.8385  0.0056
19844TIP3    H281024   5.334   6.191   4.347 -0.1934  0.5183 -0.9861
19845TIP3   OH281025   0.933   1.854  16.204 -0.5057  0.1222  0.1067
19845TIP3    H181026   0.881   1.807  16.139 -0.3241 -2.0347  1.4066
19845TIP3    H281027   1.010   1.885  16.157 -0.7721 -0.6852 -0.8789
19846TIP3   OH281028   2.138   2.944  12.965  0.4704 -0.8374  0.1962
19846TIP3    H181029   2.140   2.966  12.872  1.4648 -1.6454  0.0035
19846TIP3    H281030   2.211   2.883  12.977  0.8601 -0.1323  1.6759
19847TIP3   OH281031   6.692   1.367   1.586  0.1816 -0.0554  0.4301
19847TIP3    H181032   6.788   1.372   1.582  0.1564 -0.0576 -1.8767
19847TIP3    H281033   6.673   1.275   1.605  0.6721 -0.4798 -1.0032
19848TIP3   OH281034   4.480   4.371  12.082  0.4149 -0.5394 -0.2722
19848TIP3    H181035   4.506   4.463  12.077 -0.1873 -0.3959 -1.0571
19848TIP3    H281036   4.445   4.351  11.995  1.3132 -1.7616 -0.3789
19849TIP3   OH281037   6.574   4.123   3.734  0.2967  0.0662 -0.5240
19849TIP3    H181038   6.575   4.034   3.770 -1.1160 -0.0628 -0.7551
19849TIP3    H281039   6.514   4.171   3.791  1.5319  1.0664 -0.0129
19850TIP3   OH281040   0.940   5.440  11.267  0.7302 -0.4385 -0.6361
19850TIP3    H181041   1.024   5.473  11.298 -0.0207  0.2451  0.7367
19850TIP3    H281042   0.924   5.487  11.184  2.0858 -1.2320 -1.3747
19851TIP3   OH281043   5.992   5.046  14.514  0.0307  0.3347  0.1314
19851TIP3    H181044   5.995   4.978  14.582 -1.1217 -0.6217 -0.7094
19851TIP3    H281045   5.974   5.127  14.561 -1.7501 -0.4673  0.9174
19852TIP3   OH281046   2.803   6.635   4.158 -0.3474 -0.2202  0.5058
19852TIP3    H181047   2.759   6.586   4.088 -0.9655  0.7841  0.1688
19852TIP3    H281048   2.750   6.714   4.169  0.1290 -0.0406  1.6502
19853TIP3   OH281049   4.161   5.797  16.100 -0.3748  0.0722  0.0055
19853TIP3    H181050   4.074   5.805  16.061 -0.4942 -0.3515  0.1851
19853TIP3    H281051   4.199   5.885  16.092 -0.0294 -0.2036 -1.8900
19854TIP3   OH281052   0.636   5.309   2.396  0.1779  0.0023 -0.1013
19854TIP3    H181053   0.586   5.265   2.328 -0.0805  1.8685 -1.1946
19854TIP3    H281054   0.718   5.261   2.400 -0.0484 -0.5285 -1.2913
19855TIP3   OH281055   2.994   6.409  10.404  0.3004  0.3012  0.1570
19855TIP3    H181056   3.023   6.470  10.472  0.0255  0.0556  0.4920
19855TIP3    H281057   2.899   6.409  10.411  0.3121 -0.3330  0.2963
19856TIP3   OH281058   1.213   6.242  13.118 -0.2031 -0.5411  0.3255
19856TIP3    H181059   1.260   6.313  13.075 -1.3401 -1.5208 -2.8393
19856TIP3    H281060   1.280   6.192  13.164  0.9499  1.2010  0.5963
19857TIP3   OH281061   4.876   3.724  13.344 -0.8806  0.3427 -0.4610
19857TIP3    H181062   4.851   3.725  13.437  0.2662  0.7371 -0.1350
19857TIP3    H281063   4.953   3.666  13.342  0.2335  1.7738 -0.8328
19858TIP3   OH281064   0.155   3.522   1.472  0.4236 -0.1371 -0.1570
19858TIP3    H181065   0.141   3.617   1.473  4.2026  0.6260 -2.0433
19858TIP3    H281066   0.077   3.487   1.430 -1.4114  1.9910  1.2243
19859TIP3   OH281067   2.384   3.185   0.801  0.3312  0.1695  0.0820
19859TIP3    H181068   2.442   3.209   0.729 -0.1460 -1.5709 -0.9351
19859TIP3    H281069   2.404   3.248   0.870  0.4213  2.2749 -1.7405
19860TIP3   OH281070   5.601   6.831  15.912  0.0079 -0.3489  0.3393
19860TIP3    H181071   5.554   6.889  15.972  0.3915  2.3007 -1.7280
19860TIP3    H281072   5.532   6.791  15.858 -0.1889 -0.9770  1.0429
19861TIP3   OH281073   0.629   1.615  16.372 -0.0947  0.0656  0.0731
19861TIP3    H181074   0.603   1.674  16.300 -2.3299  0.9078  1.4646
19861TIP3    H281075   0.629   1.528  16.332  2.4043  0.8163 -1.8152
19862TIP3   OH281076   4.441   2.121   4.496  0.0747  0.3974 -0.1153
19862TIP3    H181077   4.411   2.190   4.555  1.2734  1.6735 -0.9357
19862TIP3    H281078   4.397   2.042   4.527 -3.6355  1.9588 -0.8203
19863TIP3   OH281079   2.424   6.785  15.516 -0.0229  0.7201 -0.4777
19863TIP3    H181080   2.363   6.856  15.498  1.4231  1.6348 -2.1080
19863TIP3    H281081   2.510   6.828  15.520  0.6796 -0.6858  0.4390
19864TIP3   OH281082   3.637   5.016   2.548 -0.0280 -0.1438  0.1650
19864TIP3    H181083   3.711   4.964   2.581  0.8922  0.4032 -0.9620
19864TIP3    H281084   3.678   5.090   2.504 -1.1802 -0.8346 -2.2148
19865TIP3   OH281085   5.622   6.192   1.291  0.1791  0.3819  0.0920
19865TIP3    H181086   5.656   6.163   1.207  1.2323  0.5429  0.4567
19865TIP3    H281087   5.699   6.212   1.344 -0.4595  2.6203  0.2830
19866TIP3   OH281088   5.594   5.048  14.652  0.8830  0.1412 -0.3420
19866TIP3    H181089   5.565   5.058  14.743 -0.0195  4.1872 -0.8563
19866TIP3    H281090   5.561   4.963  14.625  0.9746 -1.1003  3.0047
19867TIP3   OH281091   3.891   4.589   1.699 -0.2985  0.3473 -1.0816
19867TIP3    H181092   3.865   4.622   1.785 -3.1808 -0.5815 -1.4844
19867TIP3    H281093   3.928   4.502   1.716 -2.2317 -0.4768 -0.8242
19868TIP3   OH281094   4.617   3.790   3.271  0.8799  0.6795  0.0585
19868TIP3    H181095   4.650   3.702   3.292  0.8547  0.2967 -1.3871
19868TIP3    H281096   4.533   3.795   3.315 -0.0594 -0.8189 -1.4200
19869TIP3   OH281097   4.538   3.604  12.543  0.6439  1.0306 -0.0140
19869TIP3    H181098   4.532   3.512  12.570  0.5208  0.9425 -0.3324
19869TIP3    H281099   4.488   3.608  12.461 -0.3212  1.6198  0.5901
19870TIP3   OH281100   5.960   5.521  13.306 -0.5746  0.1458  0.1405
19870TIP3    H181101   5.916   5.512  13.391 -0.4975 -2.4512  0.0104
19870TIP3    H281102   5.924   5.449  13.254  1.2537  0.1252 -1.1657
19871TIP3   OH281103   1.323   0.588  16.463 -0.0631 -0.3194  0.2524
19871TIP3    H181104   1.270   0.656  16.506  1.5077  1.5327 -0.5741
19871TIP3    H281105   1.339   0.524  16.532 -3.3215 -1.0164  0.5370
19872TIP3   OH281106   4.771   4.125  13.245  0.0111  0.3374 -0.5359
19872TIP3    H181107   4.732   4.182  13.311  1.4407  0.7450 -0.0080
19872TIP3    H281108   4.852   4.169  13.219  0.2788 -0.6010 -1.3883
19873TIP3   OH281109   3.705   4.162   3.652  0.0280  0.1173  0.3186
19873TIP3    H181110   3.774   4.190   3.712  1.2354 -1.3887 -0.2865
19873TIP3    H281111   3.710   4.066   3.653 -2.3516 -0.0896  0.5600
19874TIP3   OH281112   3.607   2.270  16.790 -0.4273  0.2440  0.3842
19874TIP3    H181113   3.534   2.317  16.830  0.1579  0.1875  1.5613
19874TIP3    H281114   3.594   2.178  16.815 -1.1610 -0.1377 -1.2839
19875TIP3   OH281115   3.806   1.333  13.488  0.2057 -0.4926  0.4703
19875TIP3    H181116   3.838   1.312  13.576  0.4577 -0.8019  0.3095
19875TIP3    H281117   3.715   1.359  13.501  0.4875  0.2973  0.9265
19876TIP3   OH281118   5.255   6.571   3.417 -0.6954 -0.5046  0.0435
19876TIP3    H181119   5.164   6.575   3.388  0.0198  0.7409 -2.3177
19876TIP3    H281120   5.265   6.644   3.478 -1.3039 -0.7871  0.4941
19877TIP3   OH281121   1.355   5.286   2.418  0.1934 -0.0287  0.1624
19877TIP3    H181122   1.274   5.279   2.367  0.4227 -0.9219 -0.0945
19877TIP3    H281123   1.334   5.242   2.501  0.1325  0.5598  0.4690
19878TIP3   OH281124   3.823   5.123  10.320  0.2327 -0.0619 -0.6141
19878TIP3    H181125   3.769   5.186  10.273 -0.5244  0.5599  0.9959
19878TIP3    H281126   3.777   5.040  10.312 -1.4661  0.6095  1.3841
19879TIP3   OH281127   1.101   2.326  14.820  0.7093 -0.2168  0.5041
19879TIP3    H181128   1.031   2.263  14.837  0.1113 -0.0651 -1.1962
19879TIP3    H281129   1.055   2.406  14.793  1.5138  0.3252  0.6901
19880TIP3   OH281130   4.963   0.622   5.498  0.2712 -0.1193 -0.2696
19880TIP3    H181131   4.867   0.629   5.498  0.0301 -2.4318  0.8585
19880TIP3    H281132   4.993   0.695   5.551 -0.8363  0.7013 -0.7219
19881TIP3   OH281133   0.948   5.969  13.373 -0.5251  0.3304 -0.4606
19881TIP3    H181134   0.939   6.005  13.285  1.5907 -2.8881 -2.2076
19881TIP3    H281135   1.040   5.986  13.396 -1.0317  1.0781  1.1823
19882TIP3   OH281136   4.374   1.225  15.942  0.1365 -0.5853  0.9235
19882TIP3    H181137   4.449   1.285  15.949 -1.5065  1.5681  1.0895
19882TIP3    H281138   4.411   1.145  15.906  2.0912  1.2799 -1.5503
19883TIP3   OH281139   5.797   2.324  12.036  0.1569  0.6218 -0.3288
19883TIP3    H181140   5.770   2.367  11.954 -0.5770  0.9639  0.0813
19883TIP3    H281141   5.886   2.294  12.018 -0.2440  0.0467 -1.4984
19884TIP3   OH281142   2.754   2.698  13.525 -0.5278 -0.3621  0.6051
19884TIP3    H181143   2.768   2.766  13.590  0.5481  1.4222 -1.3514
19884TIP3    H281144   2.832   2.643  13.530 -0.1439  0.1592  0.4048
19885TIP3   OH281145   5.562   4.910   0.380 -0.5172  0.4505  0.1058
19885TIP3    H181146   5.473   4.886   0.406 -0.8151 -0.4486 -1.5933
19885TIP3    H281147   5.563   5.006   0.384 -1.3257  0.4436  0.8046
19886TIP3   OH281148   2.253   0.250  12.367 -0.3521  0.1033  0.2503
19886TIP3    H181149   2.212   0.304  12.299 -1.1875 -0.2803  0.4313
19886TIP3    H281150   2.294   0.178  12.320 -2.4636 -1.1610  0.2154
19887TIP3   OH281151   3.324   5.140  11.479 -0.1820 -0.3129  0.4720
19887TIP3    H181152   3.316   5.227  11.440  1.2551  0.3788  1.6158
19887TIP3    H281153   3.253   5.089  11.440 -0.6439  1.1782 -0.7193
19888TIP3   OH281154   6.062   0.191   2.374 -0.7076 -0.7060 -0.2813
19888TIP3    H181155   5.966   0.193   2.372 -0.6871 -0.0344 -1.1538
19888TIP3    H281156   6.086   0.151   2.290 -0.2021  0.8316 -0.8976
19889TIP3   OH281157   2.704   4.945   2.070  0.1010  0.2849 -0.2146
19889TIP3    H181158   2.636   5.002   2.104  1.2959  0.6344  1.7391
19889TIP3    H281159   2.786   4.991   2.088  0.9259 -0.4195 -1.8967
19890TIP3   OH281160   6.821   5.254   2.557 -0.1715  0.2583  0.6898
19890TIP3    H181161   6.789   5.310   2.486  1.1902  0.2378  0.0206
19890TIP3    H281162   6.801   5.165   2.528  0.4329  0.2468  0.2835
19891TIP3   OH281163   6.630   5.465   4.194 -0.0784 -0.2443  0.1180
19891TIP3    H181164   6.643   5.461   4.099  0.6308  0.7901  0.1526
19891TIP3    H281165   6.557   5.525   4.206 -1.1108 -1.4742  0.1866
19892TIP3   OH281166   6.047   1.854  15.519  0.2576  0.0583 -0.0798
19892TIP3    H181167   5.984   1.835  15.589 -1.3977  0.6060 -1.3477
19892TIP3    H281168   6.059   1.771  15.475  0.7663 -0.1390  0.4222
19893TIP3   OH281169   3.825   6.189  15.580  0.9778  0.3637  0.4551
19893TIP3    H181170   3.787   6.123  15.638  1.4825  0.1607  0.5607
19893TIP3    H281171   3.895   6.229  15.632  0.0721  1.6525  0.7373
19894TIP3   OH281172   1.612   6.397  12.825 -0.4411  0.0372  0.4132
19894TIP3    H181173   1.648   6.397  12.737 -0.8520  2.3569  0.1692
19894TIP3    H281174   1.685   6.373  12.881  0.8527  2.0950 -0.2947
19895TIP3   OH281175   5.272   6.207   0.749 -0.7272 -0.3976  0.3438
19895TIP3    H181176   5.355   6.167   0.724 -1.1643 -1.6325  0.8274
19895TIP3    H281177   5.263   6.186   0.842 -1.0385  0.7169  0.5808
19896TIP3   OH281178   0.856   6.006  11.414 -0.3194 -0.7235  0.0613
19896TIP3    H181179   0.843   5.960  11.331 -0.8043 -2.5284  1.0931
19896TIP3    H281180   0.825   5.945  11.481 -0.0961  0.7504  1.5759
19897TIP3   OH281181   6.159   1.645  14.990 -0.2116  0.0789 -0.3013
19897TIP3    H181182   6.140   1.734  14.961 -0.9555  0.0559  0.0678
19897TIP3    H281183   6.077   1.597  14.975  1.1588 -1.4923 -3.8392
19898TIP3   OH281184   3.980   4.206  14.691  0.0034  0.3723 -0.1331
19898TIP3    H181185   3.913   4.204  14.623 -0.3007  0.0689  0.1687
19898TIP3    H281186   4.056   4.163  14.652 -1.1152 -2.5741  0.6916
19899TIP3   OH281187   1.733   4.231  12.331 -0.1262  0.4716  0.0956
19899TIP3    H181188   1.749   4.305  12.390  0.5171 -1.6710  2.8473
19899TIP3    H281189   1.795   4.244  12.259  2.0208  1.2209  1.9327
19900TIP3   OH281190   3.869   3.893  12.608 -0.1364  0.0193  0.4430
19900TIP3    H181191   3.849   3.809  12.649  1.0173 -0.9142 -0.8074
19900TIP3    H281192   3.804   3.903  12.539 -1.8902  1.4495  2.1680
19901TIP3   OH281193   1.498   0.716  11.175  0.6238  0.5725  0.3971
19901TIP3    H181194   1.572   0.743  11.120  1.6361 -1.7485  0.5120
19901TIP3    H281195   1.494   0.783  11.244  3.2418  0.2923  0.9284
19902TIP3   OH281196   4.847   5.092   0.869  0.6176  0.4023 -0.7862
19902TIP3    H181197   4.904   5.015   0.875  0.0191 -0.0549 -0.9102
19902TIP3    H281198   4.899   5.156   0.819  2.1740  1.0506  1.4879
19903TIP3   OH281199   4.926   0.523  13.402 -0.1252 -0.0763  0.0919
19903TIP3    H181200   5.005   0.474  13.425  0.6886  0.6542 -1.0238
19903TIP3    H281201   4.863   0.501  13.470  0.2478 -2.5330 -0.2915
19904TIP3   OH281202   0.381   6.221   4.797  0.4075  0.1365  0.0892
19904TIP3    H181203   0.397   6.134   4.832  2.2043  0.8255  1.1424
19904TIP3    H281204   0.468   6.253   4.772 -0.0594  1.9582  0.5852
19905TIP3   OH281205   4.917   4.520   1.824  0.0320 -0.0642 -0.1982
19905TIP3    H181206   4.901   4.610   1.853  1.7534 -0.3668  1.8947
19905TIP3    H281207   4.899   4.466   1.901  3.1454 -1.0643 -0.0353
19906TIP3   OH281208   5.877   4.448  15.162  0.0671  0.3389  0.3603
19906TIP3    H181209   5.851   4.363  15.200  0.0142 -1.0506 -2.5421
19906TIP3    H281210   5.968   4.436  15.136 -0.4648  0.4956 -1.7069
19907TIP3   OH281211   3.986   4.880   4.795 -0.2049 -0.0255  0.3286
19907TIP3    H181212   3.933   4.944   4.748 -2.2001 -0.9029  1.2348
19907TIP3    H281213   3.963   4.796   4.754 -1.5198 -0.7306  2.3309
19908TIP3   OH281214   2.589   5.008  15.579  0.0054 -0.1309  0.6304
19908TIP3    H181215   2.624   4.919  15.578  0.4860  0.0620 -0.5068
19908TIP3    H281216   2.505   5.001  15.624 -0.2369 -1.2596  0.0107
19909TIP3   OH281217   3.094   3.109   2.021 -0.1155 -0.4524 -0.2096
19909TIP3    H181218   3.122   3.139   2.107  0.8703 -1.6953 -0.0548
19909TIP3    H281219   3.162   3.139   1.961 -0.7922  0.4002 -0.5735
19910TIP3   OH281220   3.983   4.731  10.910 -0.3257 -0.0357 -0.3295
19910TIP3    H181221   4.008   4.661  10.970  0.0332 -2.0442 -2.6505
19910TIP3    H281222   3.887   4.735  10.915 -0.4412 -1.4661 -0.8888
19911TIP3   OH281223   2.172   3.558   1.978  0.4348  0.1180  0.8323
19911TIP3    H181224   2.265   3.577   1.965  0.7550 -2.3219 -1.1011
19911TIP3    H281225   2.171   3.483   2.037 -0.3230  0.3353  1.1014
19912TIP3   OH281226   6.140   5.659  15.619  0.2550  0.3810 -0.4898
19912TIP3    H181227   6.061   5.702  15.651  0.8350  0.9418  0.2334
19912TIP3    H281228   6.118   5.566  15.614 -0.8902  0.6913 -1.6541
19913TIP3   OH281229   0.521   6.230   5.164 -0.4582 -0.1435 -0.0194
19913TIP3    H181230   0.447   6.178   5.194 -0.6495  1.0538  1.7564
19913TIP3    H281231   0.486   6.285   5.093 -0.6138 -1.3117 -0.8764
19914TIP3   OH281232   0.479   6.487   4.494  0.2864  0.6638  0.1915
19914TIP3    H181233   0.434   6.533   4.423  0.3211  0.8682  0.2985
19914TIP3    H281234   0.435   6.518   4.573  0.0895  0.2517  0.2414
19915TIP3   OH281235   6.120   0.800   5.548 -0.8601  0.1893  0.2229
19915TIP3    H181236   6.065   0.727   5.575 -1.8168  1.3307  1.4716
19915TIP3    H281237   6.190   0.804   5.613 -2.1420  1.8093  1.5797
19916TIP3   OH281238   2.175   6.788   4.255  0.4176  0.3944 -0.4917
19916TIP3    H181239   2.214   6.869   4.290  0.5781  0.6147 -1.1609
19916TIP3    H281240   2.088   6.815   4.225  0.6244  0.4140 -1.0828
19917TIP3   OH281241   2.587   4.051   6.529  0.0081 -0.1626  0.1333
19917TIP3    H181242   2.625   4.124   6.481 -0.2161  0.6498  1.1662
19917TIP3    H281243   2.507   4.029   6.481 -0.7282  1.2661  0.6552
19918TIP3   OH281244   1.823   1.958  10.836  0.4854 -0.0728  0.6131
19918TIP3    H181245   1.763   1.945  10.763  0.3542 -0.1283  0.7298
19918TIP3    H281246   1.860   1.871  10.852  0.1731 -0.1571  0.9050
19919TIP3   OH281247   6.817   5.706   0.394  0.2091  0.0687 -0.0765
19919TIP3    H181248   6.815   5.749   0.309  0.4447  1.6820  0.7041
19919TIP3    H281249   6.728   5.671   0.405  0.2893 -0.5117 -1.1372
19920TIP3   OH281250   5.733   0.447   5.592 -0.3119 -0.1407  0.0011
19920TIP3    H181251   5.749   0.353   5.590  2.8673  0.2879 -3.0778
19920TIP3    H281252   5.818   0.486   5.613 -0.8020  2.0958 -1.7952
19921TIP3   OH281253   1.166   4.578  16.519  0.3546  0.5896  0.7153
19921TIP3    H181254   1.256   4.612  16.520  0.0321  1.4608  0.9887
19921TIP3    H281255   1.134   4.594  16.608 -0.1952  0.6265  0.5097
19922TIP3   OH281256   2.590   1.361   4.626 -0.0688 -0.6894 -0.1527
19922TIP3    H181257   2.521   1.427   4.624  0.2682 -0.2683  1.1436
19922TIP3    H281258   2.602   1.342   4.719 -0.3253 -2.7573 -0.4905
19923TIP3   OH281259   1.193   2.290  12.260  0.4216 -0.0584  0.1546
19923TIP3    H181260   1.112   2.333  12.234 -0.0206  0.2558  1.8959
19923TIP3    H281261   1.189   2.204  12.219 -0.8963 -0.1165  0.3690
19924TIP3   OH281262   0.570   0.296   5.094  0.2809  0.5727  0.0382
19924TIP3    H181263   0.611   0.335   5.017 -1.0149  2.6815  0.3379
19924TIP3    H281264   0.644   0.268   5.149  1.2369  0.9900 -1.0105
19925TIP3   OH281265   1.916   2.981   4.287 -0.3227  0.1835 -0.7110
19925TIP3    H181266   1.904   2.904   4.342  0.1825  0.3988 -0.2902
19925TIP3    H281267   1.861   2.965   4.210 -0.8305 -0.2397 -0.2660
19926TIP3   OH281268   2.207   5.476   3.965 -0.5675 -0.0482  0.3011
19926TIP3    H181269   2.119   5.485   4.002 -0.4255  0.1055  0.6069
19926TIP3    H281270   2.192   5.455   3.873 -0.9363 -1.0062  0.5656
19927TIP3   OH281271   5.665   4.739   2.251 -0.4019 -0.1625 -0.0879
19927TIP3    H181272   5.574   4.727   2.279  0.5018 -2.6065  2.1590
19927TIP3    H281273   5.717   4.722   2.329  2.0470  1.7376 -1.1627
19928TIP3   OH281274   3.851   0.010   5.718  0.0465  0.0224  0.3473
19928TIP3    H181275   3.928   0.050   5.676 -0.0714 -1.9865 -2.0648
19928TIP3    H281276   3.780   0.071   5.700  0.3644  0.0518 -0.9052
19929TIP3   OH281277   2.028   1.501  14.042  0.3524 -0.0169  0.1647
19929TIP3    H181278   1.980   1.574  14.003  0.8138 -0.2548 -0.8592
19929TIP3    H281279   2.106   1.490  13.987  0.6993 -0.7657  0.7784
19930TIP3   OH281280   4.236   6.246   3.619 -0.4822  0.0124 -0.7048
19930TIP3    H181281   4.215   6.238   3.712 -0.2269  1.3393 -0.5126
19930TIP3    H281282   4.223   6.339   3.599  2.2930  0.3706 -1.2707
19931TIP3   OH281283   6.674   5.181  15.600  0.4955 -0.0380  0.0903
19931TIP3    H181284   6.769   5.174  15.597  0.3832 -1.7394 -1.4125
19931TIP3    H281285   6.651   5.231  15.521  0.0671 -1.2579 -0.5787
19932TIP3   OH281286   2.017   4.884  14.473 -0.0075  0.1732 -0.0514
19932TIP3    H181287   2.083   4.818  14.495 -0.1207  0.4570  1.1846
19932TIP3    H281288   1.944   4.833  14.438  0.0202 -0.3448  0.6170
19933TIP3   OH281289   0.397   5.818  12.965  0.3311  0.0244  0.4819
19933TIP3    H181290   0.423   5.750  12.903  1.3981  1.4015 -0.6698
19933TIP3    H281291   0.316   5.854  12.929  1.5378  1.5870 -0.8374
19934TIP3   OH281292   2.680   6.834   3.154 -0.2609 -0.3698 -0.4068
19934TIP3    H181293   2.627   6.885   3.093  0.5161  1.2590  0.2436
19934TIP3    H281294   2.732   6.776   3.098 -1.5378 -0.8771 -1.1200
19935TIP3   OH281295   2.207   4.517   2.788  0.1459 -0.4568 -0.0583
19935TIP3    H181296   2.127   4.570   2.782  0.0710 -0.4451  0.8184
19935TIP3    H281297   2.277   4.574   2.759 -0.3026 -0.8719 -2.1101
19936TIP3   OH281298   3.982   5.771   0.084 -0.5246  0.2476 -0.1323
19936TIP3    H181299   3.920   5.709   0.044  1.1876 -2.3798  0.9852
19936TIP3    H281300   3.933   5.811   0.156 -1.1450 -1.2960  0.3381
19937TIP3   OH281301   3.915   0.989   0.426 -0.2441 -0.3424 -0.0851
19937TIP3    H181302   3.991   1.017   0.376  0.2126  0.1332  0.8513
19937TIP3    H281303   3.950   0.960   0.510 -1.0924  0.0211  0.4191
19938TIP3   OH281304   3.067   3.413  13.335 -0.2728  0.6953  0.1984
19938TIP3    H181305   3.152   3.454  13.323 -0.4466  0.7108 -1.1178
19938TIP3    H281306   3.008   3.462  13.278 -1.2723  0.9456  1.3885
19939TIP3   OH281307   6.291   4.773  13.503 -0.0390  0.9211 -0.2359
19939TIP3    H181308   6.380   4.788  13.535  0.7186 -0.8301 -1.3491
19939TIP3    H281309   6.276   4.844  13.441  0.6437  1.1757 -0.1175
19940TIP3   OH281310   0.538   1.662  14.591 -0.3833  0.3774 -0.7534
19940TIP3    H181311   0.605   1.595  14.581 -1.1526 -0.8504  1.4040
19940TIP3    H281312   0.584   1.738  14.626 -0.0296 -0.4438  0.6731
19941TIP3   OH281313   5.461   2.288   2.265  0.2744  0.4248 -0.2410
19941TIP3    H181314   5.463   2.382   2.283 -0.3955  0.3690  0.1485
19941TIP3    H281315   5.377   2.258   2.301  2.0263 -1.0154  3.0849
19942TIP3   OH281316   0.090   1.611   6.408  0.6033  0.3753 -0.2884
19942TIP3    H181317   0.162   1.643   6.354 -0.8932 -0.2380 -2.8618
19942TIP3    H281318   0.100   1.516   6.407 -1.4355  0.0810 -2.7258
19943TIP3   OH281319   0.973   5.302   3.863  0.1523 -0.2277  0.1567
19943TIP3    H181320   1.028   5.261   3.797  0.4236 -0.1232  0.3146
19943TIP3    H281321   0.989   5.396   3.853 -0.3726 -0.1643 -0.1234
19944TIP3   OH281322   5.683   1.807  15.974 -0.2779  0.3296  0.4898
19944TIP3    H181323   5.624   1.736  15.998  0.5849 -0.2523  0.9743
19944TIP3    H281324   5.771   1.767  15.979  0.0490 -0.0617 -4.1782
19945TIP3   OH281325   3.041   3.576  14.821 -0.0855  0.6863 -0.0537
19945TIP3    H181326   3.091   3.582  14.740 -1.1369  0.6474 -0.7187
19945TIP3    H281327   2.962   3.628  14.805 -0.4579  0.4253  0.8362
19946TIP3   OH281328   3.518   5.626  16.022  0.0442 -0.7631 -0.1086
19946TIP3    H181329   3.612   5.608  16.018  0.4541  0.9390  0.7494
19946TIP3    H281330   3.502   5.686  15.948 -0.3063 -0.7942 -0.0592
19947TIP3   OH281331   4.496   5.884   2.564  0.2580 -0.2913  0.2103
19947TIP3    H181332   4.466   5.909   2.651  1.3522  1.6864  0.0611
19947TIP3    H281333   4.447   5.941   2.504  0.1399 -1.0389 -0.4243
19948TIP3   OH281334   6.205   3.945  12.607  0.4860  0.3634  0.5127
19948TIP3    H181335   6.270   3.939  12.537 -0.5253  1.9798 -0.6630
19948TIP3    H281336   6.199   3.857  12.642  0.3557 -0.7812 -2.1308
19949TIP3   OH281337   4.663   5.582   5.110  0.2978 -0.4481 -0.0702
19949TIP3    H181338   4.679   5.620   5.024  1.8943 -0.4759  0.1898
19949TIP3    H281339   4.620   5.498   5.092 -0.6979  0.1805 -0.7519
19950TIP3   OH281340   0.985   1.090  14.320  0.1874  0.0138  0.2932
19950TIP3    H181341   1.046   1.127  14.257 -0.1432 -0.0696 -0.0771
19950TIP3    H281342   1.012   0.998  14.328  0.0105 -0.0646  0.0048
19951TIP3   OH281343   5.028   2.386   1.319  0.0476  0.2319  0.2379
19951TIP3    H181344   4.936   2.405   1.301 -0.4819 -0.2509  2.2224
19951TIP3    H281345   5.027   2.298   1.358  1.4822 -0.2144 -0.6712
19952TIP3   OH281346   3.986   6.709   1.470 -0.1111  0.1211 -0.0117
19952TIP3    H181347   4.001   6.752   1.554 -0.1884 -0.4757  0.3149
19952TIP3    H281348   3.893   6.723   1.453 -0.2786 -0.4430  0.4013
19953TIP3   OH281349   4.227   4.084   5.323 -0.2073  0.5191 -0.3364
19953TIP3    H181350   4.201   4.165   5.369  0.8808  1.1292 -0.7574
19953TIP3    H281351   4.253   4.024   5.393 -0.9833  0.5324 -0.0208
19954TIP3   OH281352   6.414   0.740  14.179  0.0176 -0.0434  0.3703
19954TIP3    H181353   6.407   0.761  14.272 -1.0253  1.5303 -0.0165
19954TIP3    H281354   6.500   0.774  14.153  1.8306 -3.4373  1.3818
19955TIP3   OH281355   1.455   4.911   1.342 -0.4583  0.1481  0.3425
19955TIP3    H181356   1.528   4.973   1.341  0.2680 -0.6527 -1.4947
19955TIP3    H281357   1.391   4.950   1.282 -0.7721 -0.0272  0.5632
19956TIP3   OH281358   5.502   3.595   3.577 -0.0251  0.8058 -0.0946
19956TIP3    H181359   5.505   3.675   3.526  0.3447  1.6060  1.1320
19956TIP3    H281360   5.551   3.616   3.657 -0.9848 -0.2273  0.7956
19957TIP3   OH281361   6.501   4.174   1.168  0.1494  0.1717  0.4310
19957TIP3    H181362   6.579   4.214   1.131 -0.1729 -0.8441 -1.4861
19957TIP3    H281363   6.441   4.165   1.094 -1.3390 -0.1741  1.6097
19958TIP3   OH281364   0.350   2.258  13.570 -0.6242  0.1717  0.3321
19958TIP3    H181365   0.262   2.289  13.548 -0.8103 -1.3179 -1.2405
19958TIP3    H281366   0.386   2.229  13.486  0.7501 -0.7629  1.2158
19959TIP3   OH281367   5.387   5.688   4.782 -0.2243 -0.3188 -0.0042
19959TIP3    H181368   5.325   5.751   4.744 -1.2860 -0.6651  1.0772
19959TIP3    H281369   5.404   5.722   4.870 -2.3270 -2.4420  1.3535
19960TIP3   OH281370   5.019   2.847   1.317  0.1186  0.6481  0.2190
19960TIP3    H181371   5.066   2.909   1.262  0.2215  0.6393  0.2967
19960TIP3    H281372   4.928   2.877   1.315  0.0482  0.4096 -0.2849
19961TIP3   OH281373   3.292   5.339  13.496  1.0037 -0.1781  0.3684
19961TIP3    H181374   3.240   5.276  13.546  0.9486  0.3246  0.9537
19961TIP3    H281375   3.321   5.290  13.418  1.1201 -0.9751  0.9027
19962TIP3   OH281376   2.931   0.105   5.368  0.3689 -0.2736 -0.2780
19962TIP3    H181377   2.970   0.058   5.441  0.2100  0.9157  0.6137
19962TIP3    H281378   2.910   0.192   5.403 -0.1763  0.1714 -1.5971
19963TIP3   OH281379   1.331   6.425  13.715 -0.0039 -0.6190 -0.4801
19963TIP3    H181380   1.405   6.377  13.753 -0.4694 -0.2879  0.8710
19963TIP3    H281381   1.355   6.517  13.721  0.0619 -0.5642 -1.3388
19964TIP3   OH281382   3.779   6.595   3.147 -0.0721 -0.9999 -0.1523
19964TIP3    H181383   3.857   6.643   3.117  0.7899 -3.1499 -1.5796
19964TIP3    H281384   3.729   6.578   3.068 -0.4162 -2.2814  0.3147
19965TIP3   OH281385   0.895   2.092   4.585 -0.1674 -0.1206 -0.0428
19965TIP3    H181386   0.871   2.150   4.512 -0.8993 -0.1434  0.1708
19965TIP3    H281387   0.928   2.013   4.542 -1.0527 -0.3273 -0.3766
19966TIP3   OH281388   1.560   1.465   4.634  0.2490  0.2346  0.2338
19966TIP3    H181389   1.562   1.545   4.582  1.6868  0.4239  0.5618
19966TIP3    H281390   1.471   1.462   4.670  0.4490  2.2069  1.0209
19967TIP3   OH281391   2.651   6.738   0.488 -0.3157 -0.6143  0.5205
19967TIP3    H181392   2.743   6.730   0.515 -0.2677 -0.0418  0.5590
19967TIP3    H281393   2.619   6.815   0.536 -0.5010 -0.1477 -0.3151
19968TIP3   OH281394   2.525   3.593   5.613 -0.1997  0.9956 -0.5502
19968TIP3    H181395   2.458   3.644   5.659  0.3165  1.3673 -0.2031
19968TIP3    H281396   2.513   3.503   5.645 -2.3687  0.4401 -2.5555
19969TIP3   OH281397   2.985   5.432   3.741  0.0445 -0.5667 -0.4570
19969TIP3    H181398   2.891   5.449   3.737  0.0677 -0.6325 -3.0210
19969TIP3    H281399   2.993   5.359   3.803 -1.2874  0.8135  1.4920
19970TIP3   OH281400   5.049   2.930  15.400  0.2363 -0.1902  0.4143
19970TIP3    H181401   5.012   2.889  15.322  0.5303  1.1513 -0.4834
19970TIP3    H281402   4.980   2.925  15.465 -0.3338 -0.6083 -0.2066
19971TIP3   OH281403   6.765   4.363   5.493 -0.1516 -0.0242  0.1669
19971TIP3    H181404   6.730   4.388   5.407  0.7344  0.8989  0.0502
19971TIP3    H281405   6.860   4.368   5.482 -0.0120 -0.4314  1.0610
19972TIP3   OH281406   4.013   5.593  15.190  0.0822  0.1784 -0.0634
19972TIP3    H181407   3.990   5.505  15.222 -1.1786  1.3398  2.5019
19972TIP3    H281408   4.085   5.578  15.128 -0.8246 -2.7363 -0.5849
19973TIP3   OH281409   3.178   3.088  14.774 -0.0744  0.1705  0.5041
19973TIP3    H181410   3.142   3.176  14.765  1.1000  0.5569 -0.7159
19973TIP3    H281411   3.133   3.037  14.706  0.0476  0.0985  0.4769
19974TIP3   OH281412   6.395   6.851   1.287 -0.0543  0.0219  0.3380
19974TIP3    H181413   6.349   6.811   1.361 -0.9408  1.3411  0.5303
19974TIP3    H281414   6.485   6.863   1.319  0.6790 -3.0478 -0.2221
19975TIP3   OH281415   1.629   5.772   4.051 -0.4224  0.3054  0.3823
19975TIP3    H181416   1.583   5.779   3.967  0.1386  1.5378  0.1494
19975TIP3    H281417   1.719   5.750   4.027 -0.3753  0.1499  0.6975
19976TIP3   OH281418   0.390   2.815   1.141 -0.3604 -0.2645 -0.5541
19976TIP3    H181419   0.414   2.800   1.232 -1.1052 -0.6387 -0.4053
19976TIP3    H281420   0.320   2.880   1.145  1.2364  1.5665 -1.0424
19977TIP3   OH281421   2.257   0.908   3.275  0.0210 -0.0344 -0.2387
19977TIP3    H181422   2.305   0.849   3.332  0.5137  1.1175  0.5879
19977TIP3    H281423   2.277   0.879   3.187 -1.2825 -2.2745  0.1434
19978TIP3   OH281424   6.776   6.297  11.836 -0.3698  0.5530 -0.2831
19978TIP3    H181425   6.751   6.265  11.750 -0.0783 -1.0823  0.2142
19978TIP3    H281426   6.795   6.390  11.822  1.3525 -0.0147 -2.3470
19979TIP3   OH281427   6.029   3.665   3.567 -0.4478  0.1663  0.1345
19979TIP3    H181428   5.981   3.596   3.613  1.1568 -0.9301  0.2326
19979TIP3    H281429   6.085   3.704   3.634  0.9298 -0.5468 -0.5755
19980TIP3   OH281430   6.574   6.153   4.777  0.5211  0.3748 -0.0796
19980TIP3    H181431   6.647   6.094   4.797 -0.0140 -0.2168  0.1330
19980TIP3    H281432   6.528   6.111   4.705 -0.9510 -0.4153  1.2867
19981TIP3   OH281433   4.983   3.565   5.108  0.0031  0.0650 -0.6090
19981TIP3    H181434   4.930   3.502   5.157  1.8279  0.5146  2.1729
19981TIP3    H281435   5.010   3.629   5.174  1.6611  1.4156 -2.4937
19982TIP3   OH281436   1.511   2.279   5.156 -0.1770  0.1667  0.0857
19982TIP3    H181437   1.510   2.184   5.143  0.2736  0.2478 -0.6612
19982TIP3    H281438   1.604   2.302   5.147 -0.4476  0.8505 -1.2593
19983TIP3   OH281439   3.187   5.984   3.855  0.4987  0.4872 -0.7733
19983TIP3    H181440   3.153   6.062   3.812 -0.5835  1.4492  1.6372
19983TIP3    H281441   3.120   5.917   3.843  0.1158  0.8083 -0.4226
19984TIP3   OH281442   2.254   0.812  16.997 -0.2235  0.0654  0.1590
19984TIP3    H181443   2.275   0.741  16.936  0.7642 -1.2302  1.9063
19984TIP3    H281444   2.338   0.850  17.020 -0.4746 -0.0441  1.3294
19985TIP3   OH281445   3.360   4.856  13.471 -0.3179  0.3004  0.2689
19985TIP3    H181446   3.443   4.808  13.474  0.3981  1.5450  2.2228
19985TIP3    H281447   3.294   4.787  13.461  0.8686 -0.7750 -0.6111
19986TIP3   OH281448   4.854   6.520  16.884 -0.1052  0.5222 -0.1013
19986TIP3    H181449   4.805   6.534  16.803 -0.1153 -0.3655 -0.2562
19986TIP3    H281450   4.834   6.597  16.938 -0.5481  0.8456 -0.7141
19987TIP3   OH281451   2.538   4.485   1.799  0.1600 -0.2976  0.0479
19987TIP3    H181452   2.495   4.562   1.762 -0.0208  1.0392  2.8204
19987TIP3    H281453   2.513   4.414   1.740  0.5943  1.7280 -2.8373
19988TIP3   OH281454   1.609   0.239   1.399 -0.1085  0.6569  0.0271
19988TIP3    H181455   1.517   0.243   1.424  0.2315  2.0689  1.1484
19988TIP3    H281456   1.629   0.325   1.363  0.6780  0.2149 -0.6574
19989TIP3   OH281457   4.491   3.070   0.367 -0.3728 -0.0943  0.6735
19989TIP3    H181458   4.514   2.977   0.378  2.7307  0.6580  1.5677
19989TIP3    H281459   4.527   3.113   0.444  0.0770  2.1143 -0.6766
19990TIP3   OH281460   5.109   4.731  12.987 -0.3557  0.5218  0.0509
19990TIP3    H181461   5.048   4.700  13.054 -0.1867 -0.4142 -0.2144
19990TIP3    H281462   5.053   4.755  12.913 -0.4193 -0.4155 -0.2224
19991TIP3   OH281463   3.520   5.626   4.087 -0.0228 -0.0489 -0.3406
19991TIP3    H181464   3.441   5.587   4.047  0.0180 -0.3083 -0.1683
19991TIP3    H281465   3.592   5.594   4.033 -0.1209  1.0876 -1.1901
19992TIP3   OH281466   3.826   3.876   6.041 -0.0686  0.2738  0.2962
19992TIP3    H181467   3.826   3.906   6.132 -1.2108 -1.9687  1.0973
19992TIP3    H281468   3.853   3.784   6.045  0.1349  0.1879 -1.6821
19993TIP3   OH281469   5.932   1.116   3.160 -0.4535 -0.2943  0.2605
19993TIP3    H181470   5.908   1.209   3.158  1.0906  0.1186 -0.5524
19993TIP3    H281471   5.853   1.071   3.130 -1.6359  0.6247  1.8300
19994TIP3   OH281472   6.304   3.811   3.428 -0.4455 -0.1909 -0.1678
19994TIP3    H181473   6.273   3.897   3.398  0.6038  0.4531  0.5510
19994TIP3    H281474   6.224   3.761   3.444 -1.0609  0.2979 -1.5574
19995TIP3   OH281475   3.666   6.498   1.298 -0.8550  0.5371 -0.6201
19995TIP3    H181476   3.745   6.462   1.338 -0.8556  0.6809 -0.4876
19995TIP3    H281477   3.676   6.481   1.205 -1.9677 -2.0551 -0.3720
19996TIP3   OH281478   4.575   4.808  10.683 -0.0811 -0.0969 -0.3499
19996TIP3    H181479   4.540   4.891  10.715 -0.6742  0.0967 -1.4662
19996TIP3    H281480   4.608   4.828  10.595  1.0552 -0.7291 -0.0967
19997TIP3   OH281481   1.287   1.411   1.414 -0.1726  0.0345 -0.1572
19997TIP3    H181482   1.286   1.364   1.331  0.7207  1.0621 -0.7816
19997TIP3    H281483   1.377   1.440   1.424 -0.0608 -0.7767  1.6126
19998TIP3   OH281484   3.072   1.229  15.742 -0.0796  0.3316  0.2904
19998TIP3    H181485   3.093   1.319  15.717  0.9468 -0.6871 -3.1771
19998TIP3    H281486   2.977   1.224  15.736 -0.0801  0.9723 -0.5099
19999TIP3   OH281487   3.491   4.072  11.506  0.3836  0.5482 -0.0105
19999TIP3    H181488   3.478   4.122  11.426 -0.2104  2.2756  1.1005
19999TIP3    H281489   3.576   4.030  11.495  0.0885  0.3453 -1.7290
20000TIP3   OH281490   6.193   2.530  16.695  0.3844  0.9027  0.3782
20000TIP3    H181491   6.284   2.537  16.723  0.7001 -0.9038 -0.0894
20000TIP3    H281492   6.142   2.547  16.774  1.1515  0.9801  0.8602
20001TIP3   OH281493   1.342   4.492   4.130  0.0316  0.0885  0.3161
20001TIP3    H181494   1.328   4.537   4.214  0.9141 -0.2590  0.6585
20001TIP3    H281495   1.327   4.560   4.064  0.2883  0.6235  0.7948
20002TIP3   OH281496   4.287   0.622   2.147  0.3705 -0.4129  0.6781
20002TIP3    H181497   4.276   0.654   2.236  0.2519  0.2119  0.4504
20002TIP3    H281498   4.375   0.584   2.145  0.0014 -1.3285  1.3161
20003TIP3   OH281499   6.869   6.105   1.794 -0.1347  0.1004 -0.1717
20003TIP3    H181500   6.946   6.162   1.791  0.0852 -0.2140 -0.7851
20003TIP3    H281501   6.904   6.017   1.806 -0.4346  0.0172  0.1093
20004TIP3   OH281502   5.834   0.111  15.820  0.4570 -0.2984 -0.1526
20004TIP3    H181503   5.766   0.051  15.851 -0.7579  1.8536  1.6166
20004TIP3    H281504   5.914   0.083  15.864  0.2731 -1.4916 -0.5344
20005TIP3   OH281505   3.916   0.893  16.636 -0.0979  0.0698 -0.3752
20005TIP3    H181506   4.002   0.909  16.597  0.2226 -1.7629 -0.5385
20005TIP3    H281507   3.931   0.903  16.731  0.3021 -0.2415 -0.4017
20006TIP3   OH281508   5.237   1.839   5.457 -0.4178  0.0107  0.0860
20006TIP3    H181509   5.230   1.897   5.533  2.6089 -0.8082  1.1014
20006TIP3    H281510   5.317   1.790   5.471 -1.3528 -2.3877 -2.1861
20007TIP3   OH281511   0.340   4.156  13.604  0.4925 -0.1813 -0.8581
20007TIP3    H181512   0.296   4.208  13.672  2.3403  0.3993 -0.0463
20007TIP3    H281513   0.268   4.114  13.557 -0.9020  0.0308  0.9348
20008TIP3   OH281514   5.088   1.394  14.811 -0.4121 -0.1459 -0.0944
20008TIP3    H181515   5.061   1.320  14.757 -0.6409 -0.1859  0.0738
20008TIP3    H281516   5.021   1.400  14.879  0.2486 -0.5380  0.6047
20009TIP3   OH281517   2.579   3.549  15.444  0.7176 -0.5430  0.2246
20009TIP3    H181518   2.625   3.467  15.425  0.8635 -0.2745 -0.6090
20009TIP3    H281519   2.513   3.556  15.375  0.7675  0.0928  0.2393
20010TIP3   OH281520   0.073   1.396  14.701 -0.2225  0.3090  0.7321
20010TIP3    H181521  -0.003   1.440  14.663  0.9446  1.6084 -0.2051
20010TIP3    H281522   0.141   1.463  14.703  1.3443 -1.1958  0.1817
20011TIP3   OH281523   1.281   0.071   2.992  0.1730 -0.0922  0.1274
20011TIP3    H181524   1.289   0.098   3.083 -0.0805 -2.8126  1.0397
20011TIP3    H281525   1.371   0.050   2.965  0.1266 -0.2160  0.0682
20012TIP3   OH281526   6.008   6.765   5.539 -0.0822  0.6775 -0.2755
20012TIP3    H181527   6.052   6.850   5.538 -0.0884  0.6892 -1.5692
20012TIP3    H281528   6.011   6.737   5.630 -1.8630  2.9909  0.5857
20013TIP3   OH281529   1.863   1.954  11.819 -0.3043  0.0056 -0.8326
20013TIP3    H181530   1.782   2.002  11.800 -0.7658 -1.2577 -2.3109
20013TIP3    H281531   1.841   1.897  11.892 -0.8410 -0.5019 -1.3806
20014TIP3   OH281532   3.796   5.320   0.267  0.1213  0.2426 -0.7036
20014TIP3    H181533   3.819   5.396   0.214  3.6401  0.0990  0.3443
20014TIP3    H281534   3.805   5.245   0.208 -0.9436  0.4476 -1.1317
20015TIP3   OH281535   4.919   1.148  12.046 -0.5728  0.0984  0.3036
20015TIP3    H181536   4.906   1.056  12.024  0.0904  0.3703 -1.3174
20015TIP3    H281537   4.833   1.178  12.075 -1.1855 -0.6249 -0.7153
20016TIP3   OH281538   0.874   2.932   6.332  0.1241  0.0211 -0.3313
20016TIP3    H181539   0.885   2.918   6.238 -1.2120  1.4009 -0.7351
20016TIP3    H281540   0.798   2.990   6.339  0.0506 -0.2389  1.6183
20017TIP3   OH281541   5.885   2.437  10.823  0.2050 -0.0917 -0.2494
20017TIP3    H181542   5.834   2.491  10.761 -2.3287 -0.5345  1.3212
20017TIP3    H281543   5.916   2.364  10.770 -1.9081 -0.4748 -1.0663
20018TIP3   OH281544   2.810   2.994  16.778 -0.0029  0.5619 -0.6333
20018TIP3    H181545   2.887   3.001  16.722 -1.8767 -0.9760 -3.6498
20018TIP3    H281546   2.779   3.084  16.787  1.8229  1.1484  0.2826
20019TIP3   OH281547   5.603   2.622   5.896 -0.2218  0.6729 -0.2607
20019TIP3    H181548   5.630   2.557   5.832  0.2273 -1.6276  2.0774
20019TIP3    H281549   5.510   2.605   5.910  0.0580 -0.0292  0.8915
20020TIP3   OH281550   3.564   0.993  15.091 -0.4851 -0.1485  0.4778
20020TIP3    H181551   3.514   0.979  15.011 -0.0125 -1.1392  0.3427
20020TIP3    H281552   3.535   0.924  15.150  0.0745 -0.1943  0.7094
20021TIP3   OH281553   5.179   6.574   2.548  0.4111  0.0221  0.4564
20021TIP3    H181554   5.255   6.523   2.519  0.1649  0.7950 -1.7621
20021TIP3    H281555   5.204   6.665   2.531  0.3009  0.6267  3.0395
20022TIP3   OH281556   5.618   5.777   2.465 -0.2429  0.3238  0.1177
20022TIP3    H181557   5.652   5.693   2.435 -0.9573  0.3920 -0.9579
20022TIP3    H281558   5.691   5.838   2.456  0.2251 -0.1250  0.7325
20023TIP3   OH281559   5.517   3.482  13.892 -0.1058  0.5528  0.3441
20023TIP3    H181560   5.463   3.406  13.870 -0.9742  0.5203  2.3927
20023TIP3    H281561   5.607   3.453  13.874 -0.4017 -1.0466  1.2646
20024TIP3   OH281562   2.687   1.019   3.254  0.2280 -0.3907  0.1693
20024TIP3    H181563   2.731   1.087   3.201  0.6444 -2.8948 -2.9995
20024TIP3    H281564   2.602   1.006   3.210  0.5786 -2.5645  0.0288
20025TIP3   OH281565   1.115   6.209   5.189 -0.1264 -0.1943  0.5388
20025TIP3    H181566   1.201   6.241   5.216 -0.8250 -0.4459  3.3608
20025TIP3    H281567   1.130   6.117   5.167  0.1568 -0.6048  2.2974
20026TIP3   OH281568   1.702   2.316  12.031  0.4617 -0.5629  0.1423
20026TIP3    H181569   1.635   2.360  12.083 -0.1393 -1.7732  0.4202
20026TIP3    H281570   1.745   2.257  12.092  1.3695 -0.2636 -0.1879
20027TIP3   OH281571   5.552   1.247   4.514  0.9370 -0.2231 -0.3340
20027TIP3    H181572   5.563   1.342   4.512 -0.7527  0.0573  0.7852
20027TIP3    H281573   5.641   1.212   4.522  1.4740  1.3956  1.5499
20028TIP3   OH281574   3.125   5.843  14.816  0.5760  0.2970 -0.0234
20028TIP3    H181575   3.056   5.820  14.878 -0.6346 -0.4989 -1.5733
20028TIP3    H281576   3.203   5.856  14.869 -0.5248  0.1757  1.6895
20029TIP3   OH281577   5.931   2.333   5.100  0.3391  0.2766 -0.0448
20029TIP3    H181578   5.928   2.374   5.014 -1.5068  1.6547  0.6019
20029TIP3    H281579   6.020   2.350   5.132  1.3824 -1.1388 -2.0227
20030TIP3   OH281580   1.373   3.589   5.536 -0.5087  0.0108  0.2440
20030TIP3    H181581   1.382   3.495   5.553 -0.5418 -0.2639 -1.1106
20030TIP3    H281582   1.441   3.629   5.590 -0.7321 -0.7479  1.1245
20031TIP3   OH281583   4.547   1.257   2.316  0.6235  0.9040 -0.2192
20031TIP3    H181584   4.452   1.268   2.318  0.5527  0.3586 -0.1748
20031TIP3    H281585   4.582   1.342   2.342  0.1183  0.7505  1.0654
20032TIP3   OH281586   4.744   3.815  11.037 -0.2623  0.0468 -0.5624
20032TIP3    H181587   4.797   3.762  11.097 -0.3565 -0.5473 -0.9895
20032TIP3    H281588   4.674   3.756  11.009 -0.2624  0.3403 -1.1955
20033TIP3   OH281589   1.262   0.803   1.192  0.0106  0.0190  1.1148
20033TIP3    H181590   1.243   0.711   1.171 -0.9934  0.7674 -1.7886
20033TIP3    H281591   1.325   0.830   1.125 -2.1719  2.2516 -0.2259
20034TIP3   OH281592   0.649   3.900  11.052 -0.0417  0.0744  0.3105
20034TIP3    H181593   0.711   3.956  11.005 -1.3038  0.9033 -0.4247
20034TIP3    H281594   0.693   3.815  11.057  1.0063  0.5402 -0.4905
20035TIP3   OH281595   4.399   4.811  11.051 -0.1371 -0.1889  0.2906
20035TIP3    H181596   4.322   4.852  11.093  0.1208  2.2174 -1.3551
20035TIP3    H281597   4.377   4.808  10.958  1.1525 -0.9412 -0.0147
20036TIP3   OH281598   4.793   4.569  16.038 -0.4660 -0.0798 -0.1658
20036TIP3    H181599   4.858   4.627  16.078 -0.2686  0.0861 -0.7149
20036TIP3    H281600   4.829   4.482  16.048 -0.5739 -0.0721  0.3064
20037TIP3   OH281601   6.405   0.186   0.525 -0.2347 -0.2330  0.2418
20037TIP3    H181602   6.367   0.188   0.612 -2.1896 -0.2400 -0.5557
20037TIP3    H281603   6.354   0.249   0.474  0.1180 -1.0260 -1.1760
20038TIP3   OH281604   0.247   0.805  14.376 -0.3892  0.0060  0.1105
20038TIP3    H181605   0.288   0.891  14.387  0.4707 -0.4957  0.8991
20038TIP3    H281606   0.169   0.809  14.431 -0.1134  0.1255  0.4929
20039TIP3   OH281607   4.298   3.234  14.961 -0.4829 -0.0678  0.0389
20039TIP3    H181608   4.281   3.220  15.054  0.6591 -1.8465  0.0121
20039TIP3    H281609   4.377   3.287  14.959 -0.9340  0.6237  0.0653
20040TIP3   OH281610   3.118   0.068   3.832 -0.0911  0.1219 -0.0902
20040TIP3    H181611   3.092  -0.005   3.776 -1.0939  0.6029 -0.2620
20040TIP3    H281612   3.173   0.123   3.777  0.4641 -0.3644 -0.0329
20041TIP3   OH281613   3.321   6.167  10.214  0.2116  0.8504 -0.9855
20041TIP3    H181614   3.298   6.260  10.212 -2.5923  0.2897  0.2025
20041TIP3    H281615   3.260   6.126  10.153  0.4658 -0.3733 -0.4441
20042TIP3   OH281616   4.674   5.150   5.198 -0.1838 -0.0417  0.2233
20042TIP3    H181617   4.618   5.160   5.275  0.7534 -1.3745  1.1221
20042TIP3    H281618   4.739   5.220   5.206 -0.0170 -0.2475  0.7359
20043TIP3   OH281619   1.616   3.457   4.639  0.0843 -0.5186 -0.4290
20043TIP3    H181620   1.595   3.475   4.547 -0.8860 -0.1291 -0.1443
20043TIP3    H281621   1.639   3.364   4.640  1.5130 -0.2128 -1.2876
20044TIP3   OH281622   2.289   0.302  16.949 -0.9361  0.4076 -0.3983
20044TIP3    H181623   2.370   0.322  16.996 -1.8126 -0.8857  1.7668
20044TIP3    H281624   2.277   0.377  16.891  0.2805  2.0394  1.3282
20045TIP3   OH281625   5.571   3.853   3.466 -0.2677 -0.2133  0.2369
20045TIP3    H181626   5.553   3.838   3.373  1.3285 -1.1146  0.0433
20045TIP3    H281627   5.665   3.871   3.470 -0.6368  1.7535  1.4785
20046TIP3   OH281628   2.692   1.699  14.474  0.0912 -0.2527 -0.2755
20046TIP3    H181629   2.756   1.680  14.405  0.7134 -0.3166  0.3077
20046TIP3    H281630   2.610   1.717  14.427  0.1881 -1.5165 -0.9854
20047TIP3   OH281631   6.612   4.644   4.707  0.5328  0.0278  0.4974
20047TIP3    H181632   6.592   4.639   4.800  2.3406 -0.9459  0.8771
20047TIP3    H281633   6.664   4.565   4.689  2.9875  1.7614 -0.5874
20048TIP3   OH281634   4.896   3.943   2.782 -0.4625  0.0683  0.1153
20048TIP3    H181635   4.882   4.009   2.714 -0.7169 -0.9819 -0.8780
20048TIP3    H281636   4.991   3.937   2.790 -0.2313 -2.4200 -2.8734
20049TIP3   OH281637   0.460   5.227  15.333  0.0943 -0.1151  0.8882
20049TIP3    H181638   0.432   5.151  15.282  0.0235 -0.2243  1.0869
20049TIP3    H281639   0.540   5.258  15.290  0.3537 -0.5531  1.0503
20050TIP3   OH281640   2.755   4.635   5.147 -0.4748  0.3469  0.4334
20050TIP3    H181641   2.710   4.590   5.218 -1.1425 -1.4711 -1.0272
20050TIP3    H281642   2.801   4.707   5.189 -0.8387 -0.6369  2.6869
20051TIP3   OH281643   1.503   5.938   6.232  0.2127 -0.2219  0.2237
20051TIP3    H181644   1.408   5.946   6.236  0.3122  1.3162  0.1433
20051TIP3    H281645   1.527   5.976   6.147  0.8964 -0.5142  0.2769
20052TIP3   OH281646   0.766   3.423   2.304  0.2552 -0.5965 -0.1557
20052TIP3    H181647   0.861   3.429   2.309  0.3799  1.0711 -2.6112
20052TIP3    H281648   0.734   3.478   2.375  1.1277 -0.7623  0.3739
20053TIP3   OH281649   1.426   5.169  15.072  0.3631 -0.3485 -0.7369
20053TIP3    H181650   1.430   5.253  15.118  0.2003 -0.7013 -0.0771
20053TIP3    H281651   1.518   5.145  15.057  0.4904 -1.0748  0.9637
20054TIP3   OH281652   1.277   6.793   1.527  0.7382 -0.1523  0.1261
20054TIP3    H181653   1.249   6.883   1.543  0.7723 -0.1491  0.1690
20054TIP3    H281654   1.354   6.781   1.584  0.8306 -0.1572 -0.0006
20055TIP3   OH281655   3.605   6.351   2.800  0.0955 -0.1281 -0.1864
20055TIP3    H181656   3.512   6.330   2.806 -0.2057  1.1963  0.1559
20055TIP3    H281657   3.649   6.266   2.794 -0.9915 -0.8482  1.4434
20056TIP3   OH281658   0.042   1.903   2.160  0.7921  0.6188  0.2302
20056TIP3    H181659   0.057   1.856   2.242 -2.8392  0.7178  1.1294
20056TIP3    H281660   0.067   1.842   2.091 -0.5417 -1.3933  1.4212
20057TIP3   OH281661   5.725   4.793   6.156  0.8020  0.0797 -0.5288
20057TIP3    H181662   5.721   4.721   6.219  0.2529 -0.0746 -0.7358
20057TIP3    H281663   5.746   4.870   6.209 -0.3496  0.0760 -0.0452
20058TIP3   OH281664   2.295   2.663  11.973  0.5658 -0.1066  0.6335
20058TIP3    H181665   2.278   2.677  11.880  1.1736  1.9302  0.7828
20058TIP3    H281666   2.327   2.573  11.978  0.9203 -0.1158 -1.1726
20059TIP3   OH281667   5.364   1.416  16.701  0.0119 -0.4204  0.0432
20059TIP3    H181668   5.358   1.391  16.793 -1.9834  0.1357  0.1209
20059TIP3    H281669   5.452   1.391  16.674  0.0864 -2.0690  1.6654
20060TIP3   OH281670   1.229   2.047  14.095 -0.2682 -0.3326  0.1827
20060TIP3    H181671   1.316   2.048  14.055 -0.9279  3.2747 -1.5654
20060TIP3    H281672   1.177   1.991  14.038  0.4546 -1.1549  0.2959
20061TIP3   OH281673   4.402   0.051   0.827  0.2826 -0.4477 -0.3062
20061TIP3    H181674   4.408   0.107   0.904 -1.6767  1.0875 -1.1701
20061TIP3    H281675   4.357  -0.028   0.857  1.0195 -0.5834  0.4524
20062TIP3   OH281676   1.264   3.965  16.480  0.2076 -0.3811 -0.0309
20062TIP3    H181677   1.239   3.879  16.447 -1.9021 -0.0610  0.5251
20062TIP3    H281678   1.357   3.958  16.500  0.7775 -1.6072 -2.7628
20063TIP3   OH281679   4.637   1.643   2.877  0.1963  0.1319  0.7953
20063TIP3    H181680   4.566   1.624   2.815  1.2262 -0.1054 -0.3623
20063TIP3    H281681   4.641   1.566   2.934 -0.8659  0.4174  1.2668
20064TIP3   OH281682   5.282   5.833   0.506 -0.0292 -0.2207  0.0885
20064TIP3    H181683   5.187   5.818   0.499 -0.6374  1.8447  2.3225
20064TIP3    H281684   5.320   5.746   0.510 -1.9975 -1.1221  0.4680
20065TIP3   OH281685   5.101   1.599   4.521  0.1618  0.3360 -0.3109
20065TIP3    H181686   5.186   1.629   4.553  0.4434 -0.1575 -0.5915
20065TIP3    H281687   5.045   1.598   4.599  0.5344  0.2175 -0.0456
20066TIP3   OH281688   5.103   2.212   5.445 -0.4067  0.2436 -0.3342
20066TIP3    H181689   5.164   2.184   5.513 -0.8077 -0.5925 -0.3192
20066TIP3    H281690   5.098   2.307   5.456 -0.1170  0.1715  0.5059
20067TIP3   OH281691   6.279   1.998   3.275  0.5084 -0.1104  0.2427
20067TIP3    H181692   6.214   2.058   3.238  0.3456 -0.5717 -0.2385
20067TIP3    H281693   6.250   1.983   3.365  0.1165 -0.0681  0.1263
20068TIP3   OH281694   5.334   1.500   2.193  0.0498 -0.4970 -0.6559
20068TIP3    H181695   5.310   1.419   2.148 -1.1233 -0.2148 -0.5634
20068TIP3    H281696   5.258   1.557   2.184  0.7448  0.4949 -0.4631
20069TIP3   OH281697   4.188   3.768   2.491  0.2708  0.4347 -0.2073
20069TIP3    H181698   4.279   3.769   2.461 -0.1265  0.4377 -1.4778
20069TIP3    H281699   4.177   3.682   2.533  0.9867  0.6398  0.4173
20070TIP3   OH281700   4.477   1.650   2.661 -0.0121 -0.2091  0.0551
20070TIP3    H181701   4.474   1.724   2.599 -0.3457 -0.9659 -0.8542
20070TIP3    H281702   4.493   1.574   2.605  0.8709 -0.7687  1.0413
20071TIP3   OH281703   6.180   4.824  16.195 -0.1073 -0.1003 -0.4676
20071TIP3    H181704   6.256   4.881  16.187 -0.1311  0.0819  0.5900
20071TIP3    H281705   6.216   4.738  16.216 -0.1145 -0.3550 -1.4286
20072TIP3   OH281706   6.801   5.440   0.629 -0.0541  0.6244 -0.4497
20072TIP3    H181707   6.743   5.434   0.705  0.2782 -0.9780 -0.2847
20072TIP3    H281708   6.827   5.532   0.626  0.5683  0.6005  1.8900
20073TIP3   OH281709   4.195   2.803  11.703  0.8301  0.3126  0.1426
20073TIP3    H181710   4.197   2.874  11.768  0.9977 -0.5415  1.1064
20073TIP3    H281711   4.268   2.821  11.645  1.1578  0.6817  0.6632
20074TIP3   OH281712   5.639   2.906   6.348  0.1905 -0.3205  0.2674
20074TIP3    H181713   5.546   2.927   6.355  0.2509 -0.3697  1.3763
20074TIP3    H281714   5.647   2.818   6.385  0.5900 -0.5698 -0.3891
20075TIP3   OH281715   6.131   2.539   2.563 -0.0105  0.1171  0.0142
20075TIP3    H181716   6.203   2.490   2.603 -0.7693 -1.3048 -0.2830
20075TIP3    H281717   6.114   2.493   2.481  0.1819  1.7715 -0.9955
20076TIP3   OH281718   6.749   1.588   2.160  0.6355  0.1368  0.3625
20076TIP3    H181719   6.737   1.663   2.219  0.7288  1.0736 -0.7708
20076TIP3    H281720   6.673   1.532   2.177  0.1500  0.8728  0.6815
20077TIP3   OH281721   0.997   0.285   5.503  0.1911  0.1497  0.4896
20077TIP3    H181722   0.959   0.216   5.558 -1.1428  1.1802  0.9072
20077TIP3    H281723   0.926   0.311   5.444  0.4616  1.6094  0.7774
20078TIP3   OH281724   4.928   2.402  12.320 -0.2598 -0.3532  0.1614
20078TIP3    H181725   5.017   2.382  12.291 -0.0019  0.9131  0.0166
20078TIP3    H281726   4.871   2.367  12.251  0.2978  1.7055 -1.4346
20079TIP3   OH281727   1.500   1.738  11.303  0.0703 -0.9158  0.5800
20079TIP3    H181728   1.574   1.788  11.337 -0.4256  1.4516 -1.5609
20079TIP3    H281729   1.535   1.691  11.228 -0.4328 -0.2477 -0.0866
20080TIP3   OH281730   0.639   0.386   5.554  0.5546  0.3696  0.0471
20080TIP3    H181731   0.657   0.473   5.519 -0.3973  0.7066  0.3721
20080TIP3    H281732   0.662   0.391   5.646 -0.6853  0.6713  0.3621
20081TIP3   OH281733   0.866   1.219  10.904 -0.1211  0.2350  0.6238
20081TIP3    H181734   0.789   1.253  10.857  0.3878  1.0289  0.3353
20081TIP3    H281735   0.926   1.192  10.835  0.2068  0.4221  0.8360
20082TIP3   OH281736   1.586   3.296  15.283 -0.2770  0.0992  0.4256
20082TIP3    H181737   1.604   3.252  15.366 -1.9629 -0.7238  0.4152
20082TIP3    H281738   1.558   3.225  15.225  1.8075  0.5285 -1.1742
20083TIP3   OH281739   1.571   3.561  16.624 -0.1242  0.1231  0.1786
20083TIP3    H181740   1.491   3.537  16.577 -0.1316  0.6203 -0.0647
20083TIP3    H281741   1.607   3.478  16.655 -1.7349 -0.0087  1.9249
20084TIP3   OH281742   2.488   1.057  15.590  0.6954 -0.7241 -0.1579
20084TIP3    H181743   2.423   1.048  15.521  0.1672 -1.1158  0.3797
20084TIP3    H281744   2.569   1.022  15.551  0.3965 -0.9762 -0.5600
20085TIP3   OH281745   2.252   3.248  13.314 -0.4027  0.1165 -0.3892
20085TIP3    H181746   2.264   3.226  13.222 -1.2956  1.9239 -0.9854
20085TIP3    H281747   2.324   3.308  13.334 -0.1344 -0.3711  0.1412
20086TIP3   OH281748   3.239   3.196  13.078  0.1652 -0.1363  0.0273
20086TIP3    H181749   3.302   3.268  13.072  0.7003 -0.6766 -0.9043
20086TIP3    H281750   3.155   3.240  13.091  0.4451  0.6812 -0.8253
20087TIP3   OH281751   0.407   5.466  14.512  0.0579 -0.0548 -0.1674
20087TIP3    H181752   0.331   5.419  14.548  1.2621 -0.9143  1.3795
20087TIP3    H281753   0.473   5.460  14.581  1.9532 -0.3554 -1.9281
20088TIP3   OH281754   3.390   1.305  11.452 -0.3321 -0.5125 -0.3845
20088TIP3    H181755   3.483   1.316  11.434 -0.1370 -0.0768  0.7824
20088TIP3    H281756   3.366   1.383  11.502 -1.2450 -0.7943 -0.3590
20089TIP3   OH281757   0.840   5.536   0.482  0.5841  0.1484 -0.4077
20089TIP3    H181758   0.792   5.506   0.405  0.4639 -1.5655  0.2870
20089TIP3    H281759   0.793   5.497   0.556  1.0141  1.3055  0.5122
20090TIP3   OH281760   5.150   2.618  16.833 -0.0407 -0.0643 -0.5018
20090TIP3    H181761   5.163   2.672  16.911 -2.0693  0.8101 -0.6994
20090TIP3    H281762   5.058   2.594  16.837  0.1121 -0.9691 -2.0396
20091TIP3   OH281763   1.146   4.362  16.027 -0.7252  0.1218 -0.6894
20091TIP3    H181764   1.156   4.413  16.107  1.9550 -1.1245 -0.1445
20091TIP3    H281765   1.119   4.275  16.056 -1.1296  0.0417 -1.2783
20092TIP3   OH281766   3.997   6.462   3.924  0.3314 -0.1491 -0.1014
20092TIP3    H181767   3.998   6.468   3.829 -0.7193  2.0749 -0.0244
20092TIP3    H281768   4.058   6.530   3.954 -1.7870  1.5067  0.7888
20093TIP3   OH281769   5.723   2.395   3.249  0.1911 -0.1874 -0.2115
20093TIP3    H181770   5.632   2.424   3.250  0.1498 -0.2554 -1.0961
20093TIP3    H281771   5.729   2.339   3.171  1.6756  2.1102 -1.8685
20094TIP3   OH281772   4.650   5.568  14.040  0.5303  0.2705 -0.0773
20094TIP3    H181773   4.743   5.552  14.026  0.3997  0.9551 -2.1595
20094TIP3    H281774   4.614   5.576  13.951 -1.1001  2.2192  0.6817
20095TIP3   OH281775   1.091   2.823   1.970 -0.3424 -0.6570 -0.0712
20095TIP3    H181776   1.045   2.755   1.920 -4.1911  1.2516  0.5864
20095TIP3    H281777   1.074   2.801   2.061 -0.9224  0.7308  0.1618
20096TIP3   OH281778   3.132   5.057   2.070 -0.3693  1.1395 -0.2188
20096TIP3    H181779   3.169   4.977   2.108 -3.5232 -0.0137  0.8004
20096TIP3    H281780   3.107   5.110   2.146 -1.0613  1.7055 -0.8242
20097TIP3   OH281781   4.058   2.624   1.760  0.3109 -0.1414 -0.5054
20097TIP3    H181782   4.119   2.554   1.779  2.6622  1.4836 -1.6007
20097TIP3    H281783   3.993   2.585   1.701  0.6454 -1.7530  0.1646
20098TIP3   OH281784   6.803   5.017  12.014 -0.9032  0.1134 -0.6735
20098TIP3    H181785   6.880   5.009  11.958  0.6072 -0.1257  1.2998
20098TIP3    H281786   6.752   4.938  11.996  1.6001 -2.0962  1.0991
20099TIP3   OH281787   2.327   0.102  14.749  0.2965  0.2415  0.4073
20099TIP3    H181788   2.235   0.121  14.732  0.7115  1.3770 -0.6805
20099TIP3    H281789   2.326   0.049  14.829 -1.4946 -2.2102 -1.1005
20100TIP3   OH281790   4.520   4.113   0.855  0.5580  0.1687  0.6251
20100TIP3    H181791   4.432   4.076   0.868  1.0513 -0.1826  3.4650
20100TIP3    H281792   4.578   4.054   0.903  2.0671  1.6034  0.6348
20101TIP3   OH281793   2.057   0.085  14.780  0.8402 -0.4873  0.5859
20101TIP3    H181794   2.021   0.035  14.707  0.4104 -0.9096  1.0769
20101TIP3    H281795   1.996   0.069  14.853  1.3772 -0.2476  1.0973
20102TIP3   OH281796   3.293   2.491  16.115  0.2138 -0.0405 -0.0972
20102TIP3    H181797   3.309   2.489  16.209 -0.1580  0.0442 -0.0331
20102TIP3    H281798   3.313   2.582  16.090  1.0646 -0.2526 -0.2361
20103TIP3   OH281799   0.822   2.226   4.352 -0.5235  0.1437  0.2491
20103TIP3    H181800   0.763   2.290   4.394 -1.3005 -0.2334 -0.2452
20103TIP3    H281801   0.765   2.154   4.327  0.6356 -1.6965  2.5664
20104TIP3   OH281802   3.045   6.183  12.638 -0.1322  0.2630 -0.0675
20104TIP3    H181803   3.084   6.239  12.571  1.4130  0.9078  1.3100
20104TIP3    H281804   2.993   6.242  12.692  0.8544  0.2876  0.9065
20105TIP3   OH281805   3.797   3.204   4.232 -0.0419 -0.3107  0.6128
20105TIP3    H181806   3.847   3.209   4.151 -1.3893  1.1727 -0.1740
20105TIP3    H281807   3.828   3.278   4.284  1.2048 -1.5635  1.7382
20106TIP3   OH281808   1.848   6.535  11.673  0.0491 -0.2031 -0.3424
20106TIP3    H181809   1.930   6.543  11.624  0.8598 -0.1928  0.9416
20106TIP3    H281810   1.852   6.604  11.739  0.2085 -1.7090  1.3364
20107TIP3   OH281811   0.294   5.784   0.314 -0.8325 -0.2314 -0.4124
20107TIP3    H181812   0.288   5.717   0.382 -0.2414 -1.2303 -1.3218
20107TIP3    H281813   0.238   5.855   0.346 -0.1182 -0.4253  1.3921
20108TIP3   OH281814   1.262   5.675   6.137 -0.1848  0.0468 -0.4322
20108TIP3    H181815   1.270   5.760   6.181  1.3738 -0.1938 -0.1853
20108TIP3    H281816   1.181   5.637   6.171  0.3684  0.3814  1.3338
20109TIP3   OH281817   3.863   2.208   0.061 -0.4017 -0.1272  0.5507
20109TIP3    H181818   3.857   2.117   0.092 -1.4894  0.5885  2.6066
20109TIP3    H281819   3.933   2.246   0.113 -1.3568  0.7394  1.2525
20110TIP3   OH281820   0.673   2.771  17.005  0.7498  0.1281  0.3049
20110TIP3    H181821   0.620   2.849  17.021  0.6670 -0.1528  1.5107
20110TIP3    H281822   0.714   2.787  16.920 -0.4528  0.8032 -0.1787
20111TIP3   OH281823   4.830   6.455  14.182  0.5244 -0.0994  0.6162
20111TIP3    H181824   4.799   6.509  14.109  3.0802  0.6977  0.0236
20111TIP3    H281825   4.753   6.405  14.209 -1.0907  1.3385 -1.0514
20112TIP3   OH281826   6.207   5.251   5.551  0.1561 -0.0879  0.2221
20112TIP3    H181827   6.188   5.244   5.645 -0.6837 -0.5174  0.0258
20112TIP3    H281828   6.269   5.324   5.545 -0.8188  0.8305  0.9851
20113TIP3   OH281829   5.295   6.115  10.889 -0.3390 -0.1156 -0.6727
20113TIP3    H181830   5.326   6.050  10.826 -0.0860  0.6791 -1.3800
20113TIP3    H281831   5.213   6.078  10.921 -0.0849 -0.8999 -0.8848
20114TIP3   OH281832   2.934   1.379  11.098  0.4818 -0.1168 -0.2531
20114TIP3    H181833   2.845   1.389  11.064 -0.0363 -0.1444  1.0328
20114TIP3    H281834   2.969   1.468  11.102  0.1227  0.0037  0.2284
20115TIP3   OH281835   0.635   6.615  14.575 -0.3250  1.0132 -0.2075
20115TIP3    H181836   0.593   6.583  14.495  0.4778 -1.1241  0.1667
20115TIP3    H281837   0.709   6.667  14.543  1.3439 -1.6527 -0.9585
20116TIP3   OH281838   3.392   6.036   6.028  0.2721  0.1867  0.2676
20116TIP3    H181839   3.313   6.062   6.075 -0.0085 -0.5321  0.2147
20116TIP3    H281840   3.383   6.077   5.942  0.9921  1.8536  0.9406
20117TIP3   OH281841   0.990   5.842   3.862 -0.1825 -0.3296 -0.1089
20117TIP3    H181842   0.896   5.861   3.854  0.2593  1.8091 -0.9568
20117TIP3    H281843   0.995   5.747   3.867 -2.4562 -0.4668  0.8973
20118TIP3   OH281844   0.155   3.385   2.494 -0.3585 -0.2476  0.3048
20118TIP3    H181845   0.196   3.466   2.464 -0.5713  0.5175  1.9601
20118TIP3    H281846   0.092   3.363   2.425 -1.1131  1.6323  0.3261
20119TIP3   OH281847   3.990   0.934  12.497 -0.1024  0.1930 -0.1237
20119TIP3    H181848   3.894   0.937  12.495 -0.1178 -0.6261 -1.4579
20119TIP3    H281849   4.017   0.971  12.413  0.8504  2.2951  1.0341
20120TIP3   OH281850   1.235   4.557   5.219  0.1392  0.3965  0.1382
20120TIP3    H181851   1.177   4.618   5.172 -0.4674  0.5498  1.0576
20120TIP3    H281852   1.189   4.473   5.215  0.3017  0.3103  0.0792
20121TIP3   OH281853   0.591   3.074  15.460 -0.4931  0.3843 -0.0324
20121TIP3    H181854   0.508   3.083  15.414 -0.8987 -1.5749  0.2176
20121TIP3    H281855   0.656   3.065  15.390 -0.3494  2.5517 -0.2396
20122TIP3   OH281856   1.461   3.063   1.848 -0.5272  0.1030  0.1612
20122TIP3    H181857   1.446   3.135   1.909 -1.0312  0.8487 -0.8147
20122TIP3    H281858   1.556   3.054   1.844 -0.4967 -0.3280  1.4641
20123TIP3   OH281859   5.833   0.717   3.321  0.2005 -0.3692 -0.4003
20123TIP3    H181860   5.769   0.668   3.268  0.8957 -1.5292 -0.2019
20123TIP3    H281861   5.800   0.709   3.411 -1.3042  2.1013 -0.6412
20124TIP3   OH281862   5.465   3.433  10.880 -0.1482 -0.1938  0.3879
20124TIP3    H181863   5.424   3.390  10.805  0.9209 -1.0340  0.2651
20124TIP3    H281864   5.542   3.380  10.900  0.5422  0.9893  1.0065
20125TIP3   OH281865   3.362   2.442  15.138 -0.0057 -0.1901  0.5469
20125TIP3    H181866   3.434   2.504  15.127  0.3319 -0.7194 -0.2872
20125TIP3    H281867   3.402   2.356  15.131 -0.2003 -0.5850  3.3183
20126TIP3   OH281868   4.001   6.115  15.863 -0.1830  0.1849  0.6531
20126TIP3    H181869   3.941   6.091  15.934  0.4264  0.9627  1.4591
20126TIP3    H281870   4.041   6.196  15.892  2.1577 -0.9072  0.7054
20127TIP3   OH281871   5.009   0.275  13.709  0.4013  0.7287  0.0027
20127TIP3    H181872   4.997   0.259  13.803  1.0721  0.3234  0.0241
20127TIP3    H281873   5.070   0.348  13.705 -0.2837  1.3061 -0.1204
20128TIP3   OH281874   3.503   4.780   2.398 -0.3635  0.0046  0.1920
20128TIP3    H181875   3.573   4.842   2.418  0.5133 -1.6603  2.7936
20128TIP3    H281876   3.438   4.794   2.467  0.7905 -3.1500  2.1495
20129TIP3   OH281877   5.356   3.578  11.643  0.3905  0.3433 -0.2177
20129TIP3    H181878   5.328   3.626  11.721 -3.4754 -1.9061  0.0305
20129TIP3    H281879   5.369   3.488  11.673  0.7735 -0.1539 -1.7932
20130TIP3   OH281880   3.801   0.412  11.417 -0.4411  0.1130  0.1498
20130TIP3    H181881   3.797   0.356  11.494 -0.7575 -1.5910 -1.0477
20130TIP3    H281882   3.882   0.462  11.427 -1.0288  0.7812  2.0976
20131TIP3   OH281883   6.351   4.770   2.849 -0.2937 -0.4889 -0.3502
20131TIP3    H181884   6.279   4.828   2.874  0.7385  0.2899  0.9805
20131TIP3    H281885   6.318   4.682   2.868 -0.6271 -0.0960  0.9927
20132TIP3   OH281886   1.925   6.041  16.557  0.0298 -0.9190  0.1055
20132TIP3    H181887   1.918   5.976  16.628 -1.1174  2.2314  3.1733
20132TIP3    H281888   1.835   6.066  16.538  0.4718  1.4105  0.7718
20133TIP3   OH281889   3.372   1.027   5.774 -0.4304 -0.7754 -0.3070
20133TIP3    H181890   3.349   1.050   5.684 -0.9148  1.5889  0.3614
20133TIP3    H281891   3.450   1.079   5.793 -1.1414 -0.1551  1.0612
20134TIP3   OH281892   4.266   3.282   2.700 -0.1888 -0.5251  0.0106
20134TIP3    H181893   4.304   3.195   2.712  0.0298 -0.5297 -0.7217
20134TIP3    H281894   4.277   3.301   2.607  1.6029  1.1223  0.4976
20135TIP3   OH281895   2.837   1.414   5.129 -0.0007 -0.6390 -0.1687
20135TIP3    H181896   2.917   1.424   5.078  0.2467 -0.7914  0.1844
20135TIP3    H281897   2.800   1.331   5.099 -0.0020 -0.5920 -0.2977
20136TIP3   OH281898   6.269   4.219   1.722  0.2681 -0.7265 -0.3222
20136TIP3    H181899   6.361   4.219   1.697 -0.6347  1.0465 -4.5074
20136TIP3    H281900   6.228   4.154   1.665 -1.1869 -1.2721  1.2419
20137TIP3   OH281901   6.865   2.551   0.387  0.2359 -0.3055  0.1783
20137TIP3    H181902   6.877   2.628   0.331 -0.8575 -0.7218 -0.6768
20137TIP3    H281903   6.813   2.583   0.461  0.6966 -0.0008  0.3761
20138TIP3   OH281904   3.033   0.255   4.500 -0.0133  0.1876  0.1061
20138TIP3    H181905   3.053   0.345   4.473  1.2035 -0.3219 -0.7732
20138TIP3    H281906   2.943   0.259   4.532  0.3956  1.9519  1.1658
20139TIP3   OH281907   1.255   5.295   6.080 -0.3926 -0.2144  0.1160
20139TIP3    H181908   1.209   5.313   6.162 -1.6402 -1.9915 -0.1237
20139TIP3    H281909   1.185   5.283   6.016  0.3201 -2.9797 -0.2739
20140TIP3   OH281910   6.525   4.009  14.796  0.3287  0.3117  0.4631
20140TIP3    H181911   6.471   4.068  14.849  3.1262  0.5021  3.4126
20140TIP3    H281912   6.474   3.928  14.790 -1.0398  1.0462  1.5785
20141TIP3   OH281913   5.687   4.609   1.284  0.1508  0.2153  0.2565
20141TIP3    H181914   5.636   4.674   1.331 -0.2291 -0.2171  0.4501
20141TIP3    H281915   5.672   4.629   1.191  0.0899  0.4426  0.3142
20142TIP3   OH281916   1.384   4.213   4.115  0.7784  0.6311 -0.2992
20142TIP3    H181917   1.472   4.176   4.112  1.0881  1.2379  0.9612
20142TIP3    H281918   1.397   4.307   4.106  0.3669  0.8368  1.0899
20143TIP3   OH281919   2.714   6.347  10.470 -0.5011  0.0864 -0.5021
20143TIP3    H181920   2.751   6.303  10.547  2.2991 -1.9372 -2.7607
20143TIP3    H281921   2.663   6.280  10.426 -0.2352  0.5290 -1.5158
20144TIP3   OH281922   2.671   4.335  16.863 -0.3702  0.1478  0.3628
20144TIP3    H181923   2.652   4.427  16.845 -0.8168 -0.0979 -0.5060
20144TIP3    H281924   2.626   4.287  16.793  1.2241 -0.6339 -0.1831
20145TIP3   OH281925   5.020   6.447  11.503  0.0271 -0.1004  0.5464
20145TIP3    H181926   4.948   6.403  11.456 -0.7194  0.3543  1.2412
20145TIP3    H281927   5.092   6.384  11.500 -0.5184 -0.7268  0.1713
20146TIP3   OH281928   5.923   0.339   4.339  0.1785  0.2554  0.2534
20146TIP3    H181929   5.919   0.289   4.257 -1.0986  0.3421  0.2335
20146TIP3    H281930   5.986   0.409   4.321 -0.2604  0.4206 -0.7460
20147TIP3   OH281931   2.120   5.648   0.097  0.7108  0.4033 -0.4983
20147TIP3    H181932   2.208   5.684   0.110  0.5768  0.3478  0.7147
20147TIP3    H281933   2.073   5.717   0.049  1.4706  0.3284 -1.3863
20148TIP3   OH281934   1.066   5.738  16.955  0.0821 -0.1882 -0.0079
20148TIP3    H181935   1.124   5.704  16.887  0.5153  0.0082  0.2602
20148TIP3    H281936   0.986   5.763  16.908 -0.4812 -2.0613 -0.1550
20149TIP3   OH281937   0.995   2.641   1.324  0.7186  0.2370  0.1279
20149TIP3    H181938   0.952   2.581   1.385  1.3121 -1.3107 -0.9019
20149TIP3    H281939   1.047   2.583   1.267  2.3146  1.8279 -0.1255
20150TIP3   OH281940   3.811   6.384   5.323 -0.0504  0.0556  0.0708
20150TIP3    H181941   3.744   6.427   5.375 -0.8265  0.5381 -1.2973
20150TIP3    H281942   3.892   6.431   5.344 -0.3567  0.2568  0.8098
20151TIP3   OH281943   1.666   1.303   4.289 -0.7811  0.0101 -0.7769
20151TIP3    H181944   1.614   1.254   4.353  0.9389 -0.0407  0.6420
20151TIP3    H281945   1.617   1.384   4.276 -1.4298 -0.2025  0.2265
20152TIP3   OH281946   5.072   3.242   5.194  0.2827  0.1357  0.3731
20152TIP3    H181947   5.037   3.173   5.138 -0.2823  1.5394 -1.1007
20152TIP3    H281948   4.998   3.301   5.208  0.5595  0.1146  2.2043
20153TIP3   OH281949   5.870   1.649  12.274 -0.0437  0.6002  0.1223
20153TIP3    H181950   5.837   1.574  12.323 -1.1997 -0.6687 -2.3969
20153TIP3    H281951   5.798   1.713  12.276 -0.1077  0.5304  0.0555
20154TIP3   OH281952   1.693   0.331   5.084 -0.0344 -0.5896  0.4150
20154TIP3    H181953   1.599   0.311   5.087 -0.0206 -1.2405 -1.6816
20154TIP3    H281954   1.700   0.400   5.017  0.9628 -0.3149  0.7902
20155TIP3   OH281955   0.751   1.684   4.629 -0.2416  0.8185 -0.0779
20155TIP3    H181956   0.736   1.591   4.614  0.9626  0.3822  1.2746
20155TIP3    H281957   0.825   1.706   4.572  1.0042  0.3590  1.2980
20156TIP3   OH281958   2.712   6.783  11.964  0.4537 -0.2245  0.1093
20156TIP3    H181959   2.742   6.865  11.924  0.3367 -0.3856 -0.3146
20156TIP3    H281960   2.624   6.770  11.930 -0.0318  0.1265  1.1776
20157TIP3   OH281961   0.317   1.537  13.300 -1.1542 -0.5750 -0.3628
20157TIP3    H181962   0.262   1.528  13.378 -0.9069 -3.2538 -0.4059
20157TIP3    H281963   0.277   1.477  13.236 -0.1598  0.0359 -1.6084
20158TIP3   OH281964   4.528   1.383   2.884  0.0138 -0.2871  0.2945
20158TIP3    H181965   4.438   1.410   2.865  0.4670 -0.5709 -2.5540
20158TIP3    H281966   4.539   1.300   2.839  2.0832  0.3777 -0.5525
20159TIP3   OH281967   3.281   4.121  11.038  0.0809  0.1646 -0.3945
20159TIP3    H181968   3.315   4.209  11.024 -1.6400  0.8822 -0.3130
20159TIP3    H281969   3.306   4.072  10.959  0.1489  1.0227 -0.9133
20160TIP3   OH281970   5.720   4.735  11.589  0.0500  0.3553  0.5642
20160TIP3    H181971   5.814   4.725  11.575  0.5629 -0.3806  3.6932
20160TIP3    H281972   5.705   4.830  11.583  0.7056  0.3739 -1.2073
20161TIP3   OH281973   6.578   6.260  10.955 -0.0206  0.0253 -0.4049
20161TIP3    H181974   6.652   6.320  10.958  0.4478 -0.5688  0.6770
20161TIP3    H281975   6.574   6.231  10.864  0.7127  0.5214 -0.5994
20162TIP3   OH281976   1.456   3.099   3.056  0.1392 -0.0188  0.3008
20162TIP3    H181977   1.549   3.110   3.077  0.0030 -0.0628  0.9214
20162TIP3    H281978   1.423   3.038   3.122 -0.2979 -0.1212 -0.0075
20163TIP3   OH281979   0.818   1.781   1.856 -0.3695 -0.6893 -0.1094
20163TIP3    H181980   0.824   1.797   1.950 -1.2125 -1.2611  0.0522
20163TIP3    H281981   0.724   1.774   1.839 -0.4476  2.2370 -1.4882
20164TIP3   OH281982   2.791   1.310  10.460  0.2443 -0.3136 -0.2228
20164TIP3    H181983   2.812   1.228  10.413 -0.4297 -0.2659 -0.6182
20164TIP3    H281984   2.714   1.289  10.512  0.0151  0.0901 -0.3929
20165TIP3   OH281985   1.721   3.085  11.892  0.5522  1.0997 -0.2145
20165TIP3    H181986   1.626   3.084  11.883  0.5332  2.9881 -0.6340
20165TIP3    H281987   1.750   3.003  11.850 -0.9790 -0.7717  2.0911
20166TIP3   OH281988   4.586   1.832   2.009 -0.0377 -0.0460  0.3548
20166TIP3    H181989   4.539   1.861   1.931  0.5630  1.7601  0.6077
20166TIP3    H281990   4.678   1.851   1.990  0.2324 -0.5511  1.0964
20167TIP3   OH281991   4.523   5.482   2.027  0.2938  0.0965  0.1079
20167TIP3    H181992   4.496   5.523   1.944 -0.9063 -0.8882 -0.0221
20167TIP3    H281993   4.453   5.504   2.088  0.4491 -0.3908  0.4635
20168TIP3   OH281994   1.821   4.233   3.893 -0.3193  0.2492  0.1781
20168TIP3    H181995   1.803   4.321   3.861 -2.7358 -0.2594 -0.0596
20168TIP3    H281996   1.752   4.216   3.958  0.9231 -0.9667  1.2603
20169TIP3   OH281997   0.525   4.134  14.835 -0.7859 -0.6824  0.4434
20169TIP3    H181998   0.574   4.098  14.908 -3.6223  0.6013  3.2016
20169TIP3    H281999   0.545   4.228  14.837  0.9589 -0.8832 -2.1119
20170TIP3   OH282000   3.122   3.841  14.858  0.0614 -0.6474 -0.1794
20170TIP3    H182001   3.186   3.879  14.918 -0.6272  1.0998 -0.4889
20170TIP3    H282002   3.113   3.750  14.887  0.9448 -0.2864  1.3325
20171TIP3   OH282003   0.466   5.334   5.820 -0.2480  0.0448 -0.1404
20171TIP3    H182004   0.386   5.364   5.864  0.4640  0.7389  0.7357
20171TIP3    H282005   0.516   5.414   5.804  1.0018 -0.5073  0.8159
20172TIP3   OH282006   4.604   0.211   3.745  0.3587 -0.6978  0.4537
20172TIP3    H182007   4.641   0.123   3.742  0.3670 -0.6923 -1.9342
20172TIP3    H282008   4.679   0.269   3.737  0.1176 -0.6371 -2.2133
20173TIP3   OH282009   6.002   1.463   2.491  0.6225 -0.5609  0.1401
20173TIP3    H182010   6.018   1.549   2.530 -1.4204 -0.4770  0.8977
20173TIP3    H282011   5.907   1.451   2.497  0.6477 -2.0901 -1.6199
20174TIP3   OH282012   4.464   2.389  15.001  0.3299 -0.0592  0.0872
20174TIP3    H182013   4.379   2.347  15.012  0.9304 -1.5538 -0.6684
20174TIP3    H282014   4.444   2.473  14.959 -0.7699 -0.3232  0.0451
20175TIP3   OH282015   1.375   4.082   0.939 -0.0770  0.0076  0.4006
20175TIP3    H182016   1.462   4.121   0.943 -0.5885  1.3737 -0.7147
20175TIP3    H282017   1.368   4.047   0.850 -0.8031  0.2824  0.3413
20176TIP3   OH282018   2.463   2.076   1.095  0.0197  0.8345 -0.4934
20176TIP3    H182019   2.392   2.141   1.099  0.0110  1.0878 -3.2267
20176TIP3    H282020   2.421   1.998   1.060  0.7099  0.3757 -0.3093
20177TIP3   OH282021   5.575   0.952   0.880 -0.0027 -0.1497  0.2635
20177TIP3    H182022   5.642   0.988   0.938  1.7348 -1.6139 -0.7308
20177TIP3    H282023   5.552   0.868   0.919 -3.8073  1.6179  2.4019
20178TIP3   OH282024   1.498   5.783  15.046  0.1686  0.1888  0.3124
20178TIP3    H182025   1.470   5.693  15.061 -0.6724  0.5118  0.7507
20178TIP3    H282026   1.428   5.836  15.084  1.5879  1.0415  1.8544
20179TIP3   OH282027   1.137   2.813   3.347  0.1479  0.3640  0.8002
20179TIP3    H182028   1.115   2.730   3.305 -0.6380  0.9834 -0.0391
20179TIP3    H282029   1.111   2.801   3.438 -0.6772 -0.0444  0.5221
20180TIP3   OH282030   4.653   4.605   5.282 -0.5663 -0.2899  0.4560
20180TIP3    H182031   4.600   4.659   5.341 -0.5513  0.3579 -0.1077
20180TIP3    H282032   4.683   4.666   5.214 -0.2426 -0.9362  0.0054
20181TIP3   OH282033   0.893   0.321  16.833 -0.2144 -0.0293 -0.3283
20181TIP3    H182034   0.855   0.357  16.753 -0.2399  1.2384  0.2373
20181TIP3    H282035   0.870   0.228  16.831 -1.3297  0.2534 -1.1433
20182TIP3   OH282036   4.510   1.867  15.529 -0.3863  0.6852  0.7913
20182TIP3    H182037   4.442   1.843  15.468  0.8735  1.8328 -1.1766
20182TIP3    H282038   4.530   1.959  15.508  2.3839  0.1313  0.5894
20183TIP3   OH282039   5.684   4.284  16.113 -0.0941  0.0986 -0.1872
20183TIP3    H182040   5.591   4.264  16.112 -0.2337  0.7201 -0.0603
20183TIP3    H282041   5.698   4.333  16.194  0.4245 -0.3725  0.0118
20184TIP3   OH282042   3.189   6.654  15.421 -0.0901  0.0759 -0.0493
20184TIP3    H182043   3.235   6.575  15.394 -0.4021  0.7998 -3.0380
20184TIP3    H282044   3.259   6.717  15.440  0.2423  0.3383 -1.9156
20185TIP3   OH282045   6.323   3.569  13.394  0.1040 -0.2520 -0.0517
20185TIP3    H182046   6.282   3.522  13.466 -0.5925  0.1895 -0.1457
20185TIP3    H282047   6.337   3.658  13.427  0.6528 -0.2996 -0.1468
20186TIP3   OH282048   5.504   5.590  12.708  0.4610  0.2947 -0.7852
20186TIP3    H182049   5.528   5.640  12.630  0.5052  1.4197 -0.0790
20186TIP3    H282050   5.435   5.641  12.748  0.8595  0.0501  0.2393
20187TIP3   OH282051   3.078   3.260   1.398 -0.1584  0.1854  0.1353
20187TIP3    H182052   2.989   3.281   1.427 -0.1095 -2.1186  2.2217
20187TIP3    H282053   3.132   3.330   1.434 -0.7719  0.0286  1.4098
20188TIP3   OH282054   1.613   0.965   2.000  0.4127  0.0466  0.4917
20188TIP3    H182055   1.534   1.005   1.964  1.1073 -0.0488 -1.2876
20188TIP3    H282056   1.670   1.039   2.020  0.1845  0.0822  1.0322
20189TIP3   OH282057   0.476   1.122   3.307  0.2180 -0.4374  0.5741
20189TIP3    H182058   0.485   1.177   3.230  0.7414 -0.5484  0.5513
20189TIP3    H282059   0.441   1.180   3.374  0.2131 -0.2223  0.3849
20190TIP3   OH282060   6.812   4.569  12.111  0.1227  0.1302  0.2359
20190TIP3    H182061   6.886   4.629  12.114  0.1494  0.0534  2.4070
20190TIP3    H282062   6.736   4.625  12.127 -0.4695  0.3630 -2.8782
20191TIP3   OH282063   3.339   4.938   1.675  0.0450  0.0558 -0.2796
20191TIP3    H182064   3.367   4.866   1.619 -2.1065 -1.2931  0.2768
20191TIP3    H282065   3.296   4.896   1.749 -2.3675  1.9003 -0.5088
20192TIP3   OH282066   0.325   3.059   2.890  0.2625 -0.0428 -0.3089
20192TIP3    H182067   0.414   3.081   2.917  0.5229 -1.2715 -0.1210
20192TIP3    H282068   0.308   3.113   2.813  1.1329  0.2645 -0.2877
20193TIP3   OH282069   4.111   5.829  14.818  0.6289  0.2002 -0.0193
20193TIP3    H182070   4.036   5.815  14.876 -1.1020 -0.0784 -2.1920
20193TIP3    H282071   4.085   5.903  14.762  2.5282  0.9356  0.0040
20194TIP3   OH282072   6.418   2.018  16.423 -0.3749 -0.0280 -0.4399
20194TIP3    H182073   6.375   1.998  16.506  0.8467  0.0261  0.2282
20194TIP3    H282074   6.502   2.055  16.448 -0.0388  0.1124 -1.7120
20195TIP3   OH282075   4.902   4.019  11.099  0.1029  0.0281  0.1101
20195TIP3    H182076   4.878   3.938  11.054  0.3102 -0.8130  1.4702
20195TIP3    H282077   4.830   4.035  11.160  0.2169  0.7041  0.0762
20196TIP3   OH282078   3.660   4.543  13.749 -0.0301  0.2921  0.3251
20196TIP3    H182079   3.574   4.584  13.754  1.2347  3.3502 -0.7536
20196TIP3    H282080   3.643   4.454  13.720 -2.8651  0.4877  1.1308
20197TIP3   OH282081   6.279   1.269  16.108 -0.0576  0.4686  0.4097
20197TIP3    H182082   6.341   1.301  16.042 -1.8317  0.2972 -1.4317
20197TIP3    H282083   6.305   1.313  16.189  2.5983  0.1965 -0.1927
20198TIP3   OH282084   5.935   6.174  13.839 -0.6507  0.2120 -0.7494
20198TIP3    H182085   5.863   6.145  13.895 -0.4885 -0.4815 -0.8892
20198TIP3    H282086   5.912   6.263  13.813 -1.5770 -0.0872 -0.9791
20199TIP3   OH282087   4.063   5.935  16.910  0.0616  0.1063  0.1505
20199TIP3    H182088   4.029   5.912  16.997  0.5088  2.7979  1.1239
20199TIP3    H282089   4.149   5.973  16.928 -0.0352  1.1478 -1.4315
20200TIP3   OH282090   1.782   1.883  13.432  0.2849 -0.2567 -0.2293
20200TIP3    H182091   1.870   1.864  13.399  1.2747 -0.1072  2.0889
20200TIP3    H282092   1.736   1.800  13.426  1.2048 -0.8189  0.2054
20201TIP3   OH282093   0.985   2.254   0.868 -1.1056 -0.4320  0.1238
20201TIP3    H182094   0.910   2.258   0.808 -0.4171 -1.1402 -0.8137
20201TIP3    H282095   0.983   2.165   0.903 -1.9205  0.1862  1.7415
20202TIP3   OH282096   3.924   3.953   0.830  0.4382 -0.0171 -0.1569
20202TIP3    H182097   3.934   3.919   0.741  0.6258 -0.0415 -0.1269
20202TIP3    H282098   4.010   3.991   0.850  0.0825  0.9668 -0.4015
20203TIP3   OH282099   5.163   5.286   1.939  0.4744 -0.8276 -0.6349
20203TIP3    H182100   5.199   5.321   1.857 -0.2373  0.0406 -0.5853
20203TIP3    H282101   5.070   5.305   1.934  0.5045 -0.2697  0.6258
20204TIP3   OH282102   0.342   3.866  14.040 -0.1698 -0.4400 -0.4035
20204TIP3    H182103   0.355   3.944  14.094  0.1359 -0.1975 -0.8138
20204TIP3    H282104   0.282   3.811  14.090 -1.1127  0.4592 -0.5101
20205TIP3   OH282105   0.608   2.486  14.575  0.0945  0.2344  0.2375
20205TIP3    H182106   0.521   2.503  14.539  0.5183 -0.5882 -1.3173
20205TIP3    H282107   0.593   2.425  14.647 -0.4136 -4.0174 -3.0413
20206TIP3   OH282108   5.088   4.069   0.052  0.2108 -0.0085 -0.3645
20206TIP3    H182109   5.097   3.976   0.075 -1.7145 -0.1498 -0.0550
20206TIP3    H282110   5.046   4.109   0.129 -1.1203  0.6354 -1.3907
20207TIP3   OH282111   2.031   3.896   0.327 -0.0918 -0.5415 -0.1093
20207TIP3    H182112   2.037   3.812   0.282 -0.6330 -0.4008 -0.4508
20207TIP3    H282113   2.096   3.890   0.397  2.1527 -0.0857 -1.9880
20208TIP3   OH282114   5.263   2.329   3.432  0.2238  0.8685 -0.3345
20208TIP3    H182115   5.270   2.277   3.512 -1.3273  0.5749 -0.3482
20208TIP3    H282116   5.282   2.267   3.361 -0.2367  0.6662 -0.2818
20209TIP3   OH282117   2.179   6.818  11.721 -0.0655  0.3856 -0.0410
20209TIP3    H182118   2.089   6.785  11.729  0.6131 -1.3427  1.2272
20209TIP3    H282119   2.222   6.756  11.662  0.7912  0.0045  0.9541
20210TIP3   OH282120   1.079   1.366  15.127 -0.3590 -0.1408  0.4570
20210TIP3    H182121   1.174   1.376  15.135 -0.1161 -1.7156 -0.0412
20210TIP3    H282122   1.068   1.286  15.075 -1.9579 -0.7126  1.6126
20211TIP3   OH282123   2.314   4.040   4.980  0.6821 -0.6430 -0.2057
20211TIP3    H182124   2.306   4.109   5.046 -0.7109 -1.1403  0.1820
20211TIP3    H282125   2.303   4.084   4.896 -1.1429 -0.4888  0.0768
20212TIP3   OH282126   0.307   6.154  15.638 -0.2853  0.2486  0.2157
20212TIP3    H182127   0.359   6.120  15.710  0.8816 -1.7837 -1.4413
20212TIP3    H282128   0.369   6.203  15.584 -0.4766 -0.5746 -0.7903
20213TIP3   OH282129   0.633   0.760   3.943 -0.0186  0.2128  0.5672
20213TIP3    H182130   0.650   0.751   4.036  0.4949  0.4220  0.4975
20213TIP3    H282131   0.542   0.730   3.932 -0.2312  0.6084  1.1973
20214TIP3   OH282132   3.828   1.198   5.137  0.4689  0.2477  0.0502
20214TIP3    H182133   3.832   1.239   5.050 -1.1112  0.0688 -0.1400
20214TIP3    H282134   3.919   1.193   5.165  1.0341  0.1971 -1.6529
20215TIP3   OH282135   0.908   2.410  15.518 -0.2018 -0.0684  1.0136
20215TIP3    H182136   0.842   2.372  15.576  0.4605 -1.4611  0.9008
20215TIP3    H282137   0.943   2.485  15.567 -2.1599  1.0046  0.8666
20216TIP3   OH282138   3.194   5.050  16.421  1.2643  0.1942 -0.8389
20216TIP3    H182139   3.230   5.131  16.458 -0.9708  0.7238  0.3549
20216TIP3    H282140   3.139   5.080  16.348 -0.4989 -0.0728  0.3277
20217TIP3   OH282141   1.454   6.521  11.447 -0.0273 -0.4781  0.0438
20217TIP3    H182142   1.546   6.549  11.446  0.0598 -0.7876 -0.4387
20217TIP3    H282143   1.414   6.569  11.375 -0.2344 -0.4004  0.2089
20218TIP3   OH282144   6.578   4.767  12.615  0.2512  0.3575  0.2745
20218TIP3    H182145   6.565   4.712  12.537  2.1059  0.9007 -0.4720
20218TIP3    H282146   6.502   4.749  12.670 -1.2409  0.0889 -1.7391
20219TIP3   OH282147   4.066   0.187   1.535 -0.7354  0.1196 -0.0078
20219TIP3    H182148   4.075   0.101   1.577 -0.0059  0.1397 -0.1080
20219TIP3    H282149   4.138   0.238   1.570  0.1677  0.0007 -1.6049
20220TIP3   OH282150   2.033   5.393  12.491 -0.2938 -0.3680 -0.0912
20220TIP3    H182151   2.060   5.460  12.553 -1.9722  0.4502 -0.1989
20220TIP3    H282152   2.110   5.379  12.436  0.5410  0.4115  0.8494
20221TIP3   OH282153   1.397   0.359  16.963 -0.8016 -0.3477 -0.6744
20221TIP3    H182154   1.343   0.398  17.032  0.4061 -1.6691  1.1333
20221TIP3    H282155   1.466   0.424  16.948  0.1612 -0.9324  0.9871
20222TIP3   OH282156   3.334   4.085  14.146  0.3668 -0.0173 -0.2169
20222TIP3    H182157   3.364   4.108  14.058 -0.0803  0.0901 -0.3432
20222TIP3    H282158   3.248   4.045  14.133  0.3045 -0.0145  0.1695
20223TIP3   OH282159   6.299   6.676   5.642  0.5648 -0.2623 -0.8253
20223TIP3    H182160   6.388   6.711   5.639 -0.1713  1.8673  0.1645
20223TIP3    H282161   6.269   6.677   5.551  1.0035  0.5474 -0.9687
20224TIP3   OH282162   4.116   2.486   3.345 -0.3222 -0.0013  0.3379
20224TIP3    H182163   4.198   2.532   3.361  0.1455 -0.8811  0.5108
20224TIP3    H282164   4.051   2.535   3.396  0.1913  0.3857  0.6297
20225TIP3   OH282165   5.251   6.651   0.799  0.0767  0.5448 -0.1069
20225TIP3    H182166   5.307   6.635   0.875  0.5374  0.4415 -0.4635
20225TIP3    H282167   5.164   6.623   0.827  0.0838  1.2235  0.6426
20226TIP3   OH282168   6.701   1.984  12.217  0.0575  0.7109 -0.6174
20226TIP3    H182169   6.639   2.023  12.279 -2.2179 -0.4496 -1.9875
20226TIP3    H282170   6.679   2.025  12.133 -2.0239 -2.7483 -2.0060
20227TIP3   OH282171   2.446   2.047   4.179  0.0229 -0.1542 -0.2428
20227TIP3    H182172   2.448   2.103   4.101 -0.2543 -0.6562 -0.6169
20227TIP3    H282173   2.520   2.076   4.231 -0.5132  1.0238 -0.1043
20228TIP3   OH282174   5.759   3.036  16.337  0.2360  0.0234  0.1424
20228TIP3    H182175   5.672   2.996  16.331 -0.2975  1.2560 -0.7477
20228TIP3    H282176   5.750   3.100  16.408  0.7289 -0.5824  0.7545
20229TIP3   OH282177   1.828   4.048   6.165  0.5690 -0.0216  0.0383
20229TIP3    H182178   1.735   4.047   6.189  0.5596 -1.5235 -0.0236
20229TIP3    H282179   1.833   4.113   6.095 -0.6676 -0.8019 -0.8159
20230TIP3   OH282180   6.723   4.398  13.251 -0.6444 -0.0456 -0.6515
20230TIP3    H182181   6.650   4.449  13.216 -0.0298  2.1438  1.0639
20230TIP3    H282182   6.794   4.410  13.188 -0.5081  1.2741 -0.2746
20231TIP3   OH282183   4.816   1.930  15.677  0.3615 -0.0042 -0.4689
20231TIP3    H182184   4.736   1.883  15.651 -0.7926  1.8112 -0.3909
20231TIP3    H282185   4.814   1.929  15.772  0.8140 -0.5455 -0.4610
20232TIP3   OH282186   2.317   2.077   2.759  0.8893 -0.5871 -0.0420
20232TIP3    H182187   2.353   2.148   2.706 -1.6759 -0.0840 -1.2404
20232TIP3    H282188   2.348   2.096   2.848  1.1476  1.4229 -0.5087
20233TIP3   OH282189   3.036   5.866  15.097 -0.8637 -0.2663  0.3488
20233TIP3    H182190   3.064   5.956  15.080  0.7849 -1.2106 -2.6523
20233TIP3    H282191   3.098   5.834  15.163  0.1619  0.0880 -0.4088
20234TIP3   OH282192   4.685   6.760  15.155  0.7214  0.2652  0.0986
20234TIP3    H182193   4.657   6.731  15.068 -0.3945 -0.6301  0.7228
20234TIP3    H282194   4.668   6.685  15.212  0.9275  1.0154  1.1850
20235TIP3   OH282195   2.025   0.031   1.650 -0.0433 -0.3242 -0.0091
20235TIP3    H182196   2.108   0.076   1.666  1.0345 -1.3055 -2.3339
20235TIP3    H282197   2.049  -0.061   1.642 -1.1670 -0.5330 -1.6043
20236TIP3   OH282198   0.167   5.738   3.586  0.2042  0.4130  1.2080
20236TIP3    H182199   0.085   5.740   3.536  0.8935  0.8077  0.0788
20236TIP3    H282200   0.176   5.647   3.613  0.9258 -0.3180 -1.2672
20237TIP3   OH282201   0.099   4.881  11.056 -0.1376 -0.0949  0.3367
20237TIP3    H182202   0.148   4.853  10.979 -1.4735 -3.5582  0.5468
20237TIP3    H282203   0.034   4.811  11.070 -1.9128  1.8539  2.8699
20238TIP3   OH282204   4.969   1.000  16.524 -0.0386  0.5002  0.1694
20238TIP3    H182205   4.880   0.994  16.489  0.0515 -2.9429  0.1123
20238TIP3    H282206   5.018   1.048  16.458 -1.4262  0.5574 -0.8634
20239TIP3   OH282207   4.283   1.275   2.273 -0.3559 -0.0774  0.0813
20239TIP3    H182208   4.267   1.193   2.227 -0.5981 -0.1742  0.3332
20239TIP3    H282209   4.203   1.326   2.260 -0.7415 -0.4067  1.0173
20240TIP3   OH282210   4.200   5.009   2.035 -0.2589 -0.0353  0.0426
20240TIP3    H182211   4.272   4.948   2.049 -0.5277 -0.3106  0.2265
20240TIP3    H282212   4.138   4.990   2.105 -0.0675  0.8615  0.4768
20241TIP3   OH282213   1.363   1.303  14.383 -0.9863  0.2424  0.3429
20241TIP3    H182214   1.327   1.240  14.445 -0.1776  1.2801  1.9101
20241TIP3    H282215   1.454   1.314  14.409  0.2306 -1.3111 -2.7109
20242TIP3   OH282216   5.508   4.902   3.941 -0.3703  0.0489 -0.3804
20242TIP3    H182217   5.587   4.929   3.894 -0.7649  0.9186 -0.5718
20242TIP3    H282218   5.447   4.975   3.928 -1.3033 -0.7246 -0.4753
20243TIP3   OH282219   5.815   6.299   3.540  0.1729 -0.3413  0.1571
20243TIP3    H182220   5.724   6.322   3.555 -0.0846 -1.3711  0.2100
20243TIP3    H282221   5.817   6.203   3.538  0.6933 -0.3910 -3.0006
20244TIP3   OH282222   4.746   2.021  11.395  0.8936  0.3325  0.1301
20244TIP3    H182223   4.753   2.116  11.407  2.9746  0.0931  1.3367
20244TIP3    H282224   4.820   1.998  11.339 -1.4548 -0.2531 -2.9969
20245TIP3   OH282225   2.342   2.239  12.877 -0.6933  0.2963  0.2996
20245TIP3    H182226   2.277   2.170  12.888 -1.7071  1.1513 -0.1962
20245TIP3    H282227   2.413   2.214  12.936 -1.8494 -0.1900  1.5358
20246TIP3   OH282228   2.468   5.570  12.164 -0.0316 -0.1506 -0.5986
20246TIP3    H182229   2.398   5.620  12.122 -0.0861  0.3239  0.0465
20246TIP3    H282230   2.548   5.606  12.128 -0.0847 -1.8318 -2.6634
20247TIP3   OH282231   0.851   4.783   3.516  0.1041  0.3372  0.0820
20247TIP3    H182232   0.911   4.732   3.462  0.0531  0.5300 -0.1561
20247TIP3    H282233   0.770   4.787   3.465 -0.1726 -0.0752  0.4817
20248TIP3   OH282234   5.124   2.566  15.678 -0.7439  0.3391  0.3686
20248TIP3    H182235   5.136   2.602  15.590 -2.6162 -0.0668 -0.0960
20248TIP3    H282236   5.110   2.472  15.665  2.3449 -0.3886  1.4324
20249TIP3   OH282237   5.772   2.894   5.034 -0.6136 -0.2477  0.3104
20249TIP3    H182238   5.729   2.979   5.040  0.9301  0.5455  0.4992
20249TIP3    H282239   5.772   2.861   5.124 -0.1742  0.0825  0.4331
20250TIP3   OH282240   1.714   4.598  16.123  0.4332  1.0938 -0.0338
20250TIP3    H182241   1.710   4.503  16.125 -0.4947  1.1324  1.7778
20250TIP3    H282242   1.700   4.621  16.031  0.6010 -0.4960 -0.4863
20251TIP3   OH282243   5.243   6.234  15.652 -0.6232  0.3488  0.2106
20251TIP3    H182244   5.284   6.312  15.689  1.7232 -0.5587 -0.3129
20251TIP3    H282245   5.251   6.168  15.721 -0.8102  0.0373 -0.0661
20252TIP3   OH282246   5.849   2.963   0.482 -0.4577  0.1091  0.1142
20252TIP3    H182247   5.772   2.945   0.536 -0.9286 -1.5138 -1.0430
20252TIP3    H282248   5.817   3.018   0.411 -0.0239  1.4623  0.9271
20253TIP3   OH282249   0.644   2.341  14.841  0.5761 -0.0239 -0.1216
20253TIP3    H182250   0.567   2.319  14.893  1.5955 -2.5200  0.4838
20253TIP3    H282251   0.707   2.375  14.905 -0.2412  2.8745 -0.7439
20254TIP3   OH282252   4.184   0.913   0.099 -0.1364  0.3398 -0.5810
20254TIP3    H182253   4.172   0.964   0.179 -0.4016 -1.8212  0.8618
20254TIP3    H282254   4.278   0.919   0.081  0.4712 -1.3760  1.5858
20255TIP3   OH282255   1.099   5.634  11.392  0.2802  0.4054  0.1882
20255TIP3    H182256   1.106   5.678  11.477  1.6772  2.4021 -0.8845
20255TIP3    H282257   1.133   5.698  11.329 -1.1441 -0.8261 -1.9516
20256TIP3   OH282258   1.715   1.415   2.371 -0.0749 -0.0036  0.3677
20256TIP3    H182259   1.626   1.435   2.342 -0.8980 -2.5521  0.8829
20256TIP3    H282260   1.764   1.405   2.290 -0.3390  0.9562  0.0704
20257TIP3   OH282261   1.844   4.754   2.794  0.0190  0.0531 -0.3795
20257TIP3    H182262   1.859   4.742   2.888 -1.8405  0.5504  0.0136
20257TIP3    H282263   1.862   4.668   2.756  1.9472  0.1307  0.2290
20258TIP3   OH282264   4.993   2.671  12.237 -0.5139 -0.0774 -0.0675
20258TIP3    H182265   5.083   2.642  12.222 -0.1224  0.7845  0.4907
20258TIP3    H282266   4.949   2.596  12.276 -0.2825 -0.7951 -1.1452
20259TIP3   OH282267   1.963   0.581  11.687  0.5101 -0.1605  0.7052
20259TIP3    H182268   1.873   0.610  11.704  0.5244  0.0164  0.4800
20259TIP3    H282269   1.979   0.606  11.596  1.0052  0.3745  0.9349
20260TIP3   OH282270   0.873   4.743  13.038 -0.2163 -0.0360  0.6895
20260TIP3    H182271   0.840   4.657  13.011 -0.5699  0.1955  0.3659
20260TIP3    H282272   0.959   4.725  13.075  0.6222 -0.2791 -1.2624
20261TIP3   OH282273   6.510   4.157  15.942  0.0473  0.0501  0.1174
20261TIP3    H182274   6.576   4.122  15.882 -0.3280 -0.3918 -0.0506
20261TIP3    H282275   6.486   4.242  15.905 -0.8120 -0.5943 -0.8711
20262TIP3   OH282276   0.432   2.614  11.453 -0.1001 -0.2582 -0.0416
20262TIP3    H182277   0.402   2.529  11.483  0.4145 -0.6730 -0.6770
20262TIP3    H282278   0.376   2.635  11.378 -0.5526  0.1967  0.4162
20263TIP3   OH282279   4.723   1.906   4.256  0.2829 -0.1905  0.0495
20263TIP3    H182280   4.679   1.836   4.209  1.4606  0.6659 -2.5869
20263TIP3    H282281   4.680   1.986   4.225  0.5527  0.3814  1.1121
20264TIP3   OH282282   1.228   2.236  13.828 -0.3984  0.1252  0.1422
20264TIP3    H182283   1.313   2.208  13.862 -0.7393 -0.5903  0.4229
20264TIP3    H282284   1.223   2.329  13.849 -0.3206 -0.1625  1.4748
20265TIP3   OH282285   0.278   2.383   6.161  0.0659  0.4207 -0.1681
20265TIP3    H182286   0.299   2.383   6.068  0.8232 -0.0833 -0.0078
20265TIP3    H282287   0.241   2.296   6.178 -2.1888  1.2717 -0.4301
20266TIP3   OH282288   1.765   3.387  14.216 -0.1080 -0.1543 -0.7266
20266TIP3    H182289   1.820   3.463  14.196  0.3895 -0.2103  0.3396
20266TIP3    H282290   1.802   3.351  14.297 -3.0408  1.2123  1.4516
20267TIP3   OH282291   0.699   1.178  16.797 -0.6440 -0.3656  0.2313
20267TIP3    H182292   0.674   1.092  16.829 -0.7015 -0.2488  0.5058
20267TIP3    H282293   0.795   1.178  16.801 -0.5396 -1.1021 -1.5813
20268TIP3   OH282294   0.196   2.516   5.342 -0.1828 -0.1324 -0.0634
20268TIP3    H182295   0.184   2.454   5.414  1.4840 -0.1301  0.2498
20268TIP3    H282296   0.281   2.557   5.359 -0.1701  0.5282 -1.5515
20269TIP3   OH282297   0.402   6.859  13.762  0.6029 -0.2735  0.1464
20269TIP3    H182298   0.321   6.841  13.715  1.4741 -0.1030 -1.4696
20269TIP3    H282299   0.384   6.941  13.810 -0.2545 -0.3827  0.0294
20270TIP3   OH282300   5.961   4.416   3.636 -0.8270 -0.2421 -0.0135
20270TIP3    H182301   6.014   4.488   3.601 -0.7065  0.6381  1.8192
20270TIP3    H282302   5.871   4.440   3.615 -0.7915  0.5075  0.6347
20271TIP3   OH282303   2.646   6.018  16.672 -0.1274  0.2558 -0.5610
20271TIP3    H182304   2.602   6.067  16.602  1.9444 -0.3107 -2.3784
20271TIP3    H282305   2.627   5.926  16.651 -0.0821  0.1060  0.0486
20272TIP3   OH282306   0.564   5.649  11.164  0.0301  0.0836  0.2091
20272TIP3    H182307   0.654   5.648  11.197  0.2279 -2.6048 -0.1542
20272TIP3    H282308   0.524   5.726  11.203  2.8306  2.1101 -0.6664
20273LIG      O82309   1.532   1.749  16.478 -0.2427  0.4649 -0.3174
20273LIG     C182310   1.621   1.861  16.503 -0.1734 -0.2451  0.6404
20273LIG     C282311   1.716   1.828  16.621 -0.4522  0.2664 -0.5965
20273LIG     C382312   1.695   1.878  16.373 -0.2444 -1.0425 -0.0061
20273LIG     H182313   1.567   1.950  16.541  2.6210  0.2738  3.8445
20273LIG     H282314   1.791   1.748  16.604  0.5177  0.7890  0.9694
20273LIG     H382315   1.661   1.797  16.712  1.5928  0.7199  0.8730
20273LIG     H482316   1.782   1.915  16.646 -0.5131  0.0567  0.3217
20273LIG     H582317   1.766   1.959  16.402 -1.4865 -0.7226  2.4447
20273LIG     H682318   1.628   1.900  16.287 -1.9068 -1.7618  1.0474
20273LIG     H782319   1.756   1.786  16.358 -0.4139 -1.1926  0.2141
20273LIG     H882320   1.475   1.745  16.555 -0.3939 -1.3132 -0.4681
   6.88065   6.88065  17.03573
